;
; Gromacs include topology (itp) file.
; For Molecular Group XYZ
; Force field scheme: opls2005
; Produced from DL_FIELD v4.11
;


[ moleculetype ]
; name    nrexcl
XYZ    3

[ atoms ]
; nr   type   resnr   residu    atom    cgnr    charge    mass
    1        CT    1  MOL      C1     1  -0.1800000   12.0115
    2        CT    1  MOL      C2     2  -0.0600000   12.0115
    3        CT    1  MOL      C3     3  -0.1200000   12.0115
    4        CT    1  MOL      C4     4  -0.1800000   12.0115
    5        HC    1  MOL      H5     5   0.0600000    1.0080
    6        HC    1  MOL      H6     6   0.0600000    1.0080
    7        HC    1  MOL      H7     7   0.0600000    1.0080
    8        HC    1  MOL      H8     8   0.0600000    1.0080
    9        HC    1  MOL      H9     9   0.0600000    1.0080
   10        HC    1  MOL     H10    10   0.0600000    1.0080
   11        HC    1  MOL     H11    11   0.0600000    1.0080
   12        HC    1  MOL     H12    12   0.0600000    1.0080
   13        HC    1  MOL     H13    13   0.0600000    1.0080
   14        CT    1  MOL     C14    14  -0.1200000   12.0115
   15        CT    1  MOL     C15    15  -0.0600000   12.0115
   16        CT    1  MOL     C16    16  -0.1200000   12.0115
   17        CT    1  MOL     C17    17  -0.1800000   12.0115
   18        HC    1  MOL     H18    18   0.0600000    1.0080
   19        HC    1  MOL     H19    19   0.0600000    1.0080
   20        HC    1  MOL     H20    20   0.0600000    1.0080
   21        HC    1  MOL     H21    21   0.0600000    1.0080
   22        HC    1  MOL     H22    22   0.0600000    1.0080
   23        HC    1  MOL     H23    23   0.0600000    1.0080
   24        HC    1  MOL     H24    24   0.0600000    1.0080
   25        HC    1  MOL     H25    25   0.0600000    1.0080
   26        CT    1  MOL     C26    26  -0.1200000   12.0115
   27        CT    1  MOL     C27    27  -0.0600000   12.0115
   28        CT    1  MOL     C28    28  -0.1200000   12.0115
   29        CT    1  MOL     C29    29  -0.1800000   12.0115
   30        HC    1  MOL     H30    30   0.0600000    1.0080
   31        HC    1  MOL     H31    31   0.0600000    1.0080
   32        HC    1  MOL     H32    32   0.0600000    1.0080
   33        HC    1  MOL     H33    33   0.0600000    1.0080
   34        HC    1  MOL     H34    34   0.0600000    1.0080
   35        HC    1  MOL     H35    35   0.0600000    1.0080
   36        HC    1  MOL     H36    36   0.0600000    1.0080
   37        HC    1  MOL     H37    37   0.0600000    1.0080
   38        CT    1  MOL     C38    38  -0.1200000   12.0115
   39        CT    1  MOL     C39    39  -0.0600000   12.0115
   40        CT    1  MOL     C40    40  -0.1200000   12.0115
   41        CT    1  MOL     C41    41  -0.1800000   12.0115
   42        HC    1  MOL     H42    42   0.0600000    1.0080
   43        HC    1  MOL     H43    43   0.0600000    1.0080
   44        HC    1  MOL     H44    44   0.0600000    1.0080
   45        HC    1  MOL     H45    45   0.0600000    1.0080
   46        HC    1  MOL     H46    46   0.0600000    1.0080
   47        HC    1  MOL     H47    47   0.0600000    1.0080
   48        HC    1  MOL     H48    48   0.0600000    1.0080
   49        HC    1  MOL     H49    49   0.0600000    1.0080
   50        CT    1  MOL     C50    50  -0.1200000   12.0115
   51        CT    1  MOL     C51    51  -0.0600000   12.0115
   52        CT    1  MOL     C52    52  -0.1200000   12.0115
   53        CT    1  MOL     C53    53  -0.1800000   12.0115
   54        HC    1  MOL     H54    54   0.0600000    1.0080
   55        HC    1  MOL     H55    55   0.0600000    1.0080
   56        HC    1  MOL     H56    56   0.0600000    1.0080
   57        HC    1  MOL     H57    57   0.0600000    1.0080
   58        HC    1  MOL     H58    58   0.0600000    1.0080
   59        HC    1  MOL     H59    59   0.0600000    1.0080
   60        HC    1  MOL     H60    60   0.0600000    1.0080
   61        HC    1  MOL     H61    61   0.0600000    1.0080
   62        CT    1  MOL     C62    62  -0.1200000   12.0115
   63        CT    1  MOL     C63    63  -0.0600000   12.0115
   64        CT    1  MOL     C64    64  -0.1200000   12.0115
   65        CT    1  MOL     C65    65  -0.1800000   12.0115
   66        HC    1  MOL     H66    66   0.0600000    1.0080
   67        HC    1  MOL     H67    67   0.0600000    1.0080
   68        HC    1  MOL     H68    68   0.0600000    1.0080
   69        HC    1  MOL     H69    69   0.0600000    1.0080
   70        HC    1  MOL     H70    70   0.0600000    1.0080
   71        HC    1  MOL     H71    71   0.0600000    1.0080
   72        HC    1  MOL     H72    72   0.0600000    1.0080
   73        HC    1  MOL     H73    73   0.0600000    1.0080
   74        CT    1  MOL     C74    74  -0.1200000   12.0115
   75        CT    1  MOL     C75    75  -0.0600000   12.0115
   76        CT    1  MOL     C76    76  -0.1200000   12.0115
   77        CT    1  MOL     C77    77  -0.1800000   12.0115
   78        HC    1  MOL     H78    78   0.0600000    1.0080
   79        HC    1  MOL     H79    79   0.0600000    1.0080
   80        HC    1  MOL     H80    80   0.0600000    1.0080
   81        HC    1  MOL     H81    81   0.0600000    1.0080
   82        HC    1  MOL     H82    82   0.0600000    1.0080
   83        HC    1  MOL     H83    83   0.0600000    1.0080
   84        HC    1  MOL     H84    84   0.0600000    1.0080
   85        HC    1  MOL     H85    85   0.0600000    1.0080
   86        CT    1  MOL     C86    86  -0.1200000   12.0115
   87        CT    1  MOL     C87    87  -0.0600000   12.0115
   88        CT    1  MOL     C88    88  -0.1200000   12.0115
   89        CT    1  MOL     C89    89  -0.1800000   12.0115
   90        HC    1  MOL     H90    90   0.0600000    1.0080
   91        HC    1  MOL     H91    91   0.0600000    1.0080
   92        HC    1  MOL     H92    92   0.0600000    1.0080
   93        HC    1  MOL     H93    93   0.0600000    1.0080
   94        HC    1  MOL     H94    94   0.0600000    1.0080
   95        HC    1  MOL     H95    95   0.0600000    1.0080
   96        HC    1  MOL     H96    96   0.0600000    1.0080
   97        HC    1  MOL     H97    97   0.0600000    1.0080
   98        CT    1  MOL     C98    98  -0.1200000   12.0115
   99        CT    1  MOL     C99    99  -0.0600000   12.0115
  100        CT    1  MOL    C100   100  -0.1200000   12.0115
  101        CT    1  MOL    C101   101  -0.1800000   12.0115
  102        HC    1  MOL    H102   102   0.0600000    1.0080
  103        HC    1  MOL    H103   103   0.0600000    1.0080
  104        HC    1  MOL    H104   104   0.0600000    1.0080
  105        HC    1  MOL    H105   105   0.0600000    1.0080
  106        HC    1  MOL    H106   106   0.0600000    1.0080
  107        HC    1  MOL    H107   107   0.0600000    1.0080
  108        HC    1  MOL    H108   108   0.0600000    1.0080
  109        HC    1  MOL    H109   109   0.0600000    1.0080
  110        CT    1  MOL    C110   110  -0.1200000   12.0115
  111        CT    1  MOL    C111   111  -0.0600000   12.0115
  112        CT    1  MOL    C112   112  -0.1200000   12.0115
  113        CT    1  MOL    C113   113  -0.1800000   12.0115
  114        HC    1  MOL    H114   114   0.0600000    1.0080
  115        HC    1  MOL    H115   115   0.0600000    1.0080
  116        HC    1  MOL    H116   116   0.0600000    1.0080
  117        HC    1  MOL    H117   117   0.0600000    1.0080
  118        HC    1  MOL    H118   118   0.0600000    1.0080
  119        HC    1  MOL    H119   119   0.0600000    1.0080
  120        HC    1  MOL    H120   120   0.0600000    1.0080
  121        HC    1  MOL    H121   121   0.0600000    1.0080
  122        CT    1  MOL    C122   122  -0.1200000   12.0115
  123        CT    1  MOL    C123   123  -0.0600000   12.0115
  124        CT    1  MOL    C124   124  -0.1200000   12.0115
  125        CT    1  MOL    C125   125  -0.1800000   12.0115
  126        HC    1  MOL    H126   126   0.0600000    1.0080
  127        HC    1  MOL    H127   127   0.0600000    1.0080
  128        HC    1  MOL    H128   128   0.0600000    1.0080
  129        HC    1  MOL    H129   129   0.0600000    1.0080
  130        HC    1  MOL    H130   130   0.0600000    1.0080
  131        HC    1  MOL    H131   131   0.0600000    1.0080
  132        HC    1  MOL    H132   132   0.0600000    1.0080
  133        HC    1  MOL    H133   133   0.0600000    1.0080
  134        CT    1  MOL    C134   134  -0.1200000   12.0115
  135        CT    1  MOL    C135   135  -0.0600000   12.0115
  136        CT    1  MOL    C136   136  -0.1200000   12.0115
  137        CT    1  MOL    C137   137  -0.1800000   12.0115
  138        HC    1  MOL    H138   138   0.0600000    1.0080
  139        HC    1  MOL    H139   139   0.0600000    1.0080
  140        HC    1  MOL    H140   140   0.0600000    1.0080
  141        HC    1  MOL    H141   141   0.0600000    1.0080
  142        HC    1  MOL    H142   142   0.0600000    1.0080
  143        HC    1  MOL    H143   143   0.0600000    1.0080
  144        HC    1  MOL    H144   144   0.0600000    1.0080
  145        HC    1  MOL    H145   145   0.0600000    1.0080
  146        CT    1  MOL    C146   146  -0.1200000   12.0115
  147        CT    1  MOL    C147   147  -0.0600000   12.0115
  148        CT    1  MOL    C148   148  -0.1200000   12.0115
  149        CT    1  MOL    C149   149  -0.1800000   12.0115
  150        HC    1  MOL    H150   150   0.0600000    1.0080
  151        HC    1  MOL    H151   151   0.0600000    1.0080
  152        HC    1  MOL    H152   152   0.0600000    1.0080
  153        HC    1  MOL    H153   153   0.0600000    1.0080
  154        HC    1  MOL    H154   154   0.0600000    1.0080
  155        HC    1  MOL    H155   155   0.0600000    1.0080
  156        HC    1  MOL    H156   156   0.0600000    1.0080
  157        HC    1  MOL    H157   157   0.0600000    1.0080
  158        CT    1  MOL    C158   158  -0.1200000   12.0115
  159        CT    1  MOL    C159   159  -0.0600000   12.0115
  160        CT    1  MOL    C160   160  -0.1200000   12.0115
  161        CT    1  MOL    C161   161  -0.1800000   12.0115
  162        HC    1  MOL    H162   162   0.0600000    1.0080
  163        HC    1  MOL    H163   163   0.0600000    1.0080
  164        HC    1  MOL    H164   164   0.0600000    1.0080
  165        HC    1  MOL    H165   165   0.0600000    1.0080
  166        HC    1  MOL    H166   166   0.0600000    1.0080
  167        HC    1  MOL    H167   167   0.0600000    1.0080
  168        HC    1  MOL    H168   168   0.0600000    1.0080
  169        HC    1  MOL    H169   169   0.0600000    1.0080
  170        CT    1  MOL    C170   170  -0.1200000   12.0115
  171        CT    1  MOL    C171   171  -0.0600000   12.0115
  172        CT    1  MOL    C172   172  -0.1200000   12.0115
  173        CT    1  MOL    C173   173  -0.1800000   12.0115
  174        HC    1  MOL    H174   174   0.0600000    1.0080
  175        HC    1  MOL    H175   175   0.0600000    1.0080
  176        HC    1  MOL    H176   176   0.0600000    1.0080
  177        HC    1  MOL    H177   177   0.0600000    1.0080
  178        HC    1  MOL    H178   178   0.0600000    1.0080
  179        HC    1  MOL    H179   179   0.0600000    1.0080
  180        HC    1  MOL    H180   180   0.0600000    1.0080
  181        HC    1  MOL    H181   181   0.0600000    1.0080
  182        CT    1  MOL    C182   182  -0.1200000   12.0115
  183        CT    1  MOL    C183   183  -0.0600000   12.0115
  184        CT    1  MOL    C184   184  -0.1200000   12.0115
  185        CT    1  MOL    C185   185  -0.1800000   12.0115
  186        HC    1  MOL    H186   186   0.0600000    1.0080
  187        HC    1  MOL    H187   187   0.0600000    1.0080
  188        HC    1  MOL    H188   188   0.0600000    1.0080
  189        HC    1  MOL    H189   189   0.0600000    1.0080
  190        HC    1  MOL    H190   190   0.0600000    1.0080
  191        HC    1  MOL    H191   191   0.0600000    1.0080
  192        HC    1  MOL    H192   192   0.0600000    1.0080
  193        HC    1  MOL    H193   193   0.0600000    1.0080
  194        CT    1  MOL    C194   194  -0.1200000   12.0115
  195        CT    1  MOL    C195   195  -0.0600000   12.0115
  196        CT    1  MOL    C196   196  -0.1200000   12.0115
  197        CT    1  MOL    C197   197  -0.1800000   12.0115
  198        HC    1  MOL    H198   198   0.0600000    1.0080
  199        HC    1  MOL    H199   199   0.0600000    1.0080
  200        HC    1  MOL    H200   200   0.0600000    1.0080
  201        HC    1  MOL    H201   201   0.0600000    1.0080
  202        HC    1  MOL    H202   202   0.0600000    1.0080
  203        HC    1  MOL    H203   203   0.0600000    1.0080
  204        HC    1  MOL    H204   204   0.0600000    1.0080
  205        HC    1  MOL    H205   205   0.0600000    1.0080
  206        CT    1  MOL    C206   206  -0.1200000   12.0115
  207        CT    1  MOL    C207   207  -0.0600000   12.0115
  208        CT    1  MOL    C208   208  -0.1200000   12.0115
  209        CT    1  MOL    C209   209  -0.1800000   12.0115
  210        HC    1  MOL    H210   210   0.0600000    1.0080
  211        HC    1  MOL    H211   211   0.0600000    1.0080
  212        HC    1  MOL    H212   212   0.0600000    1.0080
  213        HC    1  MOL    H213   213   0.0600000    1.0080
  214        HC    1  MOL    H214   214   0.0600000    1.0080
  215        HC    1  MOL    H215   215   0.0600000    1.0080
  216        HC    1  MOL    H216   216   0.0600000    1.0080
  217        HC    1  MOL    H217   217   0.0600000    1.0080
  218        CT    1  MOL    C218   218  -0.1200000   12.0115
  219        CT    1  MOL    C219   219  -0.0600000   12.0115
  220        CT    1  MOL    C220   220  -0.1200000   12.0115
  221        CT    1  MOL    C221   221  -0.1800000   12.0115
  222        HC    1  MOL    H222   222   0.0600000    1.0080
  223        HC    1  MOL    H223   223   0.0600000    1.0080
  224        HC    1  MOL    H224   224   0.0600000    1.0080
  225        HC    1  MOL    H225   225   0.0600000    1.0080
  226        HC    1  MOL    H226   226   0.0600000    1.0080
  227        HC    1  MOL    H227   227   0.0600000    1.0080
  228        HC    1  MOL    H228   228   0.0600000    1.0080
  229        HC    1  MOL    H229   229   0.0600000    1.0080
  230        CT    1  MOL    C230   230  -0.1200000   12.0115
  231        CT    1  MOL    C231   231  -0.1200000   12.0115
  232        CT    1  MOL    C232   232  -0.1200000   12.0115
  233        CT    1  MOL    C233   233  -0.1800000   12.0115
  234        HC    1  MOL    H234   234   0.0600000    1.0080
  235        HC    1  MOL    H235   235   0.0600000    1.0080
  236        HC    1  MOL    H236   236   0.0600000    1.0080
  237        HC    1  MOL    H237   237   0.0600000    1.0080
  238        HC    1  MOL    H238   238   0.0600000    1.0080
  239        HC    1  MOL    H239   239   0.0600000    1.0080
  240        HC    1  MOL    H240   240   0.0600000    1.0080
  241        HC    1  MOL    H241   241   0.0600000    1.0080
  242        HC    1  MOL    H242   242   0.0600000    1.0080

[ bonds ]
      1      2   1      0.1529 224262.4000
      1      5   1      0.1090 284512.0000
      1      6   1      0.1090 284512.0000
      1     13   1      0.1090 284512.0000
      2      3   1      0.1529 224262.4000
      2      7   1      0.1090 284512.0000
      2     14   1      0.1529 224262.4000
      3      4   1      0.1529 224262.4000
      3      8   1      0.1090 284512.0000
      3      9   1      0.1090 284512.0000
      4     10   1      0.1090 284512.0000
      4     11   1      0.1090 284512.0000
      4     12   1      0.1090 284512.0000
     14     15   1      0.1529 224262.4000
     14     18   1      0.1090 284512.0000
     14     19   1      0.1090 284512.0000
     15     16   1      0.1529 224262.4000
     15     20   1      0.1090 284512.0000
     15     26   1      0.1529 224262.4000
     16     17   1      0.1529 224262.4000
     16     21   1      0.1090 284512.0000
     16     22   1      0.1090 284512.0000
     17     23   1      0.1090 284512.0000
     17     24   1      0.1090 284512.0000
     17     25   1      0.1090 284512.0000
     26     27   1      0.1529 224262.4000
     26     30   1      0.1090 284512.0000
     26     31   1      0.1090 284512.0000
     27     28   1      0.1529 224262.4000
     27     32   1      0.1090 284512.0000
     27     38   1      0.1529 224262.4000
     28     29   1      0.1529 224262.4000
     28     33   1      0.1090 284512.0000
     28     34   1      0.1090 284512.0000
     29     35   1      0.1090 284512.0000
     29     36   1      0.1090 284512.0000
     29     37   1      0.1090 284512.0000
     38     39   1      0.1529 224262.4000
     38     42   1      0.1090 284512.0000
     38     43   1      0.1090 284512.0000
     39     40   1      0.1529 224262.4000
     39     44   1      0.1090 284512.0000
     39     50   1      0.1529 224262.4000
     40     41   1      0.1529 224262.4000
     40     45   1      0.1090 284512.0000
     40     46   1      0.1090 284512.0000
     41     47   1      0.1090 284512.0000
     41     48   1      0.1090 284512.0000
     41     49   1      0.1090 284512.0000
     50     51   1      0.1529 224262.4000
     50     54   1      0.1090 284512.0000
     50     55   1      0.1090 284512.0000
     51     52   1      0.1529 224262.4000
     51     56   1      0.1090 284512.0000
     51     62   1      0.1529 224262.4000
     52     53   1      0.1529 224262.4000
     52     57   1      0.1090 284512.0000
     52     58   1      0.1090 284512.0000
     53     59   1      0.1090 284512.0000
     53     60   1      0.1090 284512.0000
     53     61   1      0.1090 284512.0000
     62     63   1      0.1529 224262.4000
     62     66   1      0.1090 284512.0000
     62     67   1      0.1090 284512.0000
     63     64   1      0.1529 224262.4000
     63     68   1      0.1090 284512.0000
     63     74   1      0.1529 224262.4000
     64     65   1      0.1529 224262.4000
     64     69   1      0.1090 284512.0000
     64     70   1      0.1090 284512.0000
     65     71   1      0.1090 284512.0000
     65     72   1      0.1090 284512.0000
     65     73   1      0.1090 284512.0000
     74     75   1      0.1529 224262.4000
     74     78   1      0.1090 284512.0000
     74     79   1      0.1090 284512.0000
     75     76   1      0.1529 224262.4000
     75     80   1      0.1090 284512.0000
     75     86   1      0.1529 224262.4000
     76     77   1      0.1529 224262.4000
     76     81   1      0.1090 284512.0000
     76     82   1      0.1090 284512.0000
     77     83   1      0.1090 284512.0000
     77     84   1      0.1090 284512.0000
     77     85   1      0.1090 284512.0000
     86     87   1      0.1529 224262.4000
     86     90   1      0.1090 284512.0000
     86     91   1      0.1090 284512.0000
     87     88   1      0.1529 224262.4000
     87     92   1      0.1090 284512.0000
     87     98   1      0.1529 224262.4000
     88     89   1      0.1529 224262.4000
     88     93   1      0.1090 284512.0000
     88     94   1      0.1090 284512.0000
     89     95   1      0.1090 284512.0000
     89     96   1      0.1090 284512.0000
     89     97   1      0.1090 284512.0000
     98     99   1      0.1529 224262.4000
     98    102   1      0.1090 284512.0000
     98    103   1      0.1090 284512.0000
     99    100   1      0.1529 224262.4000
     99    104   1      0.1090 284512.0000
     99    110   1      0.1529 224262.4000
    100    101   1      0.1529 224262.4000
    100    105   1      0.1090 284512.0000
    100    106   1      0.1090 284512.0000
    101    107   1      0.1090 284512.0000
    101    108   1      0.1090 284512.0000
    101    109   1      0.1090 284512.0000
    110    111   1      0.1529 224262.4000
    110    114   1      0.1090 284512.0000
    110    115   1      0.1090 284512.0000
    111    112   1      0.1529 224262.4000
    111    116   1      0.1090 284512.0000
    111    122   1      0.1529 224262.4000
    112    113   1      0.1529 224262.4000
    112    117   1      0.1090 284512.0000
    112    118   1      0.1090 284512.0000
    113    119   1      0.1090 284512.0000
    113    120   1      0.1090 284512.0000
    113    121   1      0.1090 284512.0000
    122    123   1      0.1529 224262.4000
    122    126   1      0.1090 284512.0000
    122    127   1      0.1090 284512.0000
    123    124   1      0.1529 224262.4000
    123    128   1      0.1090 284512.0000
    123    134   1      0.1529 224262.4000
    124    125   1      0.1529 224262.4000
    124    129   1      0.1090 284512.0000
    124    130   1      0.1090 284512.0000
    125    131   1      0.1090 284512.0000
    125    132   1      0.1090 284512.0000
    125    133   1      0.1090 284512.0000
    134    135   1      0.1529 224262.4000
    134    138   1      0.1090 284512.0000
    134    139   1      0.1090 284512.0000
    135    136   1      0.1529 224262.4000
    135    140   1      0.1090 284512.0000
    135    146   1      0.1529 224262.4000
    136    137   1      0.1529 224262.4000
    136    141   1      0.1090 284512.0000
    136    142   1      0.1090 284512.0000
    137    143   1      0.1090 284512.0000
    137    144   1      0.1090 284512.0000
    137    145   1      0.1090 284512.0000
    146    147   1      0.1529 224262.4000
    146    150   1      0.1090 284512.0000
    146    151   1      0.1090 284512.0000
    147    148   1      0.1529 224262.4000
    147    152   1      0.1090 284512.0000
    147    158   1      0.1529 224262.4000
    148    149   1      0.1529 224262.4000
    148    153   1      0.1090 284512.0000
    148    154   1      0.1090 284512.0000
    149    155   1      0.1090 284512.0000
    149    156   1      0.1090 284512.0000
    149    157   1      0.1090 284512.0000
    158    159   1      0.1529 224262.4000
    158    162   1      0.1090 284512.0000
    158    163   1      0.1090 284512.0000
    159    160   1      0.1529 224262.4000
    159    164   1      0.1090 284512.0000
    159    170   1      0.1529 224262.4000
    160    161   1      0.1529 224262.4000
    160    165   1      0.1090 284512.0000
    160    166   1      0.1090 284512.0000
    161    167   1      0.1090 284512.0000
    161    168   1      0.1090 284512.0000
    161    169   1      0.1090 284512.0000
    170    171   1      0.1529 224262.4000
    170    174   1      0.1090 284512.0000
    170    175   1      0.1090 284512.0000
    171    172   1      0.1529 224262.4000
    171    176   1      0.1090 284512.0000
    171    182   1      0.1529 224262.4000
    172    173   1      0.1529 224262.4000
    172    177   1      0.1090 284512.0000
    172    178   1      0.1090 284512.0000
    173    179   1      0.1090 284512.0000
    173    180   1      0.1090 284512.0000
    173    181   1      0.1090 284512.0000
    182    183   1      0.1529 224262.4000
    182    186   1      0.1090 284512.0000
    182    187   1      0.1090 284512.0000
    183    184   1      0.1529 224262.4000
    183    188   1      0.1090 284512.0000
    183    194   1      0.1529 224262.4000
    184    185   1      0.1529 224262.4000
    184    189   1      0.1090 284512.0000
    184    190   1      0.1090 284512.0000
    185    191   1      0.1090 284512.0000
    185    192   1      0.1090 284512.0000
    185    193   1      0.1090 284512.0000
    194    195   1      0.1529 224262.4000
    194    198   1      0.1090 284512.0000
    194    199   1      0.1090 284512.0000
    195    196   1      0.1529 224262.4000
    195    200   1      0.1090 284512.0000
    195    206   1      0.1529 224262.4000
    196    197   1      0.1529 224262.4000
    196    201   1      0.1090 284512.0000
    196    202   1      0.1090 284512.0000
    197    203   1      0.1090 284512.0000
    197    204   1      0.1090 284512.0000
    197    205   1      0.1090 284512.0000
    206    207   1      0.1529 224262.4000
    206    210   1      0.1090 284512.0000
    206    211   1      0.1090 284512.0000
    207    208   1      0.1529 224262.4000
    207    212   1      0.1090 284512.0000
    207    218   1      0.1529 224262.4000
    208    209   1      0.1529 224262.4000
    208    213   1      0.1090 284512.0000
    208    214   1      0.1090 284512.0000
    209    215   1      0.1090 284512.0000
    209    216   1      0.1090 284512.0000
    209    217   1      0.1090 284512.0000
    218    219   1      0.1529 224262.4000
    218    222   1      0.1090 284512.0000
    218    223   1      0.1090 284512.0000
    219    220   1      0.1529 224262.4000
    219    224   1      0.1090 284512.0000
    219    230   1      0.1529 224262.4000
    220    221   1      0.1529 224262.4000
    220    225   1      0.1090 284512.0000
    220    226   1      0.1090 284512.0000
    221    227   1      0.1090 284512.0000
    221    228   1      0.1090 284512.0000
    221    229   1      0.1090 284512.0000
    230    231   1      0.1529 224262.4000
    230    234   1      0.1090 284512.0000
    230    235   1      0.1090 284512.0000
    231    232   1      0.1529 224262.4000
    231    236   1      0.1090 284512.0000
    231    242   1      0.1090 284512.0000
    232    233   1      0.1529 224262.4000
    232    237   1      0.1090 284512.0000
    232    238   1      0.1090 284512.0000
    233    239   1      0.1090 284512.0000
    233    240   1      0.1090 284512.0000
    233    241   1      0.1090 284512.0000

[ pairs ]
; ai   aj   funct   fudge_QQ  charge_i   charge_j   c6    c12
      5      3   2   0.50000     0.0600000   -0.1200000   2.494471e-04  1.671101e-07
      5      7   2   0.50000     0.0600000    0.0600000   6.128906e-05  1.496315e-08
      5     14   2   0.50000     0.0600000   -0.1200000   2.494471e-04  1.671101e-07
      6      3   2   0.50000     0.0600000   -0.1200000   2.494471e-04  1.671101e-07
      6      7   2   0.50000     0.0600000    0.0600000   6.128906e-05  1.496315e-08
      6     14   2   0.50000     0.0600000   -0.1200000   2.494471e-04  1.671101e-07
     13      3   2   0.50000     0.0600000   -0.1200000   2.494471e-04  1.671101e-07
     13      7   2   0.50000     0.0600000    0.0600000   6.128906e-05  1.496315e-08
     13     14   2   0.50000     0.0600000   -0.1200000   2.494471e-04  1.671101e-07
      1      4   2   0.50000    -0.1800000   -0.1800000   1.015252e-03  1.866303e-06
      1      8   2   0.50000    -0.1800000    0.0600000   2.494471e-04  1.671101e-07
      1      9   2   0.50000    -0.1800000    0.0600000   2.494471e-04  1.671101e-07
      7      4   2   0.50000     0.0600000   -0.1800000   2.494471e-04  1.671101e-07
      7      8   2   0.50000     0.0600000    0.0600000   6.128906e-05  1.496315e-08
      7      9   2   0.50000     0.0600000    0.0600000   6.128906e-05  1.496315e-08
     14      4   2   0.50000    -0.1200000   -0.1800000   1.015252e-03  1.866303e-06
     14      8   2   0.50000    -0.1200000    0.0600000   2.494471e-04  1.671101e-07
     14      9   2   0.50000    -0.1200000    0.0600000   2.494471e-04  1.671101e-07
      1     15   2   0.50000    -0.1800000   -0.0600000   1.015252e-03  1.866303e-06
      1     18   2   0.50000    -0.1800000    0.0600000   2.494471e-04  1.671101e-07
      1     19   2   0.50000    -0.1800000    0.0600000   2.494471e-04  1.671101e-07
      3     15   2   0.50000    -0.1200000   -0.0600000   1.015252e-03  1.866303e-06
      3     18   2   0.50000    -0.1200000    0.0600000   2.494471e-04  1.671101e-07
      3     19   2   0.50000    -0.1200000    0.0600000   2.494471e-04  1.671101e-07
      7     15   2   0.50000     0.0600000   -0.0600000   2.494471e-04  1.671101e-07
      7     18   2   0.50000     0.0600000    0.0600000   6.128906e-05  1.496315e-08
      7     19   2   0.50000     0.0600000    0.0600000   6.128906e-05  1.496315e-08
      2     10   2   0.50000    -0.0600000    0.0600000   2.494471e-04  1.671101e-07
      2     11   2   0.50000    -0.0600000    0.0600000   2.494471e-04  1.671101e-07
      2     12   2   0.50000    -0.0600000    0.0600000   2.494471e-04  1.671101e-07
      8     10   2   0.50000     0.0600000    0.0600000   6.128906e-05  1.496315e-08
      8     11   2   0.50000     0.0600000    0.0600000   6.128906e-05  1.496315e-08
      8     12   2   0.50000     0.0600000    0.0600000   6.128906e-05  1.496315e-08
      9     10   2   0.50000     0.0600000    0.0600000   6.128906e-05  1.496315e-08
      9     11   2   0.50000     0.0600000    0.0600000   6.128906e-05  1.496315e-08
      9     12   2   0.50000     0.0600000    0.0600000   6.128906e-05  1.496315e-08
      2     16   2   0.50000    -0.0600000   -0.1200000   1.015252e-03  1.866303e-06
      2     20   2   0.50000    -0.0600000    0.0600000   2.494471e-04  1.671101e-07
      2     26   2   0.50000    -0.0600000   -0.1200000   1.015252e-03  1.866303e-06
     18     16   2   0.50000     0.0600000   -0.1200000   2.494471e-04  1.671101e-07
     18     20   2   0.50000     0.0600000    0.0600000   6.128906e-05  1.496315e-08
     18     26   2   0.50000     0.0600000   -0.1200000   2.494471e-04  1.671101e-07
     19     16   2   0.50000     0.0600000   -0.1200000   2.494471e-04  1.671101e-07
     19     20   2   0.50000     0.0600000    0.0600000   6.128906e-05  1.496315e-08
     19     26   2   0.50000     0.0600000   -0.1200000   2.494471e-04  1.671101e-07
     14     17   2   0.50000    -0.1200000   -0.1800000   1.015252e-03  1.866303e-06
     14     21   2   0.50000    -0.1200000    0.0600000   2.494471e-04  1.671101e-07
     14     22   2   0.50000    -0.1200000    0.0600000   2.494471e-04  1.671101e-07
     20     17   2   0.50000     0.0600000   -0.1800000   2.494471e-04  1.671101e-07
     20     21   2   0.50000     0.0600000    0.0600000   6.128906e-05  1.496315e-08
     20     22   2   0.50000     0.0600000    0.0600000   6.128906e-05  1.496315e-08
     26     17   2   0.50000    -0.1200000   -0.1800000   1.015252e-03  1.866303e-06
     26     21   2   0.50000    -0.1200000    0.0600000   2.494471e-04  1.671101e-07
     26     22   2   0.50000    -0.1200000    0.0600000   2.494471e-04  1.671101e-07
     14     27   2   0.50000    -0.1200000   -0.0600000   1.015252e-03  1.866303e-06
     14     30   2   0.50000    -0.1200000    0.0600000   2.494471e-04  1.671101e-07
     14     31   2   0.50000    -0.1200000    0.0600000   2.494471e-04  1.671101e-07
     16     27   2   0.50000    -0.1200000   -0.0600000   1.015252e-03  1.866303e-06
     16     30   2   0.50000    -0.1200000    0.0600000   2.494471e-04  1.671101e-07
     16     31   2   0.50000    -0.1200000    0.0600000   2.494471e-04  1.671101e-07
     20     27   2   0.50000     0.0600000   -0.0600000   2.494471e-04  1.671101e-07
     20     30   2   0.50000     0.0600000    0.0600000   6.128906e-05  1.496315e-08
     20     31   2   0.50000     0.0600000    0.0600000   6.128906e-05  1.496315e-08
     15     23   2   0.50000    -0.0600000    0.0600000   2.494471e-04  1.671101e-07
     15     24   2   0.50000    -0.0600000    0.0600000   2.494471e-04  1.671101e-07
     15     25   2   0.50000    -0.0600000    0.0600000   2.494471e-04  1.671101e-07
     21     23   2   0.50000     0.0600000    0.0600000   6.128906e-05  1.496315e-08
     21     24   2   0.50000     0.0600000    0.0600000   6.128906e-05  1.496315e-08
     21     25   2   0.50000     0.0600000    0.0600000   6.128906e-05  1.496315e-08
     22     23   2   0.50000     0.0600000    0.0600000   6.128906e-05  1.496315e-08
     22     24   2   0.50000     0.0600000    0.0600000   6.128906e-05  1.496315e-08
     22     25   2   0.50000     0.0600000    0.0600000   6.128906e-05  1.496315e-08
     15     28   2   0.50000    -0.0600000   -0.1200000   1.015252e-03  1.866303e-06
     15     32   2   0.50000    -0.0600000    0.0600000   2.494471e-04  1.671101e-07
     15     38   2   0.50000    -0.0600000   -0.1200000   1.015252e-03  1.866303e-06
     30     28   2   0.50000     0.0600000   -0.1200000   2.494471e-04  1.671101e-07
     30     32   2   0.50000     0.0600000    0.0600000   6.128906e-05  1.496315e-08
     30     38   2   0.50000     0.0600000   -0.1200000   2.494471e-04  1.671101e-07
     31     28   2   0.50000     0.0600000   -0.1200000   2.494471e-04  1.671101e-07
     31     32   2   0.50000     0.0600000    0.0600000   6.128906e-05  1.496315e-08
     31     38   2   0.50000     0.0600000   -0.1200000   2.494471e-04  1.671101e-07
     26     29   2   0.50000    -0.1200000   -0.1800000   1.015252e-03  1.866303e-06
     26     33   2   0.50000    -0.1200000    0.0600000   2.494471e-04  1.671101e-07
     26     34   2   0.50000    -0.1200000    0.0600000   2.494471e-04  1.671101e-07
     32     29   2   0.50000     0.0600000   -0.1800000   2.494471e-04  1.671101e-07
     32     33   2   0.50000     0.0600000    0.0600000   6.128906e-05  1.496315e-08
     32     34   2   0.50000     0.0600000    0.0600000   6.128906e-05  1.496315e-08
     38     29   2   0.50000    -0.1200000   -0.1800000   1.015252e-03  1.866303e-06
     38     33   2   0.50000    -0.1200000    0.0600000   2.494471e-04  1.671101e-07
     38     34   2   0.50000    -0.1200000    0.0600000   2.494471e-04  1.671101e-07
     26     39   2   0.50000    -0.1200000   -0.0600000   1.015252e-03  1.866303e-06
     26     42   2   0.50000    -0.1200000    0.0600000   2.494471e-04  1.671101e-07
     26     43   2   0.50000    -0.1200000    0.0600000   2.494471e-04  1.671101e-07
     28     39   2   0.50000    -0.1200000   -0.0600000   1.015252e-03  1.866303e-06
     28     42   2   0.50000    -0.1200000    0.0600000   2.494471e-04  1.671101e-07
     28     43   2   0.50000    -0.1200000    0.0600000   2.494471e-04  1.671101e-07
     32     39   2   0.50000     0.0600000   -0.0600000   2.494471e-04  1.671101e-07
     32     42   2   0.50000     0.0600000    0.0600000   6.128906e-05  1.496315e-08
     32     43   2   0.50000     0.0600000    0.0600000   6.128906e-05  1.496315e-08
     27     35   2   0.50000    -0.0600000    0.0600000   2.494471e-04  1.671101e-07
     27     36   2   0.50000    -0.0600000    0.0600000   2.494471e-04  1.671101e-07
     27     37   2   0.50000    -0.0600000    0.0600000   2.494471e-04  1.671101e-07
     33     35   2   0.50000     0.0600000    0.0600000   6.128906e-05  1.496315e-08
     33     36   2   0.50000     0.0600000    0.0600000   6.128906e-05  1.496315e-08
     33     37   2   0.50000     0.0600000    0.0600000   6.128906e-05  1.496315e-08
     34     35   2   0.50000     0.0600000    0.0600000   6.128906e-05  1.496315e-08
     34     36   2   0.50000     0.0600000    0.0600000   6.128906e-05  1.496315e-08
     34     37   2   0.50000     0.0600000    0.0600000   6.128906e-05  1.496315e-08
     27     40   2   0.50000    -0.0600000   -0.1200000   1.015252e-03  1.866303e-06
     27     44   2   0.50000    -0.0600000    0.0600000   2.494471e-04  1.671101e-07
     27     50   2   0.50000    -0.0600000   -0.1200000   1.015252e-03  1.866303e-06
     42     40   2   0.50000     0.0600000   -0.1200000   2.494471e-04  1.671101e-07
     42     44   2   0.50000     0.0600000    0.0600000   6.128906e-05  1.496315e-08
     42     50   2   0.50000     0.0600000   -0.1200000   2.494471e-04  1.671101e-07
     43     40   2   0.50000     0.0600000   -0.1200000   2.494471e-04  1.671101e-07
     43     44   2   0.50000     0.0600000    0.0600000   6.128906e-05  1.496315e-08
     43     50   2   0.50000     0.0600000   -0.1200000   2.494471e-04  1.671101e-07
     38     41   2   0.50000    -0.1200000   -0.1800000   1.015252e-03  1.866303e-06
     38     45   2   0.50000    -0.1200000    0.0600000   2.494471e-04  1.671101e-07
     38     46   2   0.50000    -0.1200000    0.0600000   2.494471e-04  1.671101e-07
     44     41   2   0.50000     0.0600000   -0.1800000   2.494471e-04  1.671101e-07
     44     45   2   0.50000     0.0600000    0.0600000   6.128906e-05  1.496315e-08
     44     46   2   0.50000     0.0600000    0.0600000   6.128906e-05  1.496315e-08
     50     41   2   0.50000    -0.1200000   -0.1800000   1.015252e-03  1.866303e-06
     50     45   2   0.50000    -0.1200000    0.0600000   2.494471e-04  1.671101e-07
     50     46   2   0.50000    -0.1200000    0.0600000   2.494471e-04  1.671101e-07
     38     51   2   0.50000    -0.1200000   -0.0600000   1.015252e-03  1.866303e-06
     38     54   2   0.50000    -0.1200000    0.0600000   2.494471e-04  1.671101e-07
     38     55   2   0.50000    -0.1200000    0.0600000   2.494471e-04  1.671101e-07
     40     51   2   0.50000    -0.1200000   -0.0600000   1.015252e-03  1.866303e-06
     40     54   2   0.50000    -0.1200000    0.0600000   2.494471e-04  1.671101e-07
     40     55   2   0.50000    -0.1200000    0.0600000   2.494471e-04  1.671101e-07
     44     51   2   0.50000     0.0600000   -0.0600000   2.494471e-04  1.671101e-07
     44     54   2   0.50000     0.0600000    0.0600000   6.128906e-05  1.496315e-08
     44     55   2   0.50000     0.0600000    0.0600000   6.128906e-05  1.496315e-08
     39     47   2   0.50000    -0.0600000    0.0600000   2.494471e-04  1.671101e-07
     39     48   2   0.50000    -0.0600000    0.0600000   2.494471e-04  1.671101e-07
     39     49   2   0.50000    -0.0600000    0.0600000   2.494471e-04  1.671101e-07
     45     47   2   0.50000     0.0600000    0.0600000   6.128906e-05  1.496315e-08
     45     48   2   0.50000     0.0600000    0.0600000   6.128906e-05  1.496315e-08
     45     49   2   0.50000     0.0600000    0.0600000   6.128906e-05  1.496315e-08
     46     47   2   0.50000     0.0600000    0.0600000   6.128906e-05  1.496315e-08
     46     48   2   0.50000     0.0600000    0.0600000   6.128906e-05  1.496315e-08
     46     49   2   0.50000     0.0600000    0.0600000   6.128906e-05  1.496315e-08
     39     52   2   0.50000    -0.0600000   -0.1200000   1.015252e-03  1.866303e-06
     39     56   2   0.50000    -0.0600000    0.0600000   2.494471e-04  1.671101e-07
     39     62   2   0.50000    -0.0600000   -0.1200000   1.015252e-03  1.866303e-06
     54     52   2   0.50000     0.0600000   -0.1200000   2.494471e-04  1.671101e-07
     54     56   2   0.50000     0.0600000    0.0600000   6.128906e-05  1.496315e-08
     54     62   2   0.50000     0.0600000   -0.1200000   2.494471e-04  1.671101e-07
     55     52   2   0.50000     0.0600000   -0.1200000   2.494471e-04  1.671101e-07
     55     56   2   0.50000     0.0600000    0.0600000   6.128906e-05  1.496315e-08
     55     62   2   0.50000     0.0600000   -0.1200000   2.494471e-04  1.671101e-07
     50     53   2   0.50000    -0.1200000   -0.1800000   1.015252e-03  1.866303e-06
     50     57   2   0.50000    -0.1200000    0.0600000   2.494471e-04  1.671101e-07
     50     58   2   0.50000    -0.1200000    0.0600000   2.494471e-04  1.671101e-07
     56     53   2   0.50000     0.0600000   -0.1800000   2.494471e-04  1.671101e-07
     56     57   2   0.50000     0.0600000    0.0600000   6.128906e-05  1.496315e-08
     56     58   2   0.50000     0.0600000    0.0600000   6.128906e-05  1.496315e-08
     62     53   2   0.50000    -0.1200000   -0.1800000   1.015252e-03  1.866303e-06
     62     57   2   0.50000    -0.1200000    0.0600000   2.494471e-04  1.671101e-07
     62     58   2   0.50000    -0.1200000    0.0600000   2.494471e-04  1.671101e-07
     50     63   2   0.50000    -0.1200000   -0.0600000   1.015252e-03  1.866303e-06
     50     66   2   0.50000    -0.1200000    0.0600000   2.494471e-04  1.671101e-07
     50     67   2   0.50000    -0.1200000    0.0600000   2.494471e-04  1.671101e-07
     52     63   2   0.50000    -0.1200000   -0.0600000   1.015252e-03  1.866303e-06
     52     66   2   0.50000    -0.1200000    0.0600000   2.494471e-04  1.671101e-07
     52     67   2   0.50000    -0.1200000    0.0600000   2.494471e-04  1.671101e-07
     56     63   2   0.50000     0.0600000   -0.0600000   2.494471e-04  1.671101e-07
     56     66   2   0.50000     0.0600000    0.0600000   6.128906e-05  1.496315e-08
     56     67   2   0.50000     0.0600000    0.0600000   6.128906e-05  1.496315e-08
     51     59   2   0.50000    -0.0600000    0.0600000   2.494471e-04  1.671101e-07
     51     60   2   0.50000    -0.0600000    0.0600000   2.494471e-04  1.671101e-07
     51     61   2   0.50000    -0.0600000    0.0600000   2.494471e-04  1.671101e-07
     57     59   2   0.50000     0.0600000    0.0600000   6.128906e-05  1.496315e-08
     57     60   2   0.50000     0.0600000    0.0600000   6.128906e-05  1.496315e-08
     57     61   2   0.50000     0.0600000    0.0600000   6.128906e-05  1.496315e-08
     58     59   2   0.50000     0.0600000    0.0600000   6.128906e-05  1.496315e-08
     58     60   2   0.50000     0.0600000    0.0600000   6.128906e-05  1.496315e-08
     58     61   2   0.50000     0.0600000    0.0600000   6.128906e-05  1.496315e-08
     51     64   2   0.50000    -0.0600000   -0.1200000   1.015252e-03  1.866303e-06
     51     68   2   0.50000    -0.0600000    0.0600000   2.494471e-04  1.671101e-07
     51     74   2   0.50000    -0.0600000   -0.1200000   1.015252e-03  1.866303e-06
     66     64   2   0.50000     0.0600000   -0.1200000   2.494471e-04  1.671101e-07
     66     68   2   0.50000     0.0600000    0.0600000   6.128906e-05  1.496315e-08
     66     74   2   0.50000     0.0600000   -0.1200000   2.494471e-04  1.671101e-07
     67     64   2   0.50000     0.0600000   -0.1200000   2.494471e-04  1.671101e-07
     67     68   2   0.50000     0.0600000    0.0600000   6.128906e-05  1.496315e-08
     67     74   2   0.50000     0.0600000   -0.1200000   2.494471e-04  1.671101e-07
     62     65   2   0.50000    -0.1200000   -0.1800000   1.015252e-03  1.866303e-06
     62     69   2   0.50000    -0.1200000    0.0600000   2.494471e-04  1.671101e-07
     62     70   2   0.50000    -0.1200000    0.0600000   2.494471e-04  1.671101e-07
     68     65   2   0.50000     0.0600000   -0.1800000   2.494471e-04  1.671101e-07
     68     69   2   0.50000     0.0600000    0.0600000   6.128906e-05  1.496315e-08
     68     70   2   0.50000     0.0600000    0.0600000   6.128906e-05  1.496315e-08
     74     65   2   0.50000    -0.1200000   -0.1800000   1.015252e-03  1.866303e-06
     74     69   2   0.50000    -0.1200000    0.0600000   2.494471e-04  1.671101e-07
     74     70   2   0.50000    -0.1200000    0.0600000   2.494471e-04  1.671101e-07
     62     75   2   0.50000    -0.1200000   -0.0600000   1.015252e-03  1.866303e-06
     62     78   2   0.50000    -0.1200000    0.0600000   2.494471e-04  1.671101e-07
     62     79   2   0.50000    -0.1200000    0.0600000   2.494471e-04  1.671101e-07
     64     75   2   0.50000    -0.1200000   -0.0600000   1.015252e-03  1.866303e-06
     64     78   2   0.50000    -0.1200000    0.0600000   2.494471e-04  1.671101e-07
     64     79   2   0.50000    -0.1200000    0.0600000   2.494471e-04  1.671101e-07
     68     75   2   0.50000     0.0600000   -0.0600000   2.494471e-04  1.671101e-07
     68     78   2   0.50000     0.0600000    0.0600000   6.128906e-05  1.496315e-08
     68     79   2   0.50000     0.0600000    0.0600000   6.128906e-05  1.496315e-08
     63     71   2   0.50000    -0.0600000    0.0600000   2.494471e-04  1.671101e-07
     63     72   2   0.50000    -0.0600000    0.0600000   2.494471e-04  1.671101e-07
     63     73   2   0.50000    -0.0600000    0.0600000   2.494471e-04  1.671101e-07
     69     71   2   0.50000     0.0600000    0.0600000   6.128906e-05  1.496315e-08
     69     72   2   0.50000     0.0600000    0.0600000   6.128906e-05  1.496315e-08
     69     73   2   0.50000     0.0600000    0.0600000   6.128906e-05  1.496315e-08
     70     71   2   0.50000     0.0600000    0.0600000   6.128906e-05  1.496315e-08
     70     72   2   0.50000     0.0600000    0.0600000   6.128906e-05  1.496315e-08
     70     73   2   0.50000     0.0600000    0.0600000   6.128906e-05  1.496315e-08
     63     76   2   0.50000    -0.0600000   -0.1200000   1.015252e-03  1.866303e-06
     63     80   2   0.50000    -0.0600000    0.0600000   2.494471e-04  1.671101e-07
     63     86   2   0.50000    -0.0600000   -0.1200000   1.015252e-03  1.866303e-06
     78     76   2   0.50000     0.0600000   -0.1200000   2.494471e-04  1.671101e-07
     78     80   2   0.50000     0.0600000    0.0600000   6.128906e-05  1.496315e-08
     78     86   2   0.50000     0.0600000   -0.1200000   2.494471e-04  1.671101e-07
     79     76   2   0.50000     0.0600000   -0.1200000   2.494471e-04  1.671101e-07
     79     80   2   0.50000     0.0600000    0.0600000   6.128906e-05  1.496315e-08
     79     86   2   0.50000     0.0600000   -0.1200000   2.494471e-04  1.671101e-07
     74     77   2   0.50000    -0.1200000   -0.1800000   1.015252e-03  1.866303e-06
     74     81   2   0.50000    -0.1200000    0.0600000   2.494471e-04  1.671101e-07
     74     82   2   0.50000    -0.1200000    0.0600000   2.494471e-04  1.671101e-07
     80     77   2   0.50000     0.0600000   -0.1800000   2.494471e-04  1.671101e-07
     80     81   2   0.50000     0.0600000    0.0600000   6.128906e-05  1.496315e-08
     80     82   2   0.50000     0.0600000    0.0600000   6.128906e-05  1.496315e-08
     86     77   2   0.50000    -0.1200000   -0.1800000   1.015252e-03  1.866303e-06
     86     81   2   0.50000    -0.1200000    0.0600000   2.494471e-04  1.671101e-07
     86     82   2   0.50000    -0.1200000    0.0600000   2.494471e-04  1.671101e-07
     74     87   2   0.50000    -0.1200000   -0.0600000   1.015252e-03  1.866303e-06
     74     90   2   0.50000    -0.1200000    0.0600000   2.494471e-04  1.671101e-07
     74     91   2   0.50000    -0.1200000    0.0600000   2.494471e-04  1.671101e-07
     76     87   2   0.50000    -0.1200000   -0.0600000   1.015252e-03  1.866303e-06
     76     90   2   0.50000    -0.1200000    0.0600000   2.494471e-04  1.671101e-07
     76     91   2   0.50000    -0.1200000    0.0600000   2.494471e-04  1.671101e-07
     80     87   2   0.50000     0.0600000   -0.0600000   2.494471e-04  1.671101e-07
     80     90   2   0.50000     0.0600000    0.0600000   6.128906e-05  1.496315e-08
     80     91   2   0.50000     0.0600000    0.0600000   6.128906e-05  1.496315e-08
     75     83   2   0.50000    -0.0600000    0.0600000   2.494471e-04  1.671101e-07
     75     84   2   0.50000    -0.0600000    0.0600000   2.494471e-04  1.671101e-07
     75     85   2   0.50000    -0.0600000    0.0600000   2.494471e-04  1.671101e-07
     81     83   2   0.50000     0.0600000    0.0600000   6.128906e-05  1.496315e-08
     81     84   2   0.50000     0.0600000    0.0600000   6.128906e-05  1.496315e-08
     81     85   2   0.50000     0.0600000    0.0600000   6.128906e-05  1.496315e-08
     82     83   2   0.50000     0.0600000    0.0600000   6.128906e-05  1.496315e-08
     82     84   2   0.50000     0.0600000    0.0600000   6.128906e-05  1.496315e-08
     82     85   2   0.50000     0.0600000    0.0600000   6.128906e-05  1.496315e-08
     75     88   2   0.50000    -0.0600000   -0.1200000   1.015252e-03  1.866303e-06
     75     92   2   0.50000    -0.0600000    0.0600000   2.494471e-04  1.671101e-07
     75     98   2   0.50000    -0.0600000   -0.1200000   1.015252e-03  1.866303e-06
     90     88   2   0.50000     0.0600000   -0.1200000   2.494471e-04  1.671101e-07
     90     92   2   0.50000     0.0600000    0.0600000   6.128906e-05  1.496315e-08
     90     98   2   0.50000     0.0600000   -0.1200000   2.494471e-04  1.671101e-07
     91     88   2   0.50000     0.0600000   -0.1200000   2.494471e-04  1.671101e-07
     91     92   2   0.50000     0.0600000    0.0600000   6.128906e-05  1.496315e-08
     91     98   2   0.50000     0.0600000   -0.1200000   2.494471e-04  1.671101e-07
     86     89   2   0.50000    -0.1200000   -0.1800000   1.015252e-03  1.866303e-06
     86     93   2   0.50000    -0.1200000    0.0600000   2.494471e-04  1.671101e-07
     86     94   2   0.50000    -0.1200000    0.0600000   2.494471e-04  1.671101e-07
     92     89   2   0.50000     0.0600000   -0.1800000   2.494471e-04  1.671101e-07
     92     93   2   0.50000     0.0600000    0.0600000   6.128906e-05  1.496315e-08
     92     94   2   0.50000     0.0600000    0.0600000   6.128906e-05  1.496315e-08
     98     89   2   0.50000    -0.1200000   -0.1800000   1.015252e-03  1.866303e-06
     98     93   2   0.50000    -0.1200000    0.0600000   2.494471e-04  1.671101e-07
     98     94   2   0.50000    -0.1200000    0.0600000   2.494471e-04  1.671101e-07
     86     99   2   0.50000    -0.1200000   -0.0600000   1.015252e-03  1.866303e-06
     86    102   2   0.50000    -0.1200000    0.0600000   2.494471e-04  1.671101e-07
     86    103   2   0.50000    -0.1200000    0.0600000   2.494471e-04  1.671101e-07
     88     99   2   0.50000    -0.1200000   -0.0600000   1.015252e-03  1.866303e-06
     88    102   2   0.50000    -0.1200000    0.0600000   2.494471e-04  1.671101e-07
     88    103   2   0.50000    -0.1200000    0.0600000   2.494471e-04  1.671101e-07
     92     99   2   0.50000     0.0600000   -0.0600000   2.494471e-04  1.671101e-07
     92    102   2   0.50000     0.0600000    0.0600000   6.128906e-05  1.496315e-08
     92    103   2   0.50000     0.0600000    0.0600000   6.128906e-05  1.496315e-08
     87     95   2   0.50000    -0.0600000    0.0600000   2.494471e-04  1.671101e-07
     87     96   2   0.50000    -0.0600000    0.0600000   2.494471e-04  1.671101e-07
     87     97   2   0.50000    -0.0600000    0.0600000   2.494471e-04  1.671101e-07
     93     95   2   0.50000     0.0600000    0.0600000   6.128906e-05  1.496315e-08
     93     96   2   0.50000     0.0600000    0.0600000   6.128906e-05  1.496315e-08
     93     97   2   0.50000     0.0600000    0.0600000   6.128906e-05  1.496315e-08
     94     95   2   0.50000     0.0600000    0.0600000   6.128906e-05  1.496315e-08
     94     96   2   0.50000     0.0600000    0.0600000   6.128906e-05  1.496315e-08
     94     97   2   0.50000     0.0600000    0.0600000   6.128906e-05  1.496315e-08
     87    100   2   0.50000    -0.0600000   -0.1200000   1.015252e-03  1.866303e-06
     87    104   2   0.50000    -0.0600000    0.0600000   2.494471e-04  1.671101e-07
     87    110   2   0.50000    -0.0600000   -0.1200000   1.015252e-03  1.866303e-06
    102    100   2   0.50000     0.0600000   -0.1200000   2.494471e-04  1.671101e-07
    102    104   2   0.50000     0.0600000    0.0600000   6.128906e-05  1.496315e-08
    102    110   2   0.50000     0.0600000   -0.1200000   2.494471e-04  1.671101e-07
    103    100   2   0.50000     0.0600000   -0.1200000   2.494471e-04  1.671101e-07
    103    104   2   0.50000     0.0600000    0.0600000   6.128906e-05  1.496315e-08
    103    110   2   0.50000     0.0600000   -0.1200000   2.494471e-04  1.671101e-07
     98    101   2   0.50000    -0.1200000   -0.1800000   1.015252e-03  1.866303e-06
     98    105   2   0.50000    -0.1200000    0.0600000   2.494471e-04  1.671101e-07
     98    106   2   0.50000    -0.1200000    0.0600000   2.494471e-04  1.671101e-07
    104    101   2   0.50000     0.0600000   -0.1800000   2.494471e-04  1.671101e-07
    104    105   2   0.50000     0.0600000    0.0600000   6.128906e-05  1.496315e-08
    104    106   2   0.50000     0.0600000    0.0600000   6.128906e-05  1.496315e-08
    110    101   2   0.50000    -0.1200000   -0.1800000   1.015252e-03  1.866303e-06
    110    105   2   0.50000    -0.1200000    0.0600000   2.494471e-04  1.671101e-07
    110    106   2   0.50000    -0.1200000    0.0600000   2.494471e-04  1.671101e-07
     98    111   2   0.50000    -0.1200000   -0.0600000   1.015252e-03  1.866303e-06
     98    114   2   0.50000    -0.1200000    0.0600000   2.494471e-04  1.671101e-07
     98    115   2   0.50000    -0.1200000    0.0600000   2.494471e-04  1.671101e-07
    100    111   2   0.50000    -0.1200000   -0.0600000   1.015252e-03  1.866303e-06
    100    114   2   0.50000    -0.1200000    0.0600000   2.494471e-04  1.671101e-07
    100    115   2   0.50000    -0.1200000    0.0600000   2.494471e-04  1.671101e-07
    104    111   2   0.50000     0.0600000   -0.0600000   2.494471e-04  1.671101e-07
    104    114   2   0.50000     0.0600000    0.0600000   6.128906e-05  1.496315e-08
    104    115   2   0.50000     0.0600000    0.0600000   6.128906e-05  1.496315e-08
     99    107   2   0.50000    -0.0600000    0.0600000   2.494471e-04  1.671101e-07
     99    108   2   0.50000    -0.0600000    0.0600000   2.494471e-04  1.671101e-07
     99    109   2   0.50000    -0.0600000    0.0600000   2.494471e-04  1.671101e-07
    105    107   2   0.50000     0.0600000    0.0600000   6.128906e-05  1.496315e-08
    105    108   2   0.50000     0.0600000    0.0600000   6.128906e-05  1.496315e-08
    105    109   2   0.50000     0.0600000    0.0600000   6.128906e-05  1.496315e-08
    106    107   2   0.50000     0.0600000    0.0600000   6.128906e-05  1.496315e-08
    106    108   2   0.50000     0.0600000    0.0600000   6.128906e-05  1.496315e-08
    106    109   2   0.50000     0.0600000    0.0600000   6.128906e-05  1.496315e-08
     99    112   2   0.50000    -0.0600000   -0.1200000   1.015252e-03  1.866303e-06
     99    116   2   0.50000    -0.0600000    0.0600000   2.494471e-04  1.671101e-07
     99    122   2   0.50000    -0.0600000   -0.1200000   1.015252e-03  1.866303e-06
    114    112   2   0.50000     0.0600000   -0.1200000   2.494471e-04  1.671101e-07
    114    116   2   0.50000     0.0600000    0.0600000   6.128906e-05  1.496315e-08
    114    122   2   0.50000     0.0600000   -0.1200000   2.494471e-04  1.671101e-07
    115    112   2   0.50000     0.0600000   -0.1200000   2.494471e-04  1.671101e-07
    115    116   2   0.50000     0.0600000    0.0600000   6.128906e-05  1.496315e-08
    115    122   2   0.50000     0.0600000   -0.1200000   2.494471e-04  1.671101e-07
    110    113   2   0.50000    -0.1200000   -0.1800000   1.015252e-03  1.866303e-06
    110    117   2   0.50000    -0.1200000    0.0600000   2.494471e-04  1.671101e-07
    110    118   2   0.50000    -0.1200000    0.0600000   2.494471e-04  1.671101e-07
    116    113   2   0.50000     0.0600000   -0.1800000   2.494471e-04  1.671101e-07
    116    117   2   0.50000     0.0600000    0.0600000   6.128906e-05  1.496315e-08
    116    118   2   0.50000     0.0600000    0.0600000   6.128906e-05  1.496315e-08
    122    113   2   0.50000    -0.1200000   -0.1800000   1.015252e-03  1.866303e-06
    122    117   2   0.50000    -0.1200000    0.0600000   2.494471e-04  1.671101e-07
    122    118   2   0.50000    -0.1200000    0.0600000   2.494471e-04  1.671101e-07
    110    123   2   0.50000    -0.1200000   -0.0600000   1.015252e-03  1.866303e-06
    110    126   2   0.50000    -0.1200000    0.0600000   2.494471e-04  1.671101e-07
    110    127   2   0.50000    -0.1200000    0.0600000   2.494471e-04  1.671101e-07
    112    123   2   0.50000    -0.1200000   -0.0600000   1.015252e-03  1.866303e-06
    112    126   2   0.50000    -0.1200000    0.0600000   2.494471e-04  1.671101e-07
    112    127   2   0.50000    -0.1200000    0.0600000   2.494471e-04  1.671101e-07
    116    123   2   0.50000     0.0600000   -0.0600000   2.494471e-04  1.671101e-07
    116    126   2   0.50000     0.0600000    0.0600000   6.128906e-05  1.496315e-08
    116    127   2   0.50000     0.0600000    0.0600000   6.128906e-05  1.496315e-08
    111    119   2   0.50000    -0.0600000    0.0600000   2.494471e-04  1.671101e-07
    111    120   2   0.50000    -0.0600000    0.0600000   2.494471e-04  1.671101e-07
    111    121   2   0.50000    -0.0600000    0.0600000   2.494471e-04  1.671101e-07
    117    119   2   0.50000     0.0600000    0.0600000   6.128906e-05  1.496315e-08
    117    120   2   0.50000     0.0600000    0.0600000   6.128906e-05  1.496315e-08
    117    121   2   0.50000     0.0600000    0.0600000   6.128906e-05  1.496315e-08
    118    119   2   0.50000     0.0600000    0.0600000   6.128906e-05  1.496315e-08
    118    120   2   0.50000     0.0600000    0.0600000   6.128906e-05  1.496315e-08
    118    121   2   0.50000     0.0600000    0.0600000   6.128906e-05  1.496315e-08
    111    124   2   0.50000    -0.0600000   -0.1200000   1.015252e-03  1.866303e-06
    111    128   2   0.50000    -0.0600000    0.0600000   2.494471e-04  1.671101e-07
    111    134   2   0.50000    -0.0600000   -0.1200000   1.015252e-03  1.866303e-06
    126    124   2   0.50000     0.0600000   -0.1200000   2.494471e-04  1.671101e-07
    126    128   2   0.50000     0.0600000    0.0600000   6.128906e-05  1.496315e-08
    126    134   2   0.50000     0.0600000   -0.1200000   2.494471e-04  1.671101e-07
    127    124   2   0.50000     0.0600000   -0.1200000   2.494471e-04  1.671101e-07
    127    128   2   0.50000     0.0600000    0.0600000   6.128906e-05  1.496315e-08
    127    134   2   0.50000     0.0600000   -0.1200000   2.494471e-04  1.671101e-07
    122    125   2   0.50000    -0.1200000   -0.1800000   1.015252e-03  1.866303e-06
    122    129   2   0.50000    -0.1200000    0.0600000   2.494471e-04  1.671101e-07
    122    130   2   0.50000    -0.1200000    0.0600000   2.494471e-04  1.671101e-07
    128    125   2   0.50000     0.0600000   -0.1800000   2.494471e-04  1.671101e-07
    128    129   2   0.50000     0.0600000    0.0600000   6.128906e-05  1.496315e-08
    128    130   2   0.50000     0.0600000    0.0600000   6.128906e-05  1.496315e-08
    134    125   2   0.50000    -0.1200000   -0.1800000   1.015252e-03  1.866303e-06
    134    129   2   0.50000    -0.1200000    0.0600000   2.494471e-04  1.671101e-07
    134    130   2   0.50000    -0.1200000    0.0600000   2.494471e-04  1.671101e-07
    122    135   2   0.50000    -0.1200000   -0.0600000   1.015252e-03  1.866303e-06
    122    138   2   0.50000    -0.1200000    0.0600000   2.494471e-04  1.671101e-07
    122    139   2   0.50000    -0.1200000    0.0600000   2.494471e-04  1.671101e-07
    124    135   2   0.50000    -0.1200000   -0.0600000   1.015252e-03  1.866303e-06
    124    138   2   0.50000    -0.1200000    0.0600000   2.494471e-04  1.671101e-07
    124    139   2   0.50000    -0.1200000    0.0600000   2.494471e-04  1.671101e-07
    128    135   2   0.50000     0.0600000   -0.0600000   2.494471e-04  1.671101e-07
    128    138   2   0.50000     0.0600000    0.0600000   6.128906e-05  1.496315e-08
    128    139   2   0.50000     0.0600000    0.0600000   6.128906e-05  1.496315e-08
    123    131   2   0.50000    -0.0600000    0.0600000   2.494471e-04  1.671101e-07
    123    132   2   0.50000    -0.0600000    0.0600000   2.494471e-04  1.671101e-07
    123    133   2   0.50000    -0.0600000    0.0600000   2.494471e-04  1.671101e-07
    129    131   2   0.50000     0.0600000    0.0600000   6.128906e-05  1.496315e-08
    129    132   2   0.50000     0.0600000    0.0600000   6.128906e-05  1.496315e-08
    129    133   2   0.50000     0.0600000    0.0600000   6.128906e-05  1.496315e-08
    130    131   2   0.50000     0.0600000    0.0600000   6.128906e-05  1.496315e-08
    130    132   2   0.50000     0.0600000    0.0600000   6.128906e-05  1.496315e-08
    130    133   2   0.50000     0.0600000    0.0600000   6.128906e-05  1.496315e-08
    123    136   2   0.50000    -0.0600000   -0.1200000   1.015252e-03  1.866303e-06
    123    140   2   0.50000    -0.0600000    0.0600000   2.494471e-04  1.671101e-07
    123    146   2   0.50000    -0.0600000   -0.1200000   1.015252e-03  1.866303e-06
    138    136   2   0.50000     0.0600000   -0.1200000   2.494471e-04  1.671101e-07
    138    140   2   0.50000     0.0600000    0.0600000   6.128906e-05  1.496315e-08
    138    146   2   0.50000     0.0600000   -0.1200000   2.494471e-04  1.671101e-07
    139    136   2   0.50000     0.0600000   -0.1200000   2.494471e-04  1.671101e-07
    139    140   2   0.50000     0.0600000    0.0600000   6.128906e-05  1.496315e-08
    139    146   2   0.50000     0.0600000   -0.1200000   2.494471e-04  1.671101e-07
    134    137   2   0.50000    -0.1200000   -0.1800000   1.015252e-03  1.866303e-06
    134    141   2   0.50000    -0.1200000    0.0600000   2.494471e-04  1.671101e-07
    134    142   2   0.50000    -0.1200000    0.0600000   2.494471e-04  1.671101e-07
    140    137   2   0.50000     0.0600000   -0.1800000   2.494471e-04  1.671101e-07
    140    141   2   0.50000     0.0600000    0.0600000   6.128906e-05  1.496315e-08
    140    142   2   0.50000     0.0600000    0.0600000   6.128906e-05  1.496315e-08
    146    137   2   0.50000    -0.1200000   -0.1800000   1.015252e-03  1.866303e-06
    146    141   2   0.50000    -0.1200000    0.0600000   2.494471e-04  1.671101e-07
    146    142   2   0.50000    -0.1200000    0.0600000   2.494471e-04  1.671101e-07
    134    147   2   0.50000    -0.1200000   -0.0600000   1.015252e-03  1.866303e-06
    134    150   2   0.50000    -0.1200000    0.0600000   2.494471e-04  1.671101e-07
    134    151   2   0.50000    -0.1200000    0.0600000   2.494471e-04  1.671101e-07
    136    147   2   0.50000    -0.1200000   -0.0600000   1.015252e-03  1.866303e-06
    136    150   2   0.50000    -0.1200000    0.0600000   2.494471e-04  1.671101e-07
    136    151   2   0.50000    -0.1200000    0.0600000   2.494471e-04  1.671101e-07
    140    147   2   0.50000     0.0600000   -0.0600000   2.494471e-04  1.671101e-07
    140    150   2   0.50000     0.0600000    0.0600000   6.128906e-05  1.496315e-08
    140    151   2   0.50000     0.0600000    0.0600000   6.128906e-05  1.496315e-08
    135    143   2   0.50000    -0.0600000    0.0600000   2.494471e-04  1.671101e-07
    135    144   2   0.50000    -0.0600000    0.0600000   2.494471e-04  1.671101e-07
    135    145   2   0.50000    -0.0600000    0.0600000   2.494471e-04  1.671101e-07
    141    143   2   0.50000     0.0600000    0.0600000   6.128906e-05  1.496315e-08
    141    144   2   0.50000     0.0600000    0.0600000   6.128906e-05  1.496315e-08
    141    145   2   0.50000     0.0600000    0.0600000   6.128906e-05  1.496315e-08
    142    143   2   0.50000     0.0600000    0.0600000   6.128906e-05  1.496315e-08
    142    144   2   0.50000     0.0600000    0.0600000   6.128906e-05  1.496315e-08
    142    145   2   0.50000     0.0600000    0.0600000   6.128906e-05  1.496315e-08
    135    148   2   0.50000    -0.0600000   -0.1200000   1.015252e-03  1.866303e-06
    135    152   2   0.50000    -0.0600000    0.0600000   2.494471e-04  1.671101e-07
    135    158   2   0.50000    -0.0600000   -0.1200000   1.015252e-03  1.866303e-06
    150    148   2   0.50000     0.0600000   -0.1200000   2.494471e-04  1.671101e-07
    150    152   2   0.50000     0.0600000    0.0600000   6.128906e-05  1.496315e-08
    150    158   2   0.50000     0.0600000   -0.1200000   2.494471e-04  1.671101e-07
    151    148   2   0.50000     0.0600000   -0.1200000   2.494471e-04  1.671101e-07
    151    152   2   0.50000     0.0600000    0.0600000   6.128906e-05  1.496315e-08
    151    158   2   0.50000     0.0600000   -0.1200000   2.494471e-04  1.671101e-07
    146    149   2   0.50000    -0.1200000   -0.1800000   1.015252e-03  1.866303e-06
    146    153   2   0.50000    -0.1200000    0.0600000   2.494471e-04  1.671101e-07
    146    154   2   0.50000    -0.1200000    0.0600000   2.494471e-04  1.671101e-07
    152    149   2   0.50000     0.0600000   -0.1800000   2.494471e-04  1.671101e-07
    152    153   2   0.50000     0.0600000    0.0600000   6.128906e-05  1.496315e-08
    152    154   2   0.50000     0.0600000    0.0600000   6.128906e-05  1.496315e-08
    158    149   2   0.50000    -0.1200000   -0.1800000   1.015252e-03  1.866303e-06
    158    153   2   0.50000    -0.1200000    0.0600000   2.494471e-04  1.671101e-07
    158    154   2   0.50000    -0.1200000    0.0600000   2.494471e-04  1.671101e-07
    146    159   2   0.50000    -0.1200000   -0.0600000   1.015252e-03  1.866303e-06
    146    162   2   0.50000    -0.1200000    0.0600000   2.494471e-04  1.671101e-07
    146    163   2   0.50000    -0.1200000    0.0600000   2.494471e-04  1.671101e-07
    148    159   2   0.50000    -0.1200000   -0.0600000   1.015252e-03  1.866303e-06
    148    162   2   0.50000    -0.1200000    0.0600000   2.494471e-04  1.671101e-07
    148    163   2   0.50000    -0.1200000    0.0600000   2.494471e-04  1.671101e-07
    152    159   2   0.50000     0.0600000   -0.0600000   2.494471e-04  1.671101e-07
    152    162   2   0.50000     0.0600000    0.0600000   6.128906e-05  1.496315e-08
    152    163   2   0.50000     0.0600000    0.0600000   6.128906e-05  1.496315e-08
    147    155   2   0.50000    -0.0600000    0.0600000   2.494471e-04  1.671101e-07
    147    156   2   0.50000    -0.0600000    0.0600000   2.494471e-04  1.671101e-07
    147    157   2   0.50000    -0.0600000    0.0600000   2.494471e-04  1.671101e-07
    153    155   2   0.50000     0.0600000    0.0600000   6.128906e-05  1.496315e-08
    153    156   2   0.50000     0.0600000    0.0600000   6.128906e-05  1.496315e-08
    153    157   2   0.50000     0.0600000    0.0600000   6.128906e-05  1.496315e-08
    154    155   2   0.50000     0.0600000    0.0600000   6.128906e-05  1.496315e-08
    154    156   2   0.50000     0.0600000    0.0600000   6.128906e-05  1.496315e-08
    154    157   2   0.50000     0.0600000    0.0600000   6.128906e-05  1.496315e-08
    147    160   2   0.50000    -0.0600000   -0.1200000   1.015252e-03  1.866303e-06
    147    164   2   0.50000    -0.0600000    0.0600000   2.494471e-04  1.671101e-07
    147    170   2   0.50000    -0.0600000   -0.1200000   1.015252e-03  1.866303e-06
    162    160   2   0.50000     0.0600000   -0.1200000   2.494471e-04  1.671101e-07
    162    164   2   0.50000     0.0600000    0.0600000   6.128906e-05  1.496315e-08
    162    170   2   0.50000     0.0600000   -0.1200000   2.494471e-04  1.671101e-07
    163    160   2   0.50000     0.0600000   -0.1200000   2.494471e-04  1.671101e-07
    163    164   2   0.50000     0.0600000    0.0600000   6.128906e-05  1.496315e-08
    163    170   2   0.50000     0.0600000   -0.1200000   2.494471e-04  1.671101e-07
    158    161   2   0.50000    -0.1200000   -0.1800000   1.015252e-03  1.866303e-06
    158    165   2   0.50000    -0.1200000    0.0600000   2.494471e-04  1.671101e-07
    158    166   2   0.50000    -0.1200000    0.0600000   2.494471e-04  1.671101e-07
    164    161   2   0.50000     0.0600000   -0.1800000   2.494471e-04  1.671101e-07
    164    165   2   0.50000     0.0600000    0.0600000   6.128906e-05  1.496315e-08
    164    166   2   0.50000     0.0600000    0.0600000   6.128906e-05  1.496315e-08
    170    161   2   0.50000    -0.1200000   -0.1800000   1.015252e-03  1.866303e-06
    170    165   2   0.50000    -0.1200000    0.0600000   2.494471e-04  1.671101e-07
    170    166   2   0.50000    -0.1200000    0.0600000   2.494471e-04  1.671101e-07
    158    171   2   0.50000    -0.1200000   -0.0600000   1.015252e-03  1.866303e-06
    158    174   2   0.50000    -0.1200000    0.0600000   2.494471e-04  1.671101e-07
    158    175   2   0.50000    -0.1200000    0.0600000   2.494471e-04  1.671101e-07
    160    171   2   0.50000    -0.1200000   -0.0600000   1.015252e-03  1.866303e-06
    160    174   2   0.50000    -0.1200000    0.0600000   2.494471e-04  1.671101e-07
    160    175   2   0.50000    -0.1200000    0.0600000   2.494471e-04  1.671101e-07
    164    171   2   0.50000     0.0600000   -0.0600000   2.494471e-04  1.671101e-07
    164    174   2   0.50000     0.0600000    0.0600000   6.128906e-05  1.496315e-08
    164    175   2   0.50000     0.0600000    0.0600000   6.128906e-05  1.496315e-08
    159    167   2   0.50000    -0.0600000    0.0600000   2.494471e-04  1.671101e-07
    159    168   2   0.50000    -0.0600000    0.0600000   2.494471e-04  1.671101e-07
    159    169   2   0.50000    -0.0600000    0.0600000   2.494471e-04  1.671101e-07
    165    167   2   0.50000     0.0600000    0.0600000   6.128906e-05  1.496315e-08
    165    168   2   0.50000     0.0600000    0.0600000   6.128906e-05  1.496315e-08
    165    169   2   0.50000     0.0600000    0.0600000   6.128906e-05  1.496315e-08
    166    167   2   0.50000     0.0600000    0.0600000   6.128906e-05  1.496315e-08
    166    168   2   0.50000     0.0600000    0.0600000   6.128906e-05  1.496315e-08
    166    169   2   0.50000     0.0600000    0.0600000   6.128906e-05  1.496315e-08
    159    172   2   0.50000    -0.0600000   -0.1200000   1.015252e-03  1.866303e-06
    159    176   2   0.50000    -0.0600000    0.0600000   2.494471e-04  1.671101e-07
    159    182   2   0.50000    -0.0600000   -0.1200000   1.015252e-03  1.866303e-06
    174    172   2   0.50000     0.0600000   -0.1200000   2.494471e-04  1.671101e-07
    174    176   2   0.50000     0.0600000    0.0600000   6.128906e-05  1.496315e-08
    174    182   2   0.50000     0.0600000   -0.1200000   2.494471e-04  1.671101e-07
    175    172   2   0.50000     0.0600000   -0.1200000   2.494471e-04  1.671101e-07
    175    176   2   0.50000     0.0600000    0.0600000   6.128906e-05  1.496315e-08
    175    182   2   0.50000     0.0600000   -0.1200000   2.494471e-04  1.671101e-07
    170    173   2   0.50000    -0.1200000   -0.1800000   1.015252e-03  1.866303e-06
    170    177   2   0.50000    -0.1200000    0.0600000   2.494471e-04  1.671101e-07
    170    178   2   0.50000    -0.1200000    0.0600000   2.494471e-04  1.671101e-07
    176    173   2   0.50000     0.0600000   -0.1800000   2.494471e-04  1.671101e-07
    176    177   2   0.50000     0.0600000    0.0600000   6.128906e-05  1.496315e-08
    176    178   2   0.50000     0.0600000    0.0600000   6.128906e-05  1.496315e-08
    182    173   2   0.50000    -0.1200000   -0.1800000   1.015252e-03  1.866303e-06
    182    177   2   0.50000    -0.1200000    0.0600000   2.494471e-04  1.671101e-07
    182    178   2   0.50000    -0.1200000    0.0600000   2.494471e-04  1.671101e-07
    170    183   2   0.50000    -0.1200000   -0.0600000   1.015252e-03  1.866303e-06
    170    186   2   0.50000    -0.1200000    0.0600000   2.494471e-04  1.671101e-07
    170    187   2   0.50000    -0.1200000    0.0600000   2.494471e-04  1.671101e-07
    172    183   2   0.50000    -0.1200000   -0.0600000   1.015252e-03  1.866303e-06
    172    186   2   0.50000    -0.1200000    0.0600000   2.494471e-04  1.671101e-07
    172    187   2   0.50000    -0.1200000    0.0600000   2.494471e-04  1.671101e-07
    176    183   2   0.50000     0.0600000   -0.0600000   2.494471e-04  1.671101e-07
    176    186   2   0.50000     0.0600000    0.0600000   6.128906e-05  1.496315e-08
    176    187   2   0.50000     0.0600000    0.0600000   6.128906e-05  1.496315e-08
    171    179   2   0.50000    -0.0600000    0.0600000   2.494471e-04  1.671101e-07
    171    180   2   0.50000    -0.0600000    0.0600000   2.494471e-04  1.671101e-07
    171    181   2   0.50000    -0.0600000    0.0600000   2.494471e-04  1.671101e-07
    177    179   2   0.50000     0.0600000    0.0600000   6.128906e-05  1.496315e-08
    177    180   2   0.50000     0.0600000    0.0600000   6.128906e-05  1.496315e-08
    177    181   2   0.50000     0.0600000    0.0600000   6.128906e-05  1.496315e-08
    178    179   2   0.50000     0.0600000    0.0600000   6.128906e-05  1.496315e-08
    178    180   2   0.50000     0.0600000    0.0600000   6.128906e-05  1.496315e-08
    178    181   2   0.50000     0.0600000    0.0600000   6.128906e-05  1.496315e-08
    171    184   2   0.50000    -0.0600000   -0.1200000   1.015252e-03  1.866303e-06
    171    188   2   0.50000    -0.0600000    0.0600000   2.494471e-04  1.671101e-07
    171    194   2   0.50000    -0.0600000   -0.1200000   1.015252e-03  1.866303e-06
    186    184   2   0.50000     0.0600000   -0.1200000   2.494471e-04  1.671101e-07
    186    188   2   0.50000     0.0600000    0.0600000   6.128906e-05  1.496315e-08
    186    194   2   0.50000     0.0600000   -0.1200000   2.494471e-04  1.671101e-07
    187    184   2   0.50000     0.0600000   -0.1200000   2.494471e-04  1.671101e-07
    187    188   2   0.50000     0.0600000    0.0600000   6.128906e-05  1.496315e-08
    187    194   2   0.50000     0.0600000   -0.1200000   2.494471e-04  1.671101e-07
    182    185   2   0.50000    -0.1200000   -0.1800000   1.015252e-03  1.866303e-06
    182    189   2   0.50000    -0.1200000    0.0600000   2.494471e-04  1.671101e-07
    182    190   2   0.50000    -0.1200000    0.0600000   2.494471e-04  1.671101e-07
    188    185   2   0.50000     0.0600000   -0.1800000   2.494471e-04  1.671101e-07
    188    189   2   0.50000     0.0600000    0.0600000   6.128906e-05  1.496315e-08
    188    190   2   0.50000     0.0600000    0.0600000   6.128906e-05  1.496315e-08
    194    185   2   0.50000    -0.1200000   -0.1800000   1.015252e-03  1.866303e-06
    194    189   2   0.50000    -0.1200000    0.0600000   2.494471e-04  1.671101e-07
    194    190   2   0.50000    -0.1200000    0.0600000   2.494471e-04  1.671101e-07
    182    195   2   0.50000    -0.1200000   -0.0600000   1.015252e-03  1.866303e-06
    182    198   2   0.50000    -0.1200000    0.0600000   2.494471e-04  1.671101e-07
    182    199   2   0.50000    -0.1200000    0.0600000   2.494471e-04  1.671101e-07
    184    195   2   0.50000    -0.1200000   -0.0600000   1.015252e-03  1.866303e-06
    184    198   2   0.50000    -0.1200000    0.0600000   2.494471e-04  1.671101e-07
    184    199   2   0.50000    -0.1200000    0.0600000   2.494471e-04  1.671101e-07
    188    195   2   0.50000     0.0600000   -0.0600000   2.494471e-04  1.671101e-07
    188    198   2   0.50000     0.0600000    0.0600000   6.128906e-05  1.496315e-08
    188    199   2   0.50000     0.0600000    0.0600000   6.128906e-05  1.496315e-08
    183    191   2   0.50000    -0.0600000    0.0600000   2.494471e-04  1.671101e-07
    183    192   2   0.50000    -0.0600000    0.0600000   2.494471e-04  1.671101e-07
    183    193   2   0.50000    -0.0600000    0.0600000   2.494471e-04  1.671101e-07
    189    191   2   0.50000     0.0600000    0.0600000   6.128906e-05  1.496315e-08
    189    192   2   0.50000     0.0600000    0.0600000   6.128906e-05  1.496315e-08
    189    193   2   0.50000     0.0600000    0.0600000   6.128906e-05  1.496315e-08
    190    191   2   0.50000     0.0600000    0.0600000   6.128906e-05  1.496315e-08
    190    192   2   0.50000     0.0600000    0.0600000   6.128906e-05  1.496315e-08
    190    193   2   0.50000     0.0600000    0.0600000   6.128906e-05  1.496315e-08
    183    196   2   0.50000    -0.0600000   -0.1200000   1.015252e-03  1.866303e-06
    183    200   2   0.50000    -0.0600000    0.0600000   2.494471e-04  1.671101e-07
    183    206   2   0.50000    -0.0600000   -0.1200000   1.015252e-03  1.866303e-06
    198    196   2   0.50000     0.0600000   -0.1200000   2.494471e-04  1.671101e-07
    198    200   2   0.50000     0.0600000    0.0600000   6.128906e-05  1.496315e-08
    198    206   2   0.50000     0.0600000   -0.1200000   2.494471e-04  1.671101e-07
    199    196   2   0.50000     0.0600000   -0.1200000   2.494471e-04  1.671101e-07
    199    200   2   0.50000     0.0600000    0.0600000   6.128906e-05  1.496315e-08
    199    206   2   0.50000     0.0600000   -0.1200000   2.494471e-04  1.671101e-07
    194    197   2   0.50000    -0.1200000   -0.1800000   1.015252e-03  1.866303e-06
    194    201   2   0.50000    -0.1200000    0.0600000   2.494471e-04  1.671101e-07
    194    202   2   0.50000    -0.1200000    0.0600000   2.494471e-04  1.671101e-07
    200    197   2   0.50000     0.0600000   -0.1800000   2.494471e-04  1.671101e-07
    200    201   2   0.50000     0.0600000    0.0600000   6.128906e-05  1.496315e-08
    200    202   2   0.50000     0.0600000    0.0600000   6.128906e-05  1.496315e-08
    206    197   2   0.50000    -0.1200000   -0.1800000   1.015252e-03  1.866303e-06
    206    201   2   0.50000    -0.1200000    0.0600000   2.494471e-04  1.671101e-07
    206    202   2   0.50000    -0.1200000    0.0600000   2.494471e-04  1.671101e-07
    194    207   2   0.50000    -0.1200000   -0.0600000   1.015252e-03  1.866303e-06
    194    210   2   0.50000    -0.1200000    0.0600000   2.494471e-04  1.671101e-07
    194    211   2   0.50000    -0.1200000    0.0600000   2.494471e-04  1.671101e-07
    196    207   2   0.50000    -0.1200000   -0.0600000   1.015252e-03  1.866303e-06
    196    210   2   0.50000    -0.1200000    0.0600000   2.494471e-04  1.671101e-07
    196    211   2   0.50000    -0.1200000    0.0600000   2.494471e-04  1.671101e-07
    200    207   2   0.50000     0.0600000   -0.0600000   2.494471e-04  1.671101e-07
    200    210   2   0.50000     0.0600000    0.0600000   6.128906e-05  1.496315e-08
    200    211   2   0.50000     0.0600000    0.0600000   6.128906e-05  1.496315e-08
    195    203   2   0.50000    -0.0600000    0.0600000   2.494471e-04  1.671101e-07
    195    204   2   0.50000    -0.0600000    0.0600000   2.494471e-04  1.671101e-07
    195    205   2   0.50000    -0.0600000    0.0600000   2.494471e-04  1.671101e-07
    201    203   2   0.50000     0.0600000    0.0600000   6.128906e-05  1.496315e-08
    201    204   2   0.50000     0.0600000    0.0600000   6.128906e-05  1.496315e-08
    201    205   2   0.50000     0.0600000    0.0600000   6.128906e-05  1.496315e-08
    202    203   2   0.50000     0.0600000    0.0600000   6.128906e-05  1.496315e-08
    202    204   2   0.50000     0.0600000    0.0600000   6.128906e-05  1.496315e-08
    202    205   2   0.50000     0.0600000    0.0600000   6.128906e-05  1.496315e-08
    195    208   2   0.50000    -0.0600000   -0.1200000   1.015252e-03  1.866303e-06
    195    212   2   0.50000    -0.0600000    0.0600000   2.494471e-04  1.671101e-07
    195    218   2   0.50000    -0.0600000   -0.1200000   1.015252e-03  1.866303e-06
    210    208   2   0.50000     0.0600000   -0.1200000   2.494471e-04  1.671101e-07
    210    212   2   0.50000     0.0600000    0.0600000   6.128906e-05  1.496315e-08
    210    218   2   0.50000     0.0600000   -0.1200000   2.494471e-04  1.671101e-07
    211    208   2   0.50000     0.0600000   -0.1200000   2.494471e-04  1.671101e-07
    211    212   2   0.50000     0.0600000    0.0600000   6.128906e-05  1.496315e-08
    211    218   2   0.50000     0.0600000   -0.1200000   2.494471e-04  1.671101e-07
    206    209   2   0.50000    -0.1200000   -0.1800000   1.015252e-03  1.866303e-06
    206    213   2   0.50000    -0.1200000    0.0600000   2.494471e-04  1.671101e-07
    206    214   2   0.50000    -0.1200000    0.0600000   2.494471e-04  1.671101e-07
    212    209   2   0.50000     0.0600000   -0.1800000   2.494471e-04  1.671101e-07
    212    213   2   0.50000     0.0600000    0.0600000   6.128906e-05  1.496315e-08
    212    214   2   0.50000     0.0600000    0.0600000   6.128906e-05  1.496315e-08
    218    209   2   0.50000    -0.1200000   -0.1800000   1.015252e-03  1.866303e-06
    218    213   2   0.50000    -0.1200000    0.0600000   2.494471e-04  1.671101e-07
    218    214   2   0.50000    -0.1200000    0.0600000   2.494471e-04  1.671101e-07
    206    219   2   0.50000    -0.1200000   -0.0600000   1.015252e-03  1.866303e-06
    206    222   2   0.50000    -0.1200000    0.0600000   2.494471e-04  1.671101e-07
    206    223   2   0.50000    -0.1200000    0.0600000   2.494471e-04  1.671101e-07
    208    219   2   0.50000    -0.1200000   -0.0600000   1.015252e-03  1.866303e-06
    208    222   2   0.50000    -0.1200000    0.0600000   2.494471e-04  1.671101e-07
    208    223   2   0.50000    -0.1200000    0.0600000   2.494471e-04  1.671101e-07
    212    219   2   0.50000     0.0600000   -0.0600000   2.494471e-04  1.671101e-07
    212    222   2   0.50000     0.0600000    0.0600000   6.128906e-05  1.496315e-08
    212    223   2   0.50000     0.0600000    0.0600000   6.128906e-05  1.496315e-08
    207    215   2   0.50000    -0.0600000    0.0600000   2.494471e-04  1.671101e-07
    207    216   2   0.50000    -0.0600000    0.0600000   2.494471e-04  1.671101e-07
    207    217   2   0.50000    -0.0600000    0.0600000   2.494471e-04  1.671101e-07
    213    215   2   0.50000     0.0600000    0.0600000   6.128906e-05  1.496315e-08
    213    216   2   0.50000     0.0600000    0.0600000   6.128906e-05  1.496315e-08
    213    217   2   0.50000     0.0600000    0.0600000   6.128906e-05  1.496315e-08
    214    215   2   0.50000     0.0600000    0.0600000   6.128906e-05  1.496315e-08
    214    216   2   0.50000     0.0600000    0.0600000   6.128906e-05  1.496315e-08
    214    217   2   0.50000     0.0600000    0.0600000   6.128906e-05  1.496315e-08
    207    220   2   0.50000    -0.0600000   -0.1200000   1.015252e-03  1.866303e-06
    207    224   2   0.50000    -0.0600000    0.0600000   2.494471e-04  1.671101e-07
    207    230   2   0.50000    -0.0600000   -0.1200000   1.015252e-03  1.866303e-06
    222    220   2   0.50000     0.0600000   -0.1200000   2.494471e-04  1.671101e-07
    222    224   2   0.50000     0.0600000    0.0600000   6.128906e-05  1.496315e-08
    222    230   2   0.50000     0.0600000   -0.1200000   2.494471e-04  1.671101e-07
    223    220   2   0.50000     0.0600000   -0.1200000   2.494471e-04  1.671101e-07
    223    224   2   0.50000     0.0600000    0.0600000   6.128906e-05  1.496315e-08
    223    230   2   0.50000     0.0600000   -0.1200000   2.494471e-04  1.671101e-07
    218    221   2   0.50000    -0.1200000   -0.1800000   1.015252e-03  1.866303e-06
    218    225   2   0.50000    -0.1200000    0.0600000   2.494471e-04  1.671101e-07
    218    226   2   0.50000    -0.1200000    0.0600000   2.494471e-04  1.671101e-07
    224    221   2   0.50000     0.0600000   -0.1800000   2.494471e-04  1.671101e-07
    224    225   2   0.50000     0.0600000    0.0600000   6.128906e-05  1.496315e-08
    224    226   2   0.50000     0.0600000    0.0600000   6.128906e-05  1.496315e-08
    230    221   2   0.50000    -0.1200000   -0.1800000   1.015252e-03  1.866303e-06
    230    225   2   0.50000    -0.1200000    0.0600000   2.494471e-04  1.671101e-07
    230    226   2   0.50000    -0.1200000    0.0600000   2.494471e-04  1.671101e-07
    218    231   2   0.50000    -0.1200000   -0.1200000   1.015252e-03  1.866303e-06
    218    234   2   0.50000    -0.1200000    0.0600000   2.494471e-04  1.671101e-07
    218    235   2   0.50000    -0.1200000    0.0600000   2.494471e-04  1.671101e-07
    220    231   2   0.50000    -0.1200000   -0.1200000   1.015252e-03  1.866303e-06
    220    234   2   0.50000    -0.1200000    0.0600000   2.494471e-04  1.671101e-07
    220    235   2   0.50000    -0.1200000    0.0600000   2.494471e-04  1.671101e-07
    224    231   2   0.50000     0.0600000   -0.1200000   2.494471e-04  1.671101e-07
    224    234   2   0.50000     0.0600000    0.0600000   6.128906e-05  1.496315e-08
    224    235   2   0.50000     0.0600000    0.0600000   6.128906e-05  1.496315e-08
    219    227   2   0.50000    -0.0600000    0.0600000   2.494471e-04  1.671101e-07
    219    228   2   0.50000    -0.0600000    0.0600000   2.494471e-04  1.671101e-07
    219    229   2   0.50000    -0.0600000    0.0600000   2.494471e-04  1.671101e-07
    225    227   2   0.50000     0.0600000    0.0600000   6.128906e-05  1.496315e-08
    225    228   2   0.50000     0.0600000    0.0600000   6.128906e-05  1.496315e-08
    225    229   2   0.50000     0.0600000    0.0600000   6.128906e-05  1.496315e-08
    226    227   2   0.50000     0.0600000    0.0600000   6.128906e-05  1.496315e-08
    226    228   2   0.50000     0.0600000    0.0600000   6.128906e-05  1.496315e-08
    226    229   2   0.50000     0.0600000    0.0600000   6.128906e-05  1.496315e-08
    219    232   2   0.50000    -0.0600000   -0.1200000   1.015252e-03  1.866303e-06
    219    236   2   0.50000    -0.0600000    0.0600000   2.494471e-04  1.671101e-07
    219    242   2   0.50000    -0.0600000    0.0600000   2.494471e-04  1.671101e-07
    234    232   2   0.50000     0.0600000   -0.1200000   2.494471e-04  1.671101e-07
    234    236   2   0.50000     0.0600000    0.0600000   6.128906e-05  1.496315e-08
    234    242   2   0.50000     0.0600000    0.0600000   6.128906e-05  1.496315e-08
    235    232   2   0.50000     0.0600000   -0.1200000   2.494471e-04  1.671101e-07
    235    236   2   0.50000     0.0600000    0.0600000   6.128906e-05  1.496315e-08
    235    242   2   0.50000     0.0600000    0.0600000   6.128906e-05  1.496315e-08
    230    233   2   0.50000    -0.1200000   -0.1800000   1.015252e-03  1.866303e-06
    230    237   2   0.50000    -0.1200000    0.0600000   2.494471e-04  1.671101e-07
    230    238   2   0.50000    -0.1200000    0.0600000   2.494471e-04  1.671101e-07
    236    233   2   0.50000     0.0600000   -0.1800000   2.494471e-04  1.671101e-07
    236    237   2   0.50000     0.0600000    0.0600000   6.128906e-05  1.496315e-08
    236    238   2   0.50000     0.0600000    0.0600000   6.128906e-05  1.496315e-08
    242    233   2   0.50000     0.0600000   -0.1800000   2.494471e-04  1.671101e-07
    242    237   2   0.50000     0.0600000    0.0600000   6.128906e-05  1.496315e-08
    242    238   2   0.50000     0.0600000    0.0600000   6.128906e-05  1.496315e-08
    231    239   2   0.50000    -0.1200000    0.0600000   2.494471e-04  1.671101e-07
    231    240   2   0.50000    -0.1200000    0.0600000   2.494471e-04  1.671101e-07
    231    241   2   0.50000    -0.1200000    0.0600000   2.494471e-04  1.671101e-07
    237    239   2   0.50000     0.0600000    0.0600000   6.128906e-05  1.496315e-08
    237    240   2   0.50000     0.0600000    0.0600000   6.128906e-05  1.496315e-08
    237    241   2   0.50000     0.0600000    0.0600000   6.128906e-05  1.496315e-08
    238    239   2   0.50000     0.0600000    0.0600000   6.128906e-05  1.496315e-08
    238    240   2   0.50000     0.0600000    0.0600000   6.128906e-05  1.496315e-08
    238    241   2   0.50000     0.0600000    0.0600000   6.128906e-05  1.496315e-08

[ angles ]
; ai  aj  ak
      2      1      5   1    110.7000    313.8000
      2      1      6   1    110.7000    313.8000
      2      1     13   1    110.7000    313.8000
      5      1      6   1    107.8000    276.1440
      5      1     13   1    107.8000    276.1440
      6      1     13   1    107.8000    276.1440
      1      2      3   1    112.7000    488.2728
      1      2      7   1    110.7000    313.8000
      1      2     14   1    112.7000    488.2728
      3      2      7   1    110.7000    313.8000
      3      2     14   1    112.7000    488.2728
      7      2     14   1    110.7000    313.8000
      2      3      4   1    112.7000    488.2728
      2      3      8   1    110.7000    313.8000
      2      3      9   1    110.7000    313.8000
      4      3      8   1    110.7000    313.8000
      4      3      9   1    110.7000    313.8000
      8      3      9   1    107.8000    276.1440
      3      4     10   1    110.7000    313.8000
      3      4     11   1    110.7000    313.8000
      3      4     12   1    110.7000    313.8000
     10      4     11   1    107.8000    276.1440
     10      4     12   1    107.8000    276.1440
     11      4     12   1    107.8000    276.1440
      2     14     15   1    112.7000    488.2728
      2     14     18   1    110.7000    313.8000
      2     14     19   1    110.7000    313.8000
     15     14     18   1    110.7000    313.8000
     15     14     19   1    110.7000    313.8000
     18     14     19   1    107.8000    276.1440
     14     15     16   1    112.7000    488.2728
     14     15     20   1    110.7000    313.8000
     14     15     26   1    112.7000    488.2728
     16     15     20   1    110.7000    313.8000
     16     15     26   1    112.7000    488.2728
     20     15     26   1    110.7000    313.8000
     15     16     17   1    112.7000    488.2728
     15     16     21   1    110.7000    313.8000
     15     16     22   1    110.7000    313.8000
     17     16     21   1    110.7000    313.8000
     17     16     22   1    110.7000    313.8000
     21     16     22   1    107.8000    276.1440
     16     17     23   1    110.7000    313.8000
     16     17     24   1    110.7000    313.8000
     16     17     25   1    110.7000    313.8000
     23     17     24   1    107.8000    276.1440
     23     17     25   1    107.8000    276.1440
     24     17     25   1    107.8000    276.1440
     15     26     27   1    112.7000    488.2728
     15     26     30   1    110.7000    313.8000
     15     26     31   1    110.7000    313.8000
     27     26     30   1    110.7000    313.8000
     27     26     31   1    110.7000    313.8000
     30     26     31   1    107.8000    276.1440
     26     27     28   1    112.7000    488.2728
     26     27     32   1    110.7000    313.8000
     26     27     38   1    112.7000    488.2728
     28     27     32   1    110.7000    313.8000
     28     27     38   1    112.7000    488.2728
     32     27     38   1    110.7000    313.8000
     27     28     29   1    112.7000    488.2728
     27     28     33   1    110.7000    313.8000
     27     28     34   1    110.7000    313.8000
     29     28     33   1    110.7000    313.8000
     29     28     34   1    110.7000    313.8000
     33     28     34   1    107.8000    276.1440
     28     29     35   1    110.7000    313.8000
     28     29     36   1    110.7000    313.8000
     28     29     37   1    110.7000    313.8000
     35     29     36   1    107.8000    276.1440
     35     29     37   1    107.8000    276.1440
     36     29     37   1    107.8000    276.1440
     27     38     39   1    112.7000    488.2728
     27     38     42   1    110.7000    313.8000
     27     38     43   1    110.7000    313.8000
     39     38     42   1    110.7000    313.8000
     39     38     43   1    110.7000    313.8000
     42     38     43   1    107.8000    276.1440
     38     39     40   1    112.7000    488.2728
     38     39     44   1    110.7000    313.8000
     38     39     50   1    112.7000    488.2728
     40     39     44   1    110.7000    313.8000
     40     39     50   1    112.7000    488.2728
     44     39     50   1    110.7000    313.8000
     39     40     41   1    112.7000    488.2728
     39     40     45   1    110.7000    313.8000
     39     40     46   1    110.7000    313.8000
     41     40     45   1    110.7000    313.8000
     41     40     46   1    110.7000    313.8000
     45     40     46   1    107.8000    276.1440
     40     41     47   1    110.7000    313.8000
     40     41     48   1    110.7000    313.8000
     40     41     49   1    110.7000    313.8000
     47     41     48   1    107.8000    276.1440
     47     41     49   1    107.8000    276.1440
     48     41     49   1    107.8000    276.1440
     39     50     51   1    112.7000    488.2728
     39     50     54   1    110.7000    313.8000
     39     50     55   1    110.7000    313.8000
     51     50     54   1    110.7000    313.8000
     51     50     55   1    110.7000    313.8000
     54     50     55   1    107.8000    276.1440
     50     51     52   1    112.7000    488.2728
     50     51     56   1    110.7000    313.8000
     50     51     62   1    112.7000    488.2728
     52     51     56   1    110.7000    313.8000
     52     51     62   1    112.7000    488.2728
     56     51     62   1    110.7000    313.8000
     51     52     53   1    112.7000    488.2728
     51     52     57   1    110.7000    313.8000
     51     52     58   1    110.7000    313.8000
     53     52     57   1    110.7000    313.8000
     53     52     58   1    110.7000    313.8000
     57     52     58   1    107.8000    276.1440
     52     53     59   1    110.7000    313.8000
     52     53     60   1    110.7000    313.8000
     52     53     61   1    110.7000    313.8000
     59     53     60   1    107.8000    276.1440
     59     53     61   1    107.8000    276.1440
     60     53     61   1    107.8000    276.1440
     51     62     63   1    112.7000    488.2728
     51     62     66   1    110.7000    313.8000
     51     62     67   1    110.7000    313.8000
     63     62     66   1    110.7000    313.8000
     63     62     67   1    110.7000    313.8000
     66     62     67   1    107.8000    276.1440
     62     63     64   1    112.7000    488.2728
     62     63     68   1    110.7000    313.8000
     62     63     74   1    112.7000    488.2728
     64     63     68   1    110.7000    313.8000
     64     63     74   1    112.7000    488.2728
     68     63     74   1    110.7000    313.8000
     63     64     65   1    112.7000    488.2728
     63     64     69   1    110.7000    313.8000
     63     64     70   1    110.7000    313.8000
     65     64     69   1    110.7000    313.8000
     65     64     70   1    110.7000    313.8000
     69     64     70   1    107.8000    276.1440
     64     65     71   1    110.7000    313.8000
     64     65     72   1    110.7000    313.8000
     64     65     73   1    110.7000    313.8000
     71     65     72   1    107.8000    276.1440
     71     65     73   1    107.8000    276.1440
     72     65     73   1    107.8000    276.1440
     63     74     75   1    112.7000    488.2728
     63     74     78   1    110.7000    313.8000
     63     74     79   1    110.7000    313.8000
     75     74     78   1    110.7000    313.8000
     75     74     79   1    110.7000    313.8000
     78     74     79   1    107.8000    276.1440
     74     75     76   1    112.7000    488.2728
     74     75     80   1    110.7000    313.8000
     74     75     86   1    112.7000    488.2728
     76     75     80   1    110.7000    313.8000
     76     75     86   1    112.7000    488.2728
     80     75     86   1    110.7000    313.8000
     75     76     77   1    112.7000    488.2728
     75     76     81   1    110.7000    313.8000
     75     76     82   1    110.7000    313.8000
     77     76     81   1    110.7000    313.8000
     77     76     82   1    110.7000    313.8000
     81     76     82   1    107.8000    276.1440
     76     77     83   1    110.7000    313.8000
     76     77     84   1    110.7000    313.8000
     76     77     85   1    110.7000    313.8000
     83     77     84   1    107.8000    276.1440
     83     77     85   1    107.8000    276.1440
     84     77     85   1    107.8000    276.1440
     75     86     87   1    112.7000    488.2728
     75     86     90   1    110.7000    313.8000
     75     86     91   1    110.7000    313.8000
     87     86     90   1    110.7000    313.8000
     87     86     91   1    110.7000    313.8000
     90     86     91   1    107.8000    276.1440
     86     87     88   1    112.7000    488.2728
     86     87     92   1    110.7000    313.8000
     86     87     98   1    112.7000    488.2728
     88     87     92   1    110.7000    313.8000
     88     87     98   1    112.7000    488.2728
     92     87     98   1    110.7000    313.8000
     87     88     89   1    112.7000    488.2728
     87     88     93   1    110.7000    313.8000
     87     88     94   1    110.7000    313.8000
     89     88     93   1    110.7000    313.8000
     89     88     94   1    110.7000    313.8000
     93     88     94   1    107.8000    276.1440
     88     89     95   1    110.7000    313.8000
     88     89     96   1    110.7000    313.8000
     88     89     97   1    110.7000    313.8000
     95     89     96   1    107.8000    276.1440
     95     89     97   1    107.8000    276.1440
     96     89     97   1    107.8000    276.1440
     87     98     99   1    112.7000    488.2728
     87     98    102   1    110.7000    313.8000
     87     98    103   1    110.7000    313.8000
     99     98    102   1    110.7000    313.8000
     99     98    103   1    110.7000    313.8000
    102     98    103   1    107.8000    276.1440
     98     99    100   1    112.7000    488.2728
     98     99    104   1    110.7000    313.8000
     98     99    110   1    112.7000    488.2728
    100     99    104   1    110.7000    313.8000
    100     99    110   1    112.7000    488.2728
    104     99    110   1    110.7000    313.8000
     99    100    101   1    112.7000    488.2728
     99    100    105   1    110.7000    313.8000
     99    100    106   1    110.7000    313.8000
    101    100    105   1    110.7000    313.8000
    101    100    106   1    110.7000    313.8000
    105    100    106   1    107.8000    276.1440
    100    101    107   1    110.7000    313.8000
    100    101    108   1    110.7000    313.8000
    100    101    109   1    110.7000    313.8000
    107    101    108   1    107.8000    276.1440
    107    101    109   1    107.8000    276.1440
    108    101    109   1    107.8000    276.1440
     99    110    111   1    112.7000    488.2728
     99    110    114   1    110.7000    313.8000
     99    110    115   1    110.7000    313.8000
    111    110    114   1    110.7000    313.8000
    111    110    115   1    110.7000    313.8000
    114    110    115   1    107.8000    276.1440
    110    111    112   1    112.7000    488.2728
    110    111    116   1    110.7000    313.8000
    110    111    122   1    112.7000    488.2728
    112    111    116   1    110.7000    313.8000
    112    111    122   1    112.7000    488.2728
    116    111    122   1    110.7000    313.8000
    111    112    113   1    112.7000    488.2728
    111    112    117   1    110.7000    313.8000
    111    112    118   1    110.7000    313.8000
    113    112    117   1    110.7000    313.8000
    113    112    118   1    110.7000    313.8000
    117    112    118   1    107.8000    276.1440
    112    113    119   1    110.7000    313.8000
    112    113    120   1    110.7000    313.8000
    112    113    121   1    110.7000    313.8000
    119    113    120   1    107.8000    276.1440
    119    113    121   1    107.8000    276.1440
    120    113    121   1    107.8000    276.1440
    111    122    123   1    112.7000    488.2728
    111    122    126   1    110.7000    313.8000
    111    122    127   1    110.7000    313.8000
    123    122    126   1    110.7000    313.8000
    123    122    127   1    110.7000    313.8000
    126    122    127   1    107.8000    276.1440
    122    123    124   1    112.7000    488.2728
    122    123    128   1    110.7000    313.8000
    122    123    134   1    112.7000    488.2728
    124    123    128   1    110.7000    313.8000
    124    123    134   1    112.7000    488.2728
    128    123    134   1    110.7000    313.8000
    123    124    125   1    112.7000    488.2728
    123    124    129   1    110.7000    313.8000
    123    124    130   1    110.7000    313.8000
    125    124    129   1    110.7000    313.8000
    125    124    130   1    110.7000    313.8000
    129    124    130   1    107.8000    276.1440
    124    125    131   1    110.7000    313.8000
    124    125    132   1    110.7000    313.8000
    124    125    133   1    110.7000    313.8000
    131    125    132   1    107.8000    276.1440
    131    125    133   1    107.8000    276.1440
    132    125    133   1    107.8000    276.1440
    123    134    135   1    112.7000    488.2728
    123    134    138   1    110.7000    313.8000
    123    134    139   1    110.7000    313.8000
    135    134    138   1    110.7000    313.8000
    135    134    139   1    110.7000    313.8000
    138    134    139   1    107.8000    276.1440
    134    135    136   1    112.7000    488.2728
    134    135    140   1    110.7000    313.8000
    134    135    146   1    112.7000    488.2728
    136    135    140   1    110.7000    313.8000
    136    135    146   1    112.7000    488.2728
    140    135    146   1    110.7000    313.8000
    135    136    137   1    112.7000    488.2728
    135    136    141   1    110.7000    313.8000
    135    136    142   1    110.7000    313.8000
    137    136    141   1    110.7000    313.8000
    137    136    142   1    110.7000    313.8000
    141    136    142   1    107.8000    276.1440
    136    137    143   1    110.7000    313.8000
    136    137    144   1    110.7000    313.8000
    136    137    145   1    110.7000    313.8000
    143    137    144   1    107.8000    276.1440
    143    137    145   1    107.8000    276.1440
    144    137    145   1    107.8000    276.1440
    135    146    147   1    112.7000    488.2728
    135    146    150   1    110.7000    313.8000
    135    146    151   1    110.7000    313.8000
    147    146    150   1    110.7000    313.8000
    147    146    151   1    110.7000    313.8000
    150    146    151   1    107.8000    276.1440
    146    147    148   1    112.7000    488.2728
    146    147    152   1    110.7000    313.8000
    146    147    158   1    112.7000    488.2728
    148    147    152   1    110.7000    313.8000
    148    147    158   1    112.7000    488.2728
    152    147    158   1    110.7000    313.8000
    147    148    149   1    112.7000    488.2728
    147    148    153   1    110.7000    313.8000
    147    148    154   1    110.7000    313.8000
    149    148    153   1    110.7000    313.8000
    149    148    154   1    110.7000    313.8000
    153    148    154   1    107.8000    276.1440
    148    149    155   1    110.7000    313.8000
    148    149    156   1    110.7000    313.8000
    148    149    157   1    110.7000    313.8000
    155    149    156   1    107.8000    276.1440
    155    149    157   1    107.8000    276.1440
    156    149    157   1    107.8000    276.1440
    147    158    159   1    112.7000    488.2728
    147    158    162   1    110.7000    313.8000
    147    158    163   1    110.7000    313.8000
    159    158    162   1    110.7000    313.8000
    159    158    163   1    110.7000    313.8000
    162    158    163   1    107.8000    276.1440
    158    159    160   1    112.7000    488.2728
    158    159    164   1    110.7000    313.8000
    158    159    170   1    112.7000    488.2728
    160    159    164   1    110.7000    313.8000
    160    159    170   1    112.7000    488.2728
    164    159    170   1    110.7000    313.8000
    159    160    161   1    112.7000    488.2728
    159    160    165   1    110.7000    313.8000
    159    160    166   1    110.7000    313.8000
    161    160    165   1    110.7000    313.8000
    161    160    166   1    110.7000    313.8000
    165    160    166   1    107.8000    276.1440
    160    161    167   1    110.7000    313.8000
    160    161    168   1    110.7000    313.8000
    160    161    169   1    110.7000    313.8000
    167    161    168   1    107.8000    276.1440
    167    161    169   1    107.8000    276.1440
    168    161    169   1    107.8000    276.1440
    159    170    171   1    112.7000    488.2728
    159    170    174   1    110.7000    313.8000
    159    170    175   1    110.7000    313.8000
    171    170    174   1    110.7000    313.8000
    171    170    175   1    110.7000    313.8000
    174    170    175   1    107.8000    276.1440
    170    171    172   1    112.7000    488.2728
    170    171    176   1    110.7000    313.8000
    170    171    182   1    112.7000    488.2728
    172    171    176   1    110.7000    313.8000
    172    171    182   1    112.7000    488.2728
    176    171    182   1    110.7000    313.8000
    171    172    173   1    112.7000    488.2728
    171    172    177   1    110.7000    313.8000
    171    172    178   1    110.7000    313.8000
    173    172    177   1    110.7000    313.8000
    173    172    178   1    110.7000    313.8000
    177    172    178   1    107.8000    276.1440
    172    173    179   1    110.7000    313.8000
    172    173    180   1    110.7000    313.8000
    172    173    181   1    110.7000    313.8000
    179    173    180   1    107.8000    276.1440
    179    173    181   1    107.8000    276.1440
    180    173    181   1    107.8000    276.1440
    171    182    183   1    112.7000    488.2728
    171    182    186   1    110.7000    313.8000
    171    182    187   1    110.7000    313.8000
    183    182    186   1    110.7000    313.8000
    183    182    187   1    110.7000    313.8000
    186    182    187   1    107.8000    276.1440
    182    183    184   1    112.7000    488.2728
    182    183    188   1    110.7000    313.8000
    182    183    194   1    112.7000    488.2728
    184    183    188   1    110.7000    313.8000
    184    183    194   1    112.7000    488.2728
    188    183    194   1    110.7000    313.8000
    183    184    185   1    112.7000    488.2728
    183    184    189   1    110.7000    313.8000
    183    184    190   1    110.7000    313.8000
    185    184    189   1    110.7000    313.8000
    185    184    190   1    110.7000    313.8000
    189    184    190   1    107.8000    276.1440
    184    185    191   1    110.7000    313.8000
    184    185    192   1    110.7000    313.8000
    184    185    193   1    110.7000    313.8000
    191    185    192   1    107.8000    276.1440
    191    185    193   1    107.8000    276.1440
    192    185    193   1    107.8000    276.1440
    183    194    195   1    112.7000    488.2728
    183    194    198   1    110.7000    313.8000
    183    194    199   1    110.7000    313.8000
    195    194    198   1    110.7000    313.8000
    195    194    199   1    110.7000    313.8000
    198    194    199   1    107.8000    276.1440
    194    195    196   1    112.7000    488.2728
    194    195    200   1    110.7000    313.8000
    194    195    206   1    112.7000    488.2728
    196    195    200   1    110.7000    313.8000
    196    195    206   1    112.7000    488.2728
    200    195    206   1    110.7000    313.8000
    195    196    197   1    112.7000    488.2728
    195    196    201   1    110.7000    313.8000
    195    196    202   1    110.7000    313.8000
    197    196    201   1    110.7000    313.8000
    197    196    202   1    110.7000    313.8000
    201    196    202   1    107.8000    276.1440
    196    197    203   1    110.7000    313.8000
    196    197    204   1    110.7000    313.8000
    196    197    205   1    110.7000    313.8000
    203    197    204   1    107.8000    276.1440
    203    197    205   1    107.8000    276.1440
    204    197    205   1    107.8000    276.1440
    195    206    207   1    112.7000    488.2728
    195    206    210   1    110.7000    313.8000
    195    206    211   1    110.7000    313.8000
    207    206    210   1    110.7000    313.8000
    207    206    211   1    110.7000    313.8000
    210    206    211   1    107.8000    276.1440
    206    207    208   1    112.7000    488.2728
    206    207    212   1    110.7000    313.8000
    206    207    218   1    112.7000    488.2728
    208    207    212   1    110.7000    313.8000
    208    207    218   1    112.7000    488.2728
    212    207    218   1    110.7000    313.8000
    207    208    209   1    112.7000    488.2728
    207    208    213   1    110.7000    313.8000
    207    208    214   1    110.7000    313.8000
    209    208    213   1    110.7000    313.8000
    209    208    214   1    110.7000    313.8000
    213    208    214   1    107.8000    276.1440
    208    209    215   1    110.7000    313.8000
    208    209    216   1    110.7000    313.8000
    208    209    217   1    110.7000    313.8000
    215    209    216   1    107.8000    276.1440
    215    209    217   1    107.8000    276.1440
    216    209    217   1    107.8000    276.1440
    207    218    219   1    112.7000    488.2728
    207    218    222   1    110.7000    313.8000
    207    218    223   1    110.7000    313.8000
    219    218    222   1    110.7000    313.8000
    219    218    223   1    110.7000    313.8000
    222    218    223   1    107.8000    276.1440
    218    219    220   1    112.7000    488.2728
    218    219    224   1    110.7000    313.8000
    218    219    230   1    112.7000    488.2728
    220    219    224   1    110.7000    313.8000
    220    219    230   1    112.7000    488.2728
    224    219    230   1    110.7000    313.8000
    219    220    221   1    112.7000    488.2728
    219    220    225   1    110.7000    313.8000
    219    220    226   1    110.7000    313.8000
    221    220    225   1    110.7000    313.8000
    221    220    226   1    110.7000    313.8000
    225    220    226   1    107.8000    276.1440
    220    221    227   1    110.7000    313.8000
    220    221    228   1    110.7000    313.8000
    220    221    229   1    110.7000    313.8000
    227    221    228   1    107.8000    276.1440
    227    221    229   1    107.8000    276.1440
    228    221    229   1    107.8000    276.1440
    219    230    231   1    112.7000    488.2728
    219    230    234   1    110.7000    313.8000
    219    230    235   1    110.7000    313.8000
    231    230    234   1    110.7000    313.8000
    231    230    235   1    110.7000    313.8000
    234    230    235   1    107.8000    276.1440
    230    231    232   1    112.7000    488.2728
    230    231    236   1    110.7000    313.8000
    230    231    242   1    110.7000    313.8000
    232    231    236   1    110.7000    313.8000
    232    231    242   1    110.7000    313.8000
    236    231    242   1    107.8000    276.1440
    231    232    233   1    112.7000    488.2728
    231    232    237   1    110.7000    313.8000
    231    232    238   1    110.7000    313.8000
    233    232    237   1    110.7000    313.8000
    233    232    238   1    110.7000    313.8000
    237    232    238   1    107.8000    276.1440
    232    233    239   1    110.7000    313.8000
    232    233    240   1    110.7000    313.8000
    232    233    241   1    110.7000    313.8000
    239    233    240   1    107.8000    276.1440
    239    233    241   1    107.8000    276.1440
    240    233    241   1    107.8000    276.1440

[ dihedrals ]
; Proper dihedrals
      5      1      2      3   5     0.00000     0.00000     1.25520  0.0
      5      1      2      7   5     0.00000     0.00000     1.25520  0.0
      5      1      2     14   5     0.00000     0.00000     1.25520  0.0
      6      1      2      3   5     0.00000     0.00000     1.25520  0.0
      6      1      2      7   5     0.00000     0.00000     1.25520  0.0
      6      1      2     14   5     0.00000     0.00000     1.25520  0.0
     13      1      2      3   5     0.00000     0.00000     1.25520  0.0
     13      1      2      7   5     0.00000     0.00000     1.25520  0.0
     13      1      2     14   5     0.00000     0.00000     1.25520  0.0
      1      2      3      4   5     4.74884    -0.63178     1.67360  0.0
      1      2      3      8   5     0.00000     0.00000     1.25520  0.0
      1      2      3      9   5     0.00000     0.00000     1.25520  0.0
      7      2      3      4   5     0.00000     0.00000     1.25520  0.0
      7      2      3      8   5     0.00000     0.00000     1.25520  0.0
      7      2      3      9   5     0.00000     0.00000     1.25520  0.0
     14      2      3      4   5     4.74884    -0.63178     1.67360  0.0
     14      2      3      8   5     0.00000     0.00000     1.25520  0.0
     14      2      3      9   5     0.00000     0.00000     1.25520  0.0
      1      2     14     15   5     4.74884    -0.63178     1.67360  0.0
      1      2     14     18   5     0.00000     0.00000     1.25520  0.0
      1      2     14     19   5     0.00000     0.00000     1.25520  0.0
      3      2     14     15   5     4.74884    -0.63178     1.67360  0.0
      3      2     14     18   5     0.00000     0.00000     1.25520  0.0
      3      2     14     19   5     0.00000     0.00000     1.25520  0.0
      7      2     14     15   5     0.00000     0.00000     1.25520  0.0
      7      2     14     18   5     0.00000     0.00000     1.25520  0.0
      7      2     14     19   5     0.00000     0.00000     1.25520  0.0
      2      3      4     10   5     0.00000     0.00000     1.25520  0.0
      2      3      4     11   5     0.00000     0.00000     1.25520  0.0
      2      3      4     12   5     0.00000     0.00000     1.25520  0.0
      8      3      4     10   5     0.00000     0.00000     1.25520  0.0
      8      3      4     11   5     0.00000     0.00000     1.25520  0.0
      8      3      4     12   5     0.00000     0.00000     1.25520  0.0
      9      3      4     10   5     0.00000     0.00000     1.25520  0.0
      9      3      4     11   5     0.00000     0.00000     1.25520  0.0
      9      3      4     12   5     0.00000     0.00000     1.25520  0.0
      2     14     15     16   5     4.74884    -0.63178     1.67360  0.0
      2     14     15     20   5     0.00000     0.00000     1.25520  0.0
      2     14     15     26   5     4.74884    -0.63178     1.67360  0.0
     18     14     15     16   5     0.00000     0.00000     1.25520  0.0
     18     14     15     20   5     0.00000     0.00000     1.25520  0.0
     18     14     15     26   5     0.00000     0.00000     1.25520  0.0
     19     14     15     16   5     0.00000     0.00000     1.25520  0.0
     19     14     15     20   5     0.00000     0.00000     1.25520  0.0
     19     14     15     26   5     0.00000     0.00000     1.25520  0.0
     14     15     16     17   5     4.74884    -0.63178     1.67360  0.0
     14     15     16     21   5     0.00000     0.00000     1.25520  0.0
     14     15     16     22   5     0.00000     0.00000     1.25520  0.0
     20     15     16     17   5     0.00000     0.00000     1.25520  0.0
     20     15     16     21   5     0.00000     0.00000     1.25520  0.0
     20     15     16     22   5     0.00000     0.00000     1.25520  0.0
     26     15     16     17   5     4.74884    -0.63178     1.67360  0.0
     26     15     16     21   5     0.00000     0.00000     1.25520  0.0
     26     15     16     22   5     0.00000     0.00000     1.25520  0.0
     14     15     26     27   5     4.74884    -0.63178     1.67360  0.0
     14     15     26     30   5     0.00000     0.00000     1.25520  0.0
     14     15     26     31   5     0.00000     0.00000     1.25520  0.0
     16     15     26     27   5     4.74884    -0.63178     1.67360  0.0
     16     15     26     30   5     0.00000     0.00000     1.25520  0.0
     16     15     26     31   5     0.00000     0.00000     1.25520  0.0
     20     15     26     27   5     0.00000     0.00000     1.25520  0.0
     20     15     26     30   5     0.00000     0.00000     1.25520  0.0
     20     15     26     31   5     0.00000     0.00000     1.25520  0.0
     15     16     17     23   5     0.00000     0.00000     1.25520  0.0
     15     16     17     24   5     0.00000     0.00000     1.25520  0.0
     15     16     17     25   5     0.00000     0.00000     1.25520  0.0
     21     16     17     23   5     0.00000     0.00000     1.25520  0.0
     21     16     17     24   5     0.00000     0.00000     1.25520  0.0
     21     16     17     25   5     0.00000     0.00000     1.25520  0.0
     22     16     17     23   5     0.00000     0.00000     1.25520  0.0
     22     16     17     24   5     0.00000     0.00000     1.25520  0.0
     22     16     17     25   5     0.00000     0.00000     1.25520  0.0
     15     26     27     28   5     4.74884    -0.63178     1.67360  0.0
     15     26     27     32   5     0.00000     0.00000     1.25520  0.0
     15     26     27     38   5     4.74884    -0.63178     1.67360  0.0
     30     26     27     28   5     0.00000     0.00000     1.25520  0.0
     30     26     27     32   5     0.00000     0.00000     1.25520  0.0
     30     26     27     38   5     0.00000     0.00000     1.25520  0.0
     31     26     27     28   5     0.00000     0.00000     1.25520  0.0
     31     26     27     32   5     0.00000     0.00000     1.25520  0.0
     31     26     27     38   5     0.00000     0.00000     1.25520  0.0
     26     27     28     29   5     4.74884    -0.63178     1.67360  0.0
     26     27     28     33   5     0.00000     0.00000     1.25520  0.0
     26     27     28     34   5     0.00000     0.00000     1.25520  0.0
     32     27     28     29   5     0.00000     0.00000     1.25520  0.0
     32     27     28     33   5     0.00000     0.00000     1.25520  0.0
     32     27     28     34   5     0.00000     0.00000     1.25520  0.0
     38     27     28     29   5     4.74884    -0.63178     1.67360  0.0
     38     27     28     33   5     0.00000     0.00000     1.25520  0.0
     38     27     28     34   5     0.00000     0.00000     1.25520  0.0
     26     27     38     39   5     4.74884    -0.63178     1.67360  0.0
     26     27     38     42   5     0.00000     0.00000     1.25520  0.0
     26     27     38     43   5     0.00000     0.00000     1.25520  0.0
     28     27     38     39   5     4.74884    -0.63178     1.67360  0.0
     28     27     38     42   5     0.00000     0.00000     1.25520  0.0
     28     27     38     43   5     0.00000     0.00000     1.25520  0.0
     32     27     38     39   5     0.00000     0.00000     1.25520  0.0
     32     27     38     42   5     0.00000     0.00000     1.25520  0.0
     32     27     38     43   5     0.00000     0.00000     1.25520  0.0
     27     28     29     35   5     0.00000     0.00000     1.25520  0.0
     27     28     29     36   5     0.00000     0.00000     1.25520  0.0
     27     28     29     37   5     0.00000     0.00000     1.25520  0.0
     33     28     29     35   5     0.00000     0.00000     1.25520  0.0
     33     28     29     36   5     0.00000     0.00000     1.25520  0.0
     33     28     29     37   5     0.00000     0.00000     1.25520  0.0
     34     28     29     35   5     0.00000     0.00000     1.25520  0.0
     34     28     29     36   5     0.00000     0.00000     1.25520  0.0
     34     28     29     37   5     0.00000     0.00000     1.25520  0.0
     27     38     39     40   5     4.74884    -0.63178     1.67360  0.0
     27     38     39     44   5     0.00000     0.00000     1.25520  0.0
     27     38     39     50   5     4.74884    -0.63178     1.67360  0.0
     42     38     39     40   5     0.00000     0.00000     1.25520  0.0
     42     38     39     44   5     0.00000     0.00000     1.25520  0.0
     42     38     39     50   5     0.00000     0.00000     1.25520  0.0
     43     38     39     40   5     0.00000     0.00000     1.25520  0.0
     43     38     39     44   5     0.00000     0.00000     1.25520  0.0
     43     38     39     50   5     0.00000     0.00000     1.25520  0.0
     38     39     40     41   5     4.74884    -0.63178     1.67360  0.0
     38     39     40     45   5     0.00000     0.00000     1.25520  0.0
     38     39     40     46   5     0.00000     0.00000     1.25520  0.0
     44     39     40     41   5     0.00000     0.00000     1.25520  0.0
     44     39     40     45   5     0.00000     0.00000     1.25520  0.0
     44     39     40     46   5     0.00000     0.00000     1.25520  0.0
     50     39     40     41   5     4.74884    -0.63178     1.67360  0.0
     50     39     40     45   5     0.00000     0.00000     1.25520  0.0
     50     39     40     46   5     0.00000     0.00000     1.25520  0.0
     38     39     50     51   5     4.74884    -0.63178     1.67360  0.0
     38     39     50     54   5     0.00000     0.00000     1.25520  0.0
     38     39     50     55   5     0.00000     0.00000     1.25520  0.0
     40     39     50     51   5     4.74884    -0.63178     1.67360  0.0
     40     39     50     54   5     0.00000     0.00000     1.25520  0.0
     40     39     50     55   5     0.00000     0.00000     1.25520  0.0
     44     39     50     51   5     0.00000     0.00000     1.25520  0.0
     44     39     50     54   5     0.00000     0.00000     1.25520  0.0
     44     39     50     55   5     0.00000     0.00000     1.25520  0.0
     39     40     41     47   5     0.00000     0.00000     1.25520  0.0
     39     40     41     48   5     0.00000     0.00000     1.25520  0.0
     39     40     41     49   5     0.00000     0.00000     1.25520  0.0
     45     40     41     47   5     0.00000     0.00000     1.25520  0.0
     45     40     41     48   5     0.00000     0.00000     1.25520  0.0
     45     40     41     49   5     0.00000     0.00000     1.25520  0.0
     46     40     41     47   5     0.00000     0.00000     1.25520  0.0
     46     40     41     48   5     0.00000     0.00000     1.25520  0.0
     46     40     41     49   5     0.00000     0.00000     1.25520  0.0
     39     50     51     52   5     4.74884    -0.63178     1.67360  0.0
     39     50     51     56   5     0.00000     0.00000     1.25520  0.0
     39     50     51     62   5     4.74884    -0.63178     1.67360  0.0
     54     50     51     52   5     0.00000     0.00000     1.25520  0.0
     54     50     51     56   5     0.00000     0.00000     1.25520  0.0
     54     50     51     62   5     0.00000     0.00000     1.25520  0.0
     55     50     51     52   5     0.00000     0.00000     1.25520  0.0
     55     50     51     56   5     0.00000     0.00000     1.25520  0.0
     55     50     51     62   5     0.00000     0.00000     1.25520  0.0
     50     51     52     53   5     4.74884    -0.63178     1.67360  0.0
     50     51     52     57   5     0.00000     0.00000     1.25520  0.0
     50     51     52     58   5     0.00000     0.00000     1.25520  0.0
     56     51     52     53   5     0.00000     0.00000     1.25520  0.0
     56     51     52     57   5     0.00000     0.00000     1.25520  0.0
     56     51     52     58   5     0.00000     0.00000     1.25520  0.0
     62     51     52     53   5     4.74884    -0.63178     1.67360  0.0
     62     51     52     57   5     0.00000     0.00000     1.25520  0.0
     62     51     52     58   5     0.00000     0.00000     1.25520  0.0
     50     51     62     63   5     4.74884    -0.63178     1.67360  0.0
     50     51     62     66   5     0.00000     0.00000     1.25520  0.0
     50     51     62     67   5     0.00000     0.00000     1.25520  0.0
     52     51     62     63   5     4.74884    -0.63178     1.67360  0.0
     52     51     62     66   5     0.00000     0.00000     1.25520  0.0
     52     51     62     67   5     0.00000     0.00000     1.25520  0.0
     56     51     62     63   5     0.00000     0.00000     1.25520  0.0
     56     51     62     66   5     0.00000     0.00000     1.25520  0.0
     56     51     62     67   5     0.00000     0.00000     1.25520  0.0
     51     52     53     59   5     0.00000     0.00000     1.25520  0.0
     51     52     53     60   5     0.00000     0.00000     1.25520  0.0
     51     52     53     61   5     0.00000     0.00000     1.25520  0.0
     57     52     53     59   5     0.00000     0.00000     1.25520  0.0
     57     52     53     60   5     0.00000     0.00000     1.25520  0.0
     57     52     53     61   5     0.00000     0.00000     1.25520  0.0
     58     52     53     59   5     0.00000     0.00000     1.25520  0.0
     58     52     53     60   5     0.00000     0.00000     1.25520  0.0
     58     52     53     61   5     0.00000     0.00000     1.25520  0.0
     51     62     63     64   5     4.74884    -0.63178     1.67360  0.0
     51     62     63     68   5     0.00000     0.00000     1.25520  0.0
     51     62     63     74   5     4.74884    -0.63178     1.67360  0.0
     66     62     63     64   5     0.00000     0.00000     1.25520  0.0
     66     62     63     68   5     0.00000     0.00000     1.25520  0.0
     66     62     63     74   5     0.00000     0.00000     1.25520  0.0
     67     62     63     64   5     0.00000     0.00000     1.25520  0.0
     67     62     63     68   5     0.00000     0.00000     1.25520  0.0
     67     62     63     74   5     0.00000     0.00000     1.25520  0.0
     62     63     64     65   5     4.74884    -0.63178     1.67360  0.0
     62     63     64     69   5     0.00000     0.00000     1.25520  0.0
     62     63     64     70   5     0.00000     0.00000     1.25520  0.0
     68     63     64     65   5     0.00000     0.00000     1.25520  0.0
     68     63     64     69   5     0.00000     0.00000     1.25520  0.0
     68     63     64     70   5     0.00000     0.00000     1.25520  0.0
     74     63     64     65   5     4.74884    -0.63178     1.67360  0.0
     74     63     64     69   5     0.00000     0.00000     1.25520  0.0
     74     63     64     70   5     0.00000     0.00000     1.25520  0.0
     62     63     74     75   5     4.74884    -0.63178     1.67360  0.0
     62     63     74     78   5     0.00000     0.00000     1.25520  0.0
     62     63     74     79   5     0.00000     0.00000     1.25520  0.0
     64     63     74     75   5     4.74884    -0.63178     1.67360  0.0
     64     63     74     78   5     0.00000     0.00000     1.25520  0.0
     64     63     74     79   5     0.00000     0.00000     1.25520  0.0
     68     63     74     75   5     0.00000     0.00000     1.25520  0.0
     68     63     74     78   5     0.00000     0.00000     1.25520  0.0
     68     63     74     79   5     0.00000     0.00000     1.25520  0.0
     63     64     65     71   5     0.00000     0.00000     1.25520  0.0
     63     64     65     72   5     0.00000     0.00000     1.25520  0.0
     63     64     65     73   5     0.00000     0.00000     1.25520  0.0
     69     64     65     71   5     0.00000     0.00000     1.25520  0.0
     69     64     65     72   5     0.00000     0.00000     1.25520  0.0
     69     64     65     73   5     0.00000     0.00000     1.25520  0.0
     70     64     65     71   5     0.00000     0.00000     1.25520  0.0
     70     64     65     72   5     0.00000     0.00000     1.25520  0.0
     70     64     65     73   5     0.00000     0.00000     1.25520  0.0
     63     74     75     76   5     4.74884    -0.63178     1.67360  0.0
     63     74     75     80   5     0.00000     0.00000     1.25520  0.0
     63     74     75     86   5     4.74884    -0.63178     1.67360  0.0
     78     74     75     76   5     0.00000     0.00000     1.25520  0.0
     78     74     75     80   5     0.00000     0.00000     1.25520  0.0
     78     74     75     86   5     0.00000     0.00000     1.25520  0.0
     79     74     75     76   5     0.00000     0.00000     1.25520  0.0
     79     74     75     80   5     0.00000     0.00000     1.25520  0.0
     79     74     75     86   5     0.00000     0.00000     1.25520  0.0
     74     75     76     77   5     4.74884    -0.63178     1.67360  0.0
     74     75     76     81   5     0.00000     0.00000     1.25520  0.0
     74     75     76     82   5     0.00000     0.00000     1.25520  0.0
     80     75     76     77   5     0.00000     0.00000     1.25520  0.0
     80     75     76     81   5     0.00000     0.00000     1.25520  0.0
     80     75     76     82   5     0.00000     0.00000     1.25520  0.0
     86     75     76     77   5     4.74884    -0.63178     1.67360  0.0
     86     75     76     81   5     0.00000     0.00000     1.25520  0.0
     86     75     76     82   5     0.00000     0.00000     1.25520  0.0
     74     75     86     87   5     4.74884    -0.63178     1.67360  0.0
     74     75     86     90   5     0.00000     0.00000     1.25520  0.0
     74     75     86     91   5     0.00000     0.00000     1.25520  0.0
     76     75     86     87   5     4.74884    -0.63178     1.67360  0.0
     76     75     86     90   5     0.00000     0.00000     1.25520  0.0
     76     75     86     91   5     0.00000     0.00000     1.25520  0.0
     80     75     86     87   5     0.00000     0.00000     1.25520  0.0
     80     75     86     90   5     0.00000     0.00000     1.25520  0.0
     80     75     86     91   5     0.00000     0.00000     1.25520  0.0
     75     76     77     83   5     0.00000     0.00000     1.25520  0.0
     75     76     77     84   5     0.00000     0.00000     1.25520  0.0
     75     76     77     85   5     0.00000     0.00000     1.25520  0.0
     81     76     77     83   5     0.00000     0.00000     1.25520  0.0
     81     76     77     84   5     0.00000     0.00000     1.25520  0.0
     81     76     77     85   5     0.00000     0.00000     1.25520  0.0
     82     76     77     83   5     0.00000     0.00000     1.25520  0.0
     82     76     77     84   5     0.00000     0.00000     1.25520  0.0
     82     76     77     85   5     0.00000     0.00000     1.25520  0.0
     75     86     87     88   5     4.74884    -0.63178     1.67360  0.0
     75     86     87     92   5     0.00000     0.00000     1.25520  0.0
     75     86     87     98   5     4.74884    -0.63178     1.67360  0.0
     90     86     87     88   5     0.00000     0.00000     1.25520  0.0
     90     86     87     92   5     0.00000     0.00000     1.25520  0.0
     90     86     87     98   5     0.00000     0.00000     1.25520  0.0
     91     86     87     88   5     0.00000     0.00000     1.25520  0.0
     91     86     87     92   5     0.00000     0.00000     1.25520  0.0
     91     86     87     98   5     0.00000     0.00000     1.25520  0.0
     86     87     88     89   5     4.74884    -0.63178     1.67360  0.0
     86     87     88     93   5     0.00000     0.00000     1.25520  0.0
     86     87     88     94   5     0.00000     0.00000     1.25520  0.0
     92     87     88     89   5     0.00000     0.00000     1.25520  0.0
     92     87     88     93   5     0.00000     0.00000     1.25520  0.0
     92     87     88     94   5     0.00000     0.00000     1.25520  0.0
     98     87     88     89   5     4.74884    -0.63178     1.67360  0.0
     98     87     88     93   5     0.00000     0.00000     1.25520  0.0
     98     87     88     94   5     0.00000     0.00000     1.25520  0.0
     86     87     98     99   5     4.74884    -0.63178     1.67360  0.0
     86     87     98    102   5     0.00000     0.00000     1.25520  0.0
     86     87     98    103   5     0.00000     0.00000     1.25520  0.0
     88     87     98     99   5     4.74884    -0.63178     1.67360  0.0
     88     87     98    102   5     0.00000     0.00000     1.25520  0.0
     88     87     98    103   5     0.00000     0.00000     1.25520  0.0
     92     87     98     99   5     0.00000     0.00000     1.25520  0.0
     92     87     98    102   5     0.00000     0.00000     1.25520  0.0
     92     87     98    103   5     0.00000     0.00000     1.25520  0.0
     87     88     89     95   5     0.00000     0.00000     1.25520  0.0
     87     88     89     96   5     0.00000     0.00000     1.25520  0.0
     87     88     89     97   5     0.00000     0.00000     1.25520  0.0
     93     88     89     95   5     0.00000     0.00000     1.25520  0.0
     93     88     89     96   5     0.00000     0.00000     1.25520  0.0
     93     88     89     97   5     0.00000     0.00000     1.25520  0.0
     94     88     89     95   5     0.00000     0.00000     1.25520  0.0
     94     88     89     96   5     0.00000     0.00000     1.25520  0.0
     94     88     89     97   5     0.00000     0.00000     1.25520  0.0
     87     98     99    100   5     4.74884    -0.63178     1.67360  0.0
     87     98     99    104   5     0.00000     0.00000     1.25520  0.0
     87     98     99    110   5     4.74884    -0.63178     1.67360  0.0
    102     98     99    100   5     0.00000     0.00000     1.25520  0.0
    102     98     99    104   5     0.00000     0.00000     1.25520  0.0
    102     98     99    110   5     0.00000     0.00000     1.25520  0.0
    103     98     99    100   5     0.00000     0.00000     1.25520  0.0
    103     98     99    104   5     0.00000     0.00000     1.25520  0.0
    103     98     99    110   5     0.00000     0.00000     1.25520  0.0
     98     99    100    101   5     4.74884    -0.63178     1.67360  0.0
     98     99    100    105   5     0.00000     0.00000     1.25520  0.0
     98     99    100    106   5     0.00000     0.00000     1.25520  0.0
    104     99    100    101   5     0.00000     0.00000     1.25520  0.0
    104     99    100    105   5     0.00000     0.00000     1.25520  0.0
    104     99    100    106   5     0.00000     0.00000     1.25520  0.0
    110     99    100    101   5     4.74884    -0.63178     1.67360  0.0
    110     99    100    105   5     0.00000     0.00000     1.25520  0.0
    110     99    100    106   5     0.00000     0.00000     1.25520  0.0
     98     99    110    111   5     4.74884    -0.63178     1.67360  0.0
     98     99    110    114   5     0.00000     0.00000     1.25520  0.0
     98     99    110    115   5     0.00000     0.00000     1.25520  0.0
    100     99    110    111   5     4.74884    -0.63178     1.67360  0.0
    100     99    110    114   5     0.00000     0.00000     1.25520  0.0
    100     99    110    115   5     0.00000     0.00000     1.25520  0.0
    104     99    110    111   5     0.00000     0.00000     1.25520  0.0
    104     99    110    114   5     0.00000     0.00000     1.25520  0.0
    104     99    110    115   5     0.00000     0.00000     1.25520  0.0
     99    100    101    107   5     0.00000     0.00000     1.25520  0.0
     99    100    101    108   5     0.00000     0.00000     1.25520  0.0
     99    100    101    109   5     0.00000     0.00000     1.25520  0.0
    105    100    101    107   5     0.00000     0.00000     1.25520  0.0
    105    100    101    108   5     0.00000     0.00000     1.25520  0.0
    105    100    101    109   5     0.00000     0.00000     1.25520  0.0
    106    100    101    107   5     0.00000     0.00000     1.25520  0.0
    106    100    101    108   5     0.00000     0.00000     1.25520  0.0
    106    100    101    109   5     0.00000     0.00000     1.25520  0.0
     99    110    111    112   5     4.74884    -0.63178     1.67360  0.0
     99    110    111    116   5     0.00000     0.00000     1.25520  0.0
     99    110    111    122   5     4.74884    -0.63178     1.67360  0.0
    114    110    111    112   5     0.00000     0.00000     1.25520  0.0
    114    110    111    116   5     0.00000     0.00000     1.25520  0.0
    114    110    111    122   5     0.00000     0.00000     1.25520  0.0
    115    110    111    112   5     0.00000     0.00000     1.25520  0.0
    115    110    111    116   5     0.00000     0.00000     1.25520  0.0
    115    110    111    122   5     0.00000     0.00000     1.25520  0.0
    110    111    112    113   5     4.74884    -0.63178     1.67360  0.0
    110    111    112    117   5     0.00000     0.00000     1.25520  0.0
    110    111    112    118   5     0.00000     0.00000     1.25520  0.0
    116    111    112    113   5     0.00000     0.00000     1.25520  0.0
    116    111    112    117   5     0.00000     0.00000     1.25520  0.0
    116    111    112    118   5     0.00000     0.00000     1.25520  0.0
    122    111    112    113   5     4.74884    -0.63178     1.67360  0.0
    122    111    112    117   5     0.00000     0.00000     1.25520  0.0
    122    111    112    118   5     0.00000     0.00000     1.25520  0.0
    110    111    122    123   5     4.74884    -0.63178     1.67360  0.0
    110    111    122    126   5     0.00000     0.00000     1.25520  0.0
    110    111    122    127   5     0.00000     0.00000     1.25520  0.0
    112    111    122    123   5     4.74884    -0.63178     1.67360  0.0
    112    111    122    126   5     0.00000     0.00000     1.25520  0.0
    112    111    122    127   5     0.00000     0.00000     1.25520  0.0
    116    111    122    123   5     0.00000     0.00000     1.25520  0.0
    116    111    122    126   5     0.00000     0.00000     1.25520  0.0
    116    111    122    127   5     0.00000     0.00000     1.25520  0.0
    111    112    113    119   5     0.00000     0.00000     1.25520  0.0
    111    112    113    120   5     0.00000     0.00000     1.25520  0.0
    111    112    113    121   5     0.00000     0.00000     1.25520  0.0
    117    112    113    119   5     0.00000     0.00000     1.25520  0.0
    117    112    113    120   5     0.00000     0.00000     1.25520  0.0
    117    112    113    121   5     0.00000     0.00000     1.25520  0.0
    118    112    113    119   5     0.00000     0.00000     1.25520  0.0
    118    112    113    120   5     0.00000     0.00000     1.25520  0.0
    118    112    113    121   5     0.00000     0.00000     1.25520  0.0
    111    122    123    124   5     4.74884    -0.63178     1.67360  0.0
    111    122    123    128   5     0.00000     0.00000     1.25520  0.0
    111    122    123    134   5     4.74884    -0.63178     1.67360  0.0
    126    122    123    124   5     0.00000     0.00000     1.25520  0.0
    126    122    123    128   5     0.00000     0.00000     1.25520  0.0
    126    122    123    134   5     0.00000     0.00000     1.25520  0.0
    127    122    123    124   5     0.00000     0.00000     1.25520  0.0
    127    122    123    128   5     0.00000     0.00000     1.25520  0.0
    127    122    123    134   5     0.00000     0.00000     1.25520  0.0
    122    123    124    125   5     4.74884    -0.63178     1.67360  0.0
    122    123    124    129   5     0.00000     0.00000     1.25520  0.0
    122    123    124    130   5     0.00000     0.00000     1.25520  0.0
    128    123    124    125   5     0.00000     0.00000     1.25520  0.0
    128    123    124    129   5     0.00000     0.00000     1.25520  0.0
    128    123    124    130   5     0.00000     0.00000     1.25520  0.0
    134    123    124    125   5     4.74884    -0.63178     1.67360  0.0
    134    123    124    129   5     0.00000     0.00000     1.25520  0.0
    134    123    124    130   5     0.00000     0.00000     1.25520  0.0
    122    123    134    135   5     4.74884    -0.63178     1.67360  0.0
    122    123    134    138   5     0.00000     0.00000     1.25520  0.0
    122    123    134    139   5     0.00000     0.00000     1.25520  0.0
    124    123    134    135   5     4.74884    -0.63178     1.67360  0.0
    124    123    134    138   5     0.00000     0.00000     1.25520  0.0
    124    123    134    139   5     0.00000     0.00000     1.25520  0.0
    128    123    134    135   5     0.00000     0.00000     1.25520  0.0
    128    123    134    138   5     0.00000     0.00000     1.25520  0.0
    128    123    134    139   5     0.00000     0.00000     1.25520  0.0
    123    124    125    131   5     0.00000     0.00000     1.25520  0.0
    123    124    125    132   5     0.00000     0.00000     1.25520  0.0
    123    124    125    133   5     0.00000     0.00000     1.25520  0.0
    129    124    125    131   5     0.00000     0.00000     1.25520  0.0
    129    124    125    132   5     0.00000     0.00000     1.25520  0.0
    129    124    125    133   5     0.00000     0.00000     1.25520  0.0
    130    124    125    131   5     0.00000     0.00000     1.25520  0.0
    130    124    125    132   5     0.00000     0.00000     1.25520  0.0
    130    124    125    133   5     0.00000     0.00000     1.25520  0.0
    123    134    135    136   5     4.74884    -0.63178     1.67360  0.0
    123    134    135    140   5     0.00000     0.00000     1.25520  0.0
    123    134    135    146   5     4.74884    -0.63178     1.67360  0.0
    138    134    135    136   5     0.00000     0.00000     1.25520  0.0
    138    134    135    140   5     0.00000     0.00000     1.25520  0.0
    138    134    135    146   5     0.00000     0.00000     1.25520  0.0
    139    134    135    136   5     0.00000     0.00000     1.25520  0.0
    139    134    135    140   5     0.00000     0.00000     1.25520  0.0
    139    134    135    146   5     0.00000     0.00000     1.25520  0.0
    134    135    136    137   5     4.74884    -0.63178     1.67360  0.0
    134    135    136    141   5     0.00000     0.00000     1.25520  0.0
    134    135    136    142   5     0.00000     0.00000     1.25520  0.0
    140    135    136    137   5     0.00000     0.00000     1.25520  0.0
    140    135    136    141   5     0.00000     0.00000     1.25520  0.0
    140    135    136    142   5     0.00000     0.00000     1.25520  0.0
    146    135    136    137   5     4.74884    -0.63178     1.67360  0.0
    146    135    136    141   5     0.00000     0.00000     1.25520  0.0
    146    135    136    142   5     0.00000     0.00000     1.25520  0.0
    134    135    146    147   5     4.74884    -0.63178     1.67360  0.0
    134    135    146    150   5     0.00000     0.00000     1.25520  0.0
    134    135    146    151   5     0.00000     0.00000     1.25520  0.0
    136    135    146    147   5     4.74884    -0.63178     1.67360  0.0
    136    135    146    150   5     0.00000     0.00000     1.25520  0.0
    136    135    146    151   5     0.00000     0.00000     1.25520  0.0
    140    135    146    147   5     0.00000     0.00000     1.25520  0.0
    140    135    146    150   5     0.00000     0.00000     1.25520  0.0
    140    135    146    151   5     0.00000     0.00000     1.25520  0.0
    135    136    137    143   5     0.00000     0.00000     1.25520  0.0
    135    136    137    144   5     0.00000     0.00000     1.25520  0.0
    135    136    137    145   5     0.00000     0.00000     1.25520  0.0
    141    136    137    143   5     0.00000     0.00000     1.25520  0.0
    141    136    137    144   5     0.00000     0.00000     1.25520  0.0
    141    136    137    145   5     0.00000     0.00000     1.25520  0.0
    142    136    137    143   5     0.00000     0.00000     1.25520  0.0
    142    136    137    144   5     0.00000     0.00000     1.25520  0.0
    142    136    137    145   5     0.00000     0.00000     1.25520  0.0
    135    146    147    148   5     4.74884    -0.63178     1.67360  0.0
    135    146    147    152   5     0.00000     0.00000     1.25520  0.0
    135    146    147    158   5     4.74884    -0.63178     1.67360  0.0
    150    146    147    148   5     0.00000     0.00000     1.25520  0.0
    150    146    147    152   5     0.00000     0.00000     1.25520  0.0
    150    146    147    158   5     0.00000     0.00000     1.25520  0.0
    151    146    147    148   5     0.00000     0.00000     1.25520  0.0
    151    146    147    152   5     0.00000     0.00000     1.25520  0.0
    151    146    147    158   5     0.00000     0.00000     1.25520  0.0
    146    147    148    149   5     4.74884    -0.63178     1.67360  0.0
    146    147    148    153   5     0.00000     0.00000     1.25520  0.0
    146    147    148    154   5     0.00000     0.00000     1.25520  0.0
    152    147    148    149   5     0.00000     0.00000     1.25520  0.0
    152    147    148    153   5     0.00000     0.00000     1.25520  0.0
    152    147    148    154   5     0.00000     0.00000     1.25520  0.0
    158    147    148    149   5     4.74884    -0.63178     1.67360  0.0
    158    147    148    153   5     0.00000     0.00000     1.25520  0.0
    158    147    148    154   5     0.00000     0.00000     1.25520  0.0
    146    147    158    159   5     4.74884    -0.63178     1.67360  0.0
    146    147    158    162   5     0.00000     0.00000     1.25520  0.0
    146    147    158    163   5     0.00000     0.00000     1.25520  0.0
    148    147    158    159   5     4.74884    -0.63178     1.67360  0.0
    148    147    158    162   5     0.00000     0.00000     1.25520  0.0
    148    147    158    163   5     0.00000     0.00000     1.25520  0.0
    152    147    158    159   5     0.00000     0.00000     1.25520  0.0
    152    147    158    162   5     0.00000     0.00000     1.25520  0.0
    152    147    158    163   5     0.00000     0.00000     1.25520  0.0
    147    148    149    155   5     0.00000     0.00000     1.25520  0.0
    147    148    149    156   5     0.00000     0.00000     1.25520  0.0
    147    148    149    157   5     0.00000     0.00000     1.25520  0.0
    153    148    149    155   5     0.00000     0.00000     1.25520  0.0
    153    148    149    156   5     0.00000     0.00000     1.25520  0.0
    153    148    149    157   5     0.00000     0.00000     1.25520  0.0
    154    148    149    155   5     0.00000     0.00000     1.25520  0.0
    154    148    149    156   5     0.00000     0.00000     1.25520  0.0
    154    148    149    157   5     0.00000     0.00000     1.25520  0.0
    147    158    159    160   5     4.74884    -0.63178     1.67360  0.0
    147    158    159    164   5     0.00000     0.00000     1.25520  0.0
    147    158    159    170   5     4.74884    -0.63178     1.67360  0.0
    162    158    159    160   5     0.00000     0.00000     1.25520  0.0
    162    158    159    164   5     0.00000     0.00000     1.25520  0.0
    162    158    159    170   5     0.00000     0.00000     1.25520  0.0
    163    158    159    160   5     0.00000     0.00000     1.25520  0.0
    163    158    159    164   5     0.00000     0.00000     1.25520  0.0
    163    158    159    170   5     0.00000     0.00000     1.25520  0.0
    158    159    160    161   5     4.74884    -0.63178     1.67360  0.0
    158    159    160    165   5     0.00000     0.00000     1.25520  0.0
    158    159    160    166   5     0.00000     0.00000     1.25520  0.0
    164    159    160    161   5     0.00000     0.00000     1.25520  0.0
    164    159    160    165   5     0.00000     0.00000     1.25520  0.0
    164    159    160    166   5     0.00000     0.00000     1.25520  0.0
    170    159    160    161   5     4.74884    -0.63178     1.67360  0.0
    170    159    160    165   5     0.00000     0.00000     1.25520  0.0
    170    159    160    166   5     0.00000     0.00000     1.25520  0.0
    158    159    170    171   5     4.74884    -0.63178     1.67360  0.0
    158    159    170    174   5     0.00000     0.00000     1.25520  0.0
    158    159    170    175   5     0.00000     0.00000     1.25520  0.0
    160    159    170    171   5     4.74884    -0.63178     1.67360  0.0
    160    159    170    174   5     0.00000     0.00000     1.25520  0.0
    160    159    170    175   5     0.00000     0.00000     1.25520  0.0
    164    159    170    171   5     0.00000     0.00000     1.25520  0.0
    164    159    170    174   5     0.00000     0.00000     1.25520  0.0
    164    159    170    175   5     0.00000     0.00000     1.25520  0.0
    159    160    161    167   5     0.00000     0.00000     1.25520  0.0
    159    160    161    168   5     0.00000     0.00000     1.25520  0.0
    159    160    161    169   5     0.00000     0.00000     1.25520  0.0
    165    160    161    167   5     0.00000     0.00000     1.25520  0.0
    165    160    161    168   5     0.00000     0.00000     1.25520  0.0
    165    160    161    169   5     0.00000     0.00000     1.25520  0.0
    166    160    161    167   5     0.00000     0.00000     1.25520  0.0
    166    160    161    168   5     0.00000     0.00000     1.25520  0.0
    166    160    161    169   5     0.00000     0.00000     1.25520  0.0
    159    170    171    172   5     4.74884    -0.63178     1.67360  0.0
    159    170    171    176   5     0.00000     0.00000     1.25520  0.0
    159    170    171    182   5     4.74884    -0.63178     1.67360  0.0
    174    170    171    172   5     0.00000     0.00000     1.25520  0.0
    174    170    171    176   5     0.00000     0.00000     1.25520  0.0
    174    170    171    182   5     0.00000     0.00000     1.25520  0.0
    175    170    171    172   5     0.00000     0.00000     1.25520  0.0
    175    170    171    176   5     0.00000     0.00000     1.25520  0.0
    175    170    171    182   5     0.00000     0.00000     1.25520  0.0
    170    171    172    173   5     4.74884    -0.63178     1.67360  0.0
    170    171    172    177   5     0.00000     0.00000     1.25520  0.0
    170    171    172    178   5     0.00000     0.00000     1.25520  0.0
    176    171    172    173   5     0.00000     0.00000     1.25520  0.0
    176    171    172    177   5     0.00000     0.00000     1.25520  0.0
    176    171    172    178   5     0.00000     0.00000     1.25520  0.0
    182    171    172    173   5     4.74884    -0.63178     1.67360  0.0
    182    171    172    177   5     0.00000     0.00000     1.25520  0.0
    182    171    172    178   5     0.00000     0.00000     1.25520  0.0
    170    171    182    183   5     4.74884    -0.63178     1.67360  0.0
    170    171    182    186   5     0.00000     0.00000     1.25520  0.0
    170    171    182    187   5     0.00000     0.00000     1.25520  0.0
    172    171    182    183   5     4.74884    -0.63178     1.67360  0.0
    172    171    182    186   5     0.00000     0.00000     1.25520  0.0
    172    171    182    187   5     0.00000     0.00000     1.25520  0.0
    176    171    182    183   5     0.00000     0.00000     1.25520  0.0
    176    171    182    186   5     0.00000     0.00000     1.25520  0.0
    176    171    182    187   5     0.00000     0.00000     1.25520  0.0
    171    172    173    179   5     0.00000     0.00000     1.25520  0.0
    171    172    173    180   5     0.00000     0.00000     1.25520  0.0
    171    172    173    181   5     0.00000     0.00000     1.25520  0.0
    177    172    173    179   5     0.00000     0.00000     1.25520  0.0
    177    172    173    180   5     0.00000     0.00000     1.25520  0.0
    177    172    173    181   5     0.00000     0.00000     1.25520  0.0
    178    172    173    179   5     0.00000     0.00000     1.25520  0.0
    178    172    173    180   5     0.00000     0.00000     1.25520  0.0
    178    172    173    181   5     0.00000     0.00000     1.25520  0.0
    171    182    183    184   5     4.74884    -0.63178     1.67360  0.0
    171    182    183    188   5     0.00000     0.00000     1.25520  0.0
    171    182    183    194   5     4.74884    -0.63178     1.67360  0.0
    186    182    183    184   5     0.00000     0.00000     1.25520  0.0
    186    182    183    188   5     0.00000     0.00000     1.25520  0.0
    186    182    183    194   5     0.00000     0.00000     1.25520  0.0
    187    182    183    184   5     0.00000     0.00000     1.25520  0.0
    187    182    183    188   5     0.00000     0.00000     1.25520  0.0
    187    182    183    194   5     0.00000     0.00000     1.25520  0.0
    182    183    184    185   5     4.74884    -0.63178     1.67360  0.0
    182    183    184    189   5     0.00000     0.00000     1.25520  0.0
    182    183    184    190   5     0.00000     0.00000     1.25520  0.0
    188    183    184    185   5     0.00000     0.00000     1.25520  0.0
    188    183    184    189   5     0.00000     0.00000     1.25520  0.0
    188    183    184    190   5     0.00000     0.00000     1.25520  0.0
    194    183    184    185   5     4.74884    -0.63178     1.67360  0.0
    194    183    184    189   5     0.00000     0.00000     1.25520  0.0
    194    183    184    190   5     0.00000     0.00000     1.25520  0.0
    182    183    194    195   5     4.74884    -0.63178     1.67360  0.0
    182    183    194    198   5     0.00000     0.00000     1.25520  0.0
    182    183    194    199   5     0.00000     0.00000     1.25520  0.0
    184    183    194    195   5     4.74884    -0.63178     1.67360  0.0
    184    183    194    198   5     0.00000     0.00000     1.25520  0.0
    184    183    194    199   5     0.00000     0.00000     1.25520  0.0
    188    183    194    195   5     0.00000     0.00000     1.25520  0.0
    188    183    194    198   5     0.00000     0.00000     1.25520  0.0
    188    183    194    199   5     0.00000     0.00000     1.25520  0.0
    183    184    185    191   5     0.00000     0.00000     1.25520  0.0
    183    184    185    192   5     0.00000     0.00000     1.25520  0.0
    183    184    185    193   5     0.00000     0.00000     1.25520  0.0
    189    184    185    191   5     0.00000     0.00000     1.25520  0.0
    189    184    185    192   5     0.00000     0.00000     1.25520  0.0
    189    184    185    193   5     0.00000     0.00000     1.25520  0.0
    190    184    185    191   5     0.00000     0.00000     1.25520  0.0
    190    184    185    192   5     0.00000     0.00000     1.25520  0.0
    190    184    185    193   5     0.00000     0.00000     1.25520  0.0
    183    194    195    196   5     4.74884    -0.63178     1.67360  0.0
    183    194    195    200   5     0.00000     0.00000     1.25520  0.0
    183    194    195    206   5     4.74884    -0.63178     1.67360  0.0
    198    194    195    196   5     0.00000     0.00000     1.25520  0.0
    198    194    195    200   5     0.00000     0.00000     1.25520  0.0
    198    194    195    206   5     0.00000     0.00000     1.25520  0.0
    199    194    195    196   5     0.00000     0.00000     1.25520  0.0
    199    194    195    200   5     0.00000     0.00000     1.25520  0.0
    199    194    195    206   5     0.00000     0.00000     1.25520  0.0
    194    195    196    197   5     4.74884    -0.63178     1.67360  0.0
    194    195    196    201   5     0.00000     0.00000     1.25520  0.0
    194    195    196    202   5     0.00000     0.00000     1.25520  0.0
    200    195    196    197   5     0.00000     0.00000     1.25520  0.0
    200    195    196    201   5     0.00000     0.00000     1.25520  0.0
    200    195    196    202   5     0.00000     0.00000     1.25520  0.0
    206    195    196    197   5     4.74884    -0.63178     1.67360  0.0
    206    195    196    201   5     0.00000     0.00000     1.25520  0.0
    206    195    196    202   5     0.00000     0.00000     1.25520  0.0
    194    195    206    207   5     4.74884    -0.63178     1.67360  0.0
    194    195    206    210   5     0.00000     0.00000     1.25520  0.0
    194    195    206    211   5     0.00000     0.00000     1.25520  0.0
    196    195    206    207   5     4.74884    -0.63178     1.67360  0.0
    196    195    206    210   5     0.00000     0.00000     1.25520  0.0
    196    195    206    211   5     0.00000     0.00000     1.25520  0.0
    200    195    206    207   5     0.00000     0.00000     1.25520  0.0
    200    195    206    210   5     0.00000     0.00000     1.25520  0.0
    200    195    206    211   5     0.00000     0.00000     1.25520  0.0
    195    196    197    203   5     0.00000     0.00000     1.25520  0.0
    195    196    197    204   5     0.00000     0.00000     1.25520  0.0
    195    196    197    205   5     0.00000     0.00000     1.25520  0.0
    201    196    197    203   5     0.00000     0.00000     1.25520  0.0
    201    196    197    204   5     0.00000     0.00000     1.25520  0.0
    201    196    197    205   5     0.00000     0.00000     1.25520  0.0
    202    196    197    203   5     0.00000     0.00000     1.25520  0.0
    202    196    197    204   5     0.00000     0.00000     1.25520  0.0
    202    196    197    205   5     0.00000     0.00000     1.25520  0.0
    195    206    207    208   5     4.74884    -0.63178     1.67360  0.0
    195    206    207    212   5     0.00000     0.00000     1.25520  0.0
    195    206    207    218   5     4.74884    -0.63178     1.67360  0.0
    210    206    207    208   5     0.00000     0.00000     1.25520  0.0
    210    206    207    212   5     0.00000     0.00000     1.25520  0.0
    210    206    207    218   5     0.00000     0.00000     1.25520  0.0
    211    206    207    208   5     0.00000     0.00000     1.25520  0.0
    211    206    207    212   5     0.00000     0.00000     1.25520  0.0
    211    206    207    218   5     0.00000     0.00000     1.25520  0.0
    206    207    208    209   5     4.74884    -0.63178     1.67360  0.0
    206    207    208    213   5     0.00000     0.00000     1.25520  0.0
    206    207    208    214   5     0.00000     0.00000     1.25520  0.0
    212    207    208    209   5     0.00000     0.00000     1.25520  0.0
    212    207    208    213   5     0.00000     0.00000     1.25520  0.0
    212    207    208    214   5     0.00000     0.00000     1.25520  0.0
    218    207    208    209   5     4.74884    -0.63178     1.67360  0.0
    218    207    208    213   5     0.00000     0.00000     1.25520  0.0
    218    207    208    214   5     0.00000     0.00000     1.25520  0.0
    206    207    218    219   5     4.74884    -0.63178     1.67360  0.0
    206    207    218    222   5     0.00000     0.00000     1.25520  0.0
    206    207    218    223   5     0.00000     0.00000     1.25520  0.0
    208    207    218    219   5     4.74884    -0.63178     1.67360  0.0
    208    207    218    222   5     0.00000     0.00000     1.25520  0.0
    208    207    218    223   5     0.00000     0.00000     1.25520  0.0
    212    207    218    219   5     0.00000     0.00000     1.25520  0.0
    212    207    218    222   5     0.00000     0.00000     1.25520  0.0
    212    207    218    223   5     0.00000     0.00000     1.25520  0.0
    207    208    209    215   5     0.00000     0.00000     1.25520  0.0
    207    208    209    216   5     0.00000     0.00000     1.25520  0.0
    207    208    209    217   5     0.00000     0.00000     1.25520  0.0
    213    208    209    215   5     0.00000     0.00000     1.25520  0.0
    213    208    209    216   5     0.00000     0.00000     1.25520  0.0
    213    208    209    217   5     0.00000     0.00000     1.25520  0.0
    214    208    209    215   5     0.00000     0.00000     1.25520  0.0
    214    208    209    216   5     0.00000     0.00000     1.25520  0.0
    214    208    209    217   5     0.00000     0.00000     1.25520  0.0
    207    218    219    220   5     4.74884    -0.63178     1.67360  0.0
    207    218    219    224   5     0.00000     0.00000     1.25520  0.0
    207    218    219    230   5     4.74884    -0.63178     1.67360  0.0
    222    218    219    220   5     0.00000     0.00000     1.25520  0.0
    222    218    219    224   5     0.00000     0.00000     1.25520  0.0
    222    218    219    230   5     0.00000     0.00000     1.25520  0.0
    223    218    219    220   5     0.00000     0.00000     1.25520  0.0
    223    218    219    224   5     0.00000     0.00000     1.25520  0.0
    223    218    219    230   5     0.00000     0.00000     1.25520  0.0
    218    219    220    221   5     4.74884    -0.63178     1.67360  0.0
    218    219    220    225   5     0.00000     0.00000     1.25520  0.0
    218    219    220    226   5     0.00000     0.00000     1.25520  0.0
    224    219    220    221   5     0.00000     0.00000     1.25520  0.0
    224    219    220    225   5     0.00000     0.00000     1.25520  0.0
    224    219    220    226   5     0.00000     0.00000     1.25520  0.0
    230    219    220    221   5     4.74884    -0.63178     1.67360  0.0
    230    219    220    225   5     0.00000     0.00000     1.25520  0.0
    230    219    220    226   5     0.00000     0.00000     1.25520  0.0
    218    219    230    231   5     4.74884    -0.63178     1.67360  0.0
    218    219    230    234   5     0.00000     0.00000     1.25520  0.0
    218    219    230    235   5     0.00000     0.00000     1.25520  0.0
    220    219    230    231   5     4.74884    -0.63178     1.67360  0.0
    220    219    230    234   5     0.00000     0.00000     1.25520  0.0
    220    219    230    235   5     0.00000     0.00000     1.25520  0.0
    224    219    230    231   5     0.00000     0.00000     1.25520  0.0
    224    219    230    234   5     0.00000     0.00000     1.25520  0.0
    224    219    230    235   5     0.00000     0.00000     1.25520  0.0
    219    220    221    227   5     0.00000     0.00000     1.25520  0.0
    219    220    221    228   5     0.00000     0.00000     1.25520  0.0
    219    220    221    229   5     0.00000     0.00000     1.25520  0.0
    225    220    221    227   5     0.00000     0.00000     1.25520  0.0
    225    220    221    228   5     0.00000     0.00000     1.25520  0.0
    225    220    221    229   5     0.00000     0.00000     1.25520  0.0
    226    220    221    227   5     0.00000     0.00000     1.25520  0.0
    226    220    221    228   5     0.00000     0.00000     1.25520  0.0
    226    220    221    229   5     0.00000     0.00000     1.25520  0.0
    219    230    231    232   5     4.74884    -0.63178     1.67360  0.0
    219    230    231    236   5     0.00000     0.00000     1.25520  0.0
    219    230    231    242   5     0.00000     0.00000     1.25520  0.0
    234    230    231    232   5     0.00000     0.00000     1.25520  0.0
    234    230    231    236   5     0.00000     0.00000     1.25520  0.0
    234    230    231    242   5     0.00000     0.00000     1.25520  0.0
    235    230    231    232   5     0.00000     0.00000     1.25520  0.0
    235    230    231    236   5     0.00000     0.00000     1.25520  0.0
    235    230    231    242   5     0.00000     0.00000     1.25520  0.0
    230    231    232    233   5     4.74884    -0.63178     1.67360  0.0
    230    231    232    237   5     0.00000     0.00000     1.25520  0.0
    230    231    232    238   5     0.00000     0.00000     1.25520  0.0
    236    231    232    233   5     0.00000     0.00000     1.25520  0.0
    236    231    232    237   5     0.00000     0.00000     1.25520  0.0
    236    231    232    238   5     0.00000     0.00000     1.25520  0.0
    242    231    232    233   5     0.00000     0.00000     1.25520  0.0
    242    231    232    237   5     0.00000     0.00000     1.25520  0.0
    242    231    232    238   5     0.00000     0.00000     1.25520  0.0
    231    232    233    239   5     0.00000     0.00000     1.25520  0.0
    231    232    233    240   5     0.00000     0.00000     1.25520  0.0
    231    232    233    241   5     0.00000     0.00000     1.25520  0.0
    237    232    233    239   5     0.00000     0.00000     1.25520  0.0
    237    232    233    240   5     0.00000     0.00000     1.25520  0.0
    237    232    233    241   5     0.00000     0.00000     1.25520  0.0
    238    232    233    239   5     0.00000     0.00000     1.25520  0.0
    238    232    233    240   5     0.00000     0.00000     1.25520  0.0
    238    232    233    241   5     0.00000     0.00000     1.25520  0.0
