Control file title. For DL_FIELD 4.10
49852
    1MOL     C1    1   6.256   1.313   0.289  0.2276  0.8087  0.5196
    1MOL     C2    2   6.120   1.253   0.326  0.2373  1.2120  0.7948
    1MOL     C3    3   6.009   1.353   0.285 -0.4877 -0.1446 -0.3616
    1MOL     C4    4   6.007   1.384   0.135 -0.4386 -0.3980 -0.0052
    1MOL     H5    5   6.277   1.410   0.333 -0.0791 -0.0503  2.5905
    1MOL     H6    6   6.334   1.241   0.313 -0.6067 -0.9167 -1.7086
    1MOL     H7    7   6.109   1.160   0.270 -0.1136  1.2426  0.8075
    1MOL     H8    8   6.036   1.444   0.340 -0.0449 -0.5096  0.0283
    1MOL     H9    9   5.908   1.337   0.321 -1.1982  3.3796 -0.6402
    1MOL    H10   10   5.914   1.440   0.117 -1.5462 -1.9948  0.6621
    1MOL    H11   11   6.094   1.442   0.106  0.2585 -1.0421  0.7942
    1MOL    H12   12   6.019   1.294   0.075 -0.0562 -0.5091  0.2395
    1MOL    H13   13   6.260   1.324   0.180 -0.7526 -1.2645  0.2506
    1MOL    C14   14   6.129   1.218   0.477 -0.4593 -0.1861 -0.4340
    1MOL    C15   15   6.162   1.074   0.522  0.4723 -0.0036 -0.1841
    1MOL    C16   16   6.040   0.982   0.484  0.1031  0.9818 -0.6778
    1MOL    C17   17   6.072   0.833   0.490  0.0872  0.0002 -0.0985
    1MOL    H18   18   6.041   1.249   0.534  0.1755 -1.0120  1.0241
    1MOL    H19   19   6.201   1.287   0.521  0.0880 -1.7273  1.1890
    1MOL    H20   20   6.243   1.042   0.457 -2.7817 -2.7062 -3.1047
    1MOL    H21   21   6.007   1.000   0.382  0.9399 -1.3680 -1.3959
    1MOL    H22   22   5.951   1.008   0.541 -1.1991 -1.4756 -1.4917
    1MOL    H23   23   6.103   0.800   0.589 -3.3587  2.3941  1.8727
    1MOL    H24   24   5.988   0.772   0.455 -0.1994  0.6410 -0.5271
    1MOL    H25   25   6.158   0.810   0.428 -0.3137 -0.0532 -0.6384
    1MOL    C26   26   6.203   1.057   0.669  0.2068 -0.2195  0.0971
    1MOL    C27   27   6.331   1.135   0.713  0.2894  0.3172  0.2350
    1MOL    C28   28   6.459   1.083   0.648  0.8201  0.1986 -0.0593
    1MOL    C29   29   6.506   0.942   0.687 -0.3118  0.7957 -0.2779
    1MOL    H30   30   6.229   0.954   0.694 -1.1017 -0.0322  2.4563
    1MOL    H31   31   6.117   1.085   0.731  2.4307 -0.5168  3.4478
    1MOL    H32   32   6.322   1.242   0.693 -0.1375  0.2066 -0.1708
    1MOL    H33   33   6.537   1.158   0.663 -0.1470  1.0487  0.8309
    1MOL    H34   34   6.451   1.079   0.540 -1.6838 -2.9959  0.1603
    1MOL    H35   35   6.436   0.862   0.661 -0.6171  0.7573  0.6731
    1MOL    H36   36   6.594   0.909   0.631 -1.6624 -0.6669 -1.5963
    1MOL    H37   37   6.545   0.926   0.787 -1.3698 -0.7976 -0.0972
    1MOL    C38   38   6.331   1.141   0.869  0.1718  0.8336 -0.1908
    1MOL    C39   39   6.423   1.234   0.936 -0.5957 -0.0418  0.4247
    1MOL    C40   40   6.421   1.194   1.086  0.7064  0.0747 -0.5826
    1MOL    C41   41   6.498   1.057   1.123 -0.4225 -0.1922 -0.1247
    1MOL    H42   42   6.331   1.038   0.906 -0.3817  1.6406  2.1356
    1MOL    H43   43   6.232   1.170   0.903  0.4199  0.4086  0.9344
    1MOL    H44   44   6.519   1.211   0.890 -0.2294  0.2773  1.0330
    1MOL    H45   45   6.318   1.190   1.122  0.2447 -0.8280 -1.9598
    1MOL    H46   46   6.462   1.271   1.151  0.1490  2.1715 -2.6524
    1MOL    H47   47   6.510   1.060   1.231  2.6674  2.3113 -0.4689
    1MOL    H48   48   6.439   0.975   1.081 -0.0396 -0.6857  0.2950
    1MOL    H49   49   6.597   1.057   1.078 -1.9639  1.4305 -3.6988
    1MOL    C50   50   6.391   1.389   0.919  0.3674 -0.3443  0.2151
    1MOL    C51   51   6.487   1.495   0.985 -0.2664  0.4374  0.0729
    1MOL    C52   52   6.399   1.569   1.089  0.1667  0.5807 -0.8435
    1MOL    C53   53   6.474   1.667   1.178 -0.4060 -0.7149 -0.4092
    1MOL    H54   54   6.286   1.398   0.944  0.9538  0.9770  2.3570
    1MOL    H55   55   6.391   1.408   0.811  3.7463  4.3757  0.9132
    1MOL    H56   56   6.564   1.433   1.031 -0.2927  0.4343  0.1120
    1MOL    H57   57   6.347   1.501   1.156  1.1259  0.5875 -0.0661
    1MOL    H58   58   6.330   1.638   1.041  0.1902  0.7195 -0.6812
    1MOL    H59   59   6.415   1.718   1.255 -0.2461 -3.0895  1.3592
    1MOL    H60   60   6.553   1.616   1.233 -1.2042  0.2898  1.7225
    1MOL    H61   61   6.525   1.741   1.117 -0.4668  0.9122  1.4662
    1MOL    C62   62   6.550   1.592   0.882 -0.2004  0.6730 -0.3450
    1MOL    C63   63   6.636   1.515   0.768  0.0284 -0.4313 -0.3091
    1MOL    C64   64   6.752   1.426   0.825 -0.5068 -0.0401 -0.2136
    1MOL    C65   65   6.857   1.497   0.903 -0.0277 -0.0651  0.3881
    1MOL    H66   66   6.623   1.661   0.924 -1.7872  3.0992 -1.4716
    1MOL    H67   67   6.466   1.647   0.840 -1.4098 -1.1071 -0.3219
    1MOL    H68   68   6.572   1.446   0.712  0.1975  0.2689 -1.3979
    1MOL    H69   69   6.796   1.366   0.746  0.7251 -1.2834  1.3753
    1MOL    H70   70   6.703   1.361   0.898  0.7350 -0.8005 -0.0496
    1MOL    H71   71   6.933   1.433   0.948 -1.4662 -3.4618 -1.8129
    1MOL    H72   72   6.911   1.574   0.847  2.4934 -0.8901  1.6186
    1MOL    H73   73   6.803   1.547   0.983 -1.6831  0.3882 -0.9885
    1MOL    C74   74   6.696   1.615   0.659 -0.0046 -0.1878  0.7038
    1MOL    C75   75   6.590   1.659   0.551 -0.2594  0.5055 -0.2286
    1MOL    C76   76   6.564   1.559   0.438 -0.2711  0.3032 -0.2815
    1MOL    C77   77   6.690   1.502   0.360  0.9969  0.0729  1.0867
    1MOL    H78   78   6.786   1.574   0.613 -0.7810 -0.5129 -0.5616
    1MOL    H79   79   6.745   1.701   0.704  1.8866 -0.7248 -0.2827
    1MOL    H80   80   6.490   1.663   0.594 -0.0431  2.0436  0.1638
    1MOL    H81   81   6.505   1.609   0.361  2.3647 -0.1289 -2.6883
    1MOL    H82   82   6.502   1.474   0.465  2.3512 -1.1746  1.3427
    1MOL    H83   83   6.745   1.578   0.304 -2.1776  1.3635 -0.3928
    1MOL    H84   84   6.773   1.455   0.413  3.3104  2.2374 -0.4720
    1MOL    H85   85   6.651   1.424   0.295 -0.1755  0.9198  0.7670
    1MOL    C86   86   6.619   1.798   0.485  0.1449 -0.2612 -0.7587
    1MOL    C87   87   6.627   1.921   0.580 -0.6461  0.3908  0.2744
    1MOL    C88   88   6.489   1.953   0.633 -0.1262 -0.1207 -0.0447
    1MOL    C89   89   6.466   2.042   0.754 -0.1072 -0.9197 -0.1302
    1MOL    H90   90   6.545   1.815   0.407  0.2912  3.6060 -0.1543
    1MOL    H91   91   6.717   1.790   0.438 -0.6741  1.2807 -2.7950
    1MOL    H92   92   6.701   1.904   0.658 -0.7426  1.2917  0.5644
    1MOL    H93   93   6.434   1.860   0.651  2.2292 -1.9194 -1.7893
    1MOL    H94   94   6.427   1.989   0.551  0.1226 -0.7427 -0.5112
    1MOL    H95   95   6.531   2.034   0.841 -0.6781  1.2999  0.5363
    1MOL    H96   96   6.492   2.144   0.724  0.3455 -0.9020  0.3204
    1MOL    H97   97   6.362   2.035   0.785 -0.0199  0.5596  0.5551
    1MOL    C98   98   6.677   2.049   0.504 -0.7231  0.1226 -0.1112
    1MOL    C99   99   6.810   2.034   0.424 -0.4371 -0.4535  0.0631
    1MOL   C100  100   6.934   2.001   0.503 -0.1426 -0.4799  0.4097
    1MOL   C101  101   6.983   1.850   0.495 -0.2660  0.4374 -0.1622
    1MOL   H102  102   6.678   2.129   0.578 -1.4950 -0.6999  0.7936
    1MOL   H103  103   6.595   2.070   0.436  0.2656 -0.0440 -1.3854
    1MOL   H104  104   6.795   1.960   0.345 -2.3227 -0.5565  0.4927
    1MOL   H105  105   6.917   2.039   0.604 -1.9614 -0.7003  0.2055
    1MOL   H106  106   7.020   2.058   0.468  0.0016 -0.8316  0.1904
    1MOL   H107  107   6.987   1.828   0.389 -0.5667  3.2592 -0.7912
    1MOL   H108  108   7.082   1.828   0.534 -0.3488  0.4191  0.0414
    1MOL   H109  109   6.923   1.776   0.547  0.7368 -0.2155  0.0760
    1MOL   C110  110   6.840   2.167   0.347  0.1317 -0.1631 -0.1508
    1MOL   C111  111   6.729   2.236   0.269 -0.5387  0.1878 -0.5614
    1MOL   C112  112   6.780   2.279   0.126 -0.3562  0.0563 -0.3876
    1MOL   C113  113   6.795   2.161   0.032  0.4927  0.0175 -0.4025
    1MOL   H114  114   6.920   2.147   0.275  0.0396 -0.1973 -0.2444
    1MOL   H115  115   6.894   2.234   0.413  0.9954 -0.2973 -0.7192
    1MOL   H116  116   6.644   2.170   0.255 -1.0120  0.9461 -1.3116
    1MOL   H117  117   6.870   2.339   0.135  0.1892 -0.8013 -0.1164
    1MOL   H118  118   6.703   2.337   0.074  0.6207  0.8827 -0.9233
    1MOL   H119  119   6.856   2.081   0.073  0.6233 -0.8491 -2.2385
    1MOL   H120  120   6.697   2.115   0.021  0.2414  0.4520  0.0124
    1MOL   H121  121   6.833   2.184   7.638  1.1143 -3.9695 -1.1571
    1MOL   C122  122   6.684   2.354   0.361 -0.6396  0.0786  0.1263
    1MOL   C123  123   6.544   2.409   0.323  0.3589 -0.8296 -0.0509
    1MOL   C124  124   6.516   2.524   0.420 -0.1531  0.5183  0.1492
    1MOL   C125  125   6.592   2.656   0.379 -0.0276  0.1702  0.6566
    1MOL   H126  126   6.760   2.432   0.359 -1.7593  1.1717 -2.0526
    1MOL   H127  127   6.675   2.321   0.464 -1.9611 -2.3611 -0.7133
    1MOL   H128  128   6.519   2.426   0.218  0.0518  1.0849  0.3033
    1MOL   H129  129   6.537   2.497   0.523  0.2098  0.1103 -0.0292
    1MOL   H130  130   6.408   2.541   0.417 -0.1491  0.4278 -3.5001
    1MOL   H131  131   6.552   2.666   0.278 -0.7453 -1.1351  0.7996
    1MOL   H132  132   6.562   2.742   0.439  0.0008  0.6433 -0.0052
    1MOL   H133  133   6.699   2.641   0.365 -0.0962 -1.9661  2.1790
    1MOL   C134  134   6.433   2.309   0.354 -0.2246  0.5289  0.8792
    1MOL   C135  135   6.296   2.342   0.278  0.6102  0.5237 -0.5546
    1MOL   C136  136   6.182   2.259   0.346 -0.4685 -0.3482 -0.8548
    1MOL   C137  137   6.114   2.337   0.462  0.3500  0.3125 -0.3736
    1MOL   H138  138   6.410   2.313   0.460 -3.3351 -2.0280  0.3775
    1MOL   H139  139   6.455   2.205   0.331 -0.7554  0.8537 -1.2110
    1MOL   H140  140   6.266   2.447   0.276  0.7327  0.5873  0.6156
    1MOL   H141  141   6.216   2.160   0.378 -0.2987 -0.4369 -1.3114
    1MOL   H142  142   6.101   2.250   0.274 -1.3943 -0.0097  0.1273
    1MOL   H143  143   6.051   2.414   0.416 -1.8753  0.3311  2.5193
    1MOL   H144  144   6.072   2.271   0.538  0.9149  0.4764  0.0811
    1MOL   H145  145   6.184   2.403   0.511  0.6321  0.3006 -0.7617
    1MOL   C146  146   6.289   2.323   0.126  0.8571  0.1046  0.3444
    1MOL   C147  147   6.290   2.178   0.074  0.4869  0.1224 -1.1965
    1MOL   C148  148   6.430   2.121   0.058 -0.1812 -0.4091 -0.3806
    1MOL   C149  149   6.437   1.984   0.127 -0.0672 -0.9855  0.1464
    1MOL   H150  150   6.348   2.397   0.071  1.2354  0.7090  1.5552
    1MOL   H151  151   6.188   2.356   0.102  1.9259  2.3728 -1.3014
    1MOL   H152  152   6.240   2.112   0.145  2.2833 -1.7867 -1.6637
    1MOL   H153  153   6.489   2.199   0.105 -3.5034  2.4320 -0.7052
    1MOL   H154  154   6.470   2.119   7.663 -0.7617 -1.3277 -0.6025
    1MOL   H155  155   6.535   1.935   0.130  1.1214  1.3195 -0.4667
    1MOL   H156  156   6.390   1.986   0.225 -1.2034 -0.6141 -0.4025
    1MOL   H157  157   6.370   1.914   0.078 -2.0990  0.5091  0.7461
    1MOL   C158  158   6.223   2.171   7.637 -0.2751 -0.1018 -0.2203
    1MOL   C159  159   6.066   2.175   7.636  0.4036  0.1715 -0.4822
    1MOL   C160  160   5.998   2.063   0.010  0.5442 -0.1320  0.0618
    1MOL   C161  161   5.843   2.075   7.705 -0.4671  0.2215 -0.1224
    1MOL   H162  162   6.246   2.077   7.588  2.5015  0.5745 -0.3311
    1MOL   H163  163   6.262   2.243   7.565 -1.8257  3.0323  1.9255
    1MOL   H164  164   6.031   2.264   7.689  2.1340  0.3045  0.4725
    1MOL   H165  165   6.032   2.067   0.114 -3.1653 -0.2028  1.3766
    1MOL   H166  166   6.038   1.968   7.681 -0.6390 -0.6822  0.1785
    1MOL   H167  167   5.800   2.056   7.606 -1.6132  0.9270  0.2265
    1MOL   H168  168   5.796   2.006   0.069  0.0227  0.7384  0.7217
    1MOL   H169  169   5.813   2.172   0.039  2.5798  1.1851 -0.0924
    1MOL   C170  170   6.027   2.177   7.488 -0.1277  0.7016  0.3493
    1MOL   C171  171   6.054   2.307   7.395 -0.8027 -0.2524  0.3126
    1MOL   C172  172   6.015   2.436   7.467 -0.9401  0.3000  0.0039
    1MOL   C173  173   5.875   2.450   7.523  0.9467 -0.1425  0.1179
    1MOL   H174  174   5.920   2.154   7.481 -0.1820  1.5525 -2.2901
    1MOL   H175  175   6.077   2.093   7.440 -2.6450 -0.6337 -0.0186
    1MOL   H176  176   6.160   2.316   7.372 -0.1737  0.9610  3.5043
    1MOL   H177  177   6.039   2.520   7.403 -1.5588 -0.5902 -1.4281
    1MOL   H178  178   6.085   2.439   7.551 -1.1694 -0.8155  0.2465
    1MOL   H179  179   5.864   2.551   7.562  1.1912  1.4484 -3.7434
    1MOL   H180  180   5.808   2.437   7.438  0.3939  1.1983  0.3365
    1MOL   H181  181   5.855   2.384   7.608 -0.7650 -1.8261 -1.5469
    1MOL   C182  182   5.991   2.292   7.257  0.2890  0.8980 -0.2513
    1MOL   C183  183   6.054   2.202   7.153 -1.5745 -0.6956  0.4626
    1MOL   C184  184   6.200   2.243   7.109 -0.0861  0.0441 -0.3944
    1MOL   C185  185   6.210   2.391   7.071 -0.0512  0.1461  0.0352
    1MOL   H186  186   5.984   2.392   7.215 -0.6053  0.4510 -1.1839
    1MOL   H187  187   5.883   2.275   7.266 -0.0088  1.1533 -3.0529
    1MOL   H188  188   6.081   2.109   7.202  1.1722  0.8982  2.1014
    1MOL   H189  189   6.227   2.171   7.032  1.8913  0.2269  0.1097
    1MOL   H190  190   6.264   2.217   7.193  2.7052  2.8596 -1.5605
    1MOL   H191  191   6.149   2.399   6.981  1.1701 -1.0524 -0.9369
    1MOL   H192  192   6.173   2.461   7.145 -0.2313  0.2540 -0.1572
    1MOL   H193  193   6.315   2.412   7.050 -0.0678  0.4134  0.2231
    1MOL   C194  194   5.963   2.184   7.033 -0.3564 -0.8840 -0.8231
    1MOL   C195  195   5.849   2.079   7.050 -0.1200  0.6415 -0.0441
    1MOL   C196  196   5.886   1.936   7.106 -0.2356 -0.3038  0.2234
    1MOL   C197  197   5.978   1.847   7.027  0.3494 -0.1478 -0.3728
    1MOL   H198  198   6.022   2.137   6.954  1.2773  0.1323 -0.2354
    1MOL   H199  199   5.927   2.282   7.002 -0.3540 -0.5874  0.1109
    1MOL   H200  200   5.784   2.114   7.131  1.8463 -1.0755  2.3675
    1MOL   H201  201   5.799   1.874   7.126 -1.3823  0.5811 -1.8823
    1MOL   H202  202   5.939   1.948   7.201  0.2638  0.4772 -0.1478
    1MOL   H203  203   6.069   1.901   7.000 -0.3802  1.7818  0.8663
    1MOL   H204  204   6.008   1.763   7.089  0.6392 -0.8499 -1.4722
    1MOL   H205  205   5.922   1.814   6.940  0.1392 -2.9655  0.7920
    1MOL   C206  206   5.750   2.060   6.929  0.5815  0.4869 -0.4629
    1MOL   C207  207   5.666   2.182   6.888 -0.2626 -0.4396 -0.3294
    1MOL   C208  208   5.576   2.224   7.007 -1.0659  0.0716 -0.0719
    1MOL   C209  209   5.451   2.131   7.034  0.6111  0.0478  0.3723
    1MOL   H210  210   5.686   1.975   6.948  0.1033  1.7242  3.9630
    1MOL   H211  211   5.803   2.028   6.839  0.6058  0.6146 -0.4938
    1MOL   H212  212   5.742   2.260   6.877 -0.6681  0.0567  0.3277
    1MOL   H213  213   5.555   2.330   6.999 -1.6258 -0.1128 -1.2332
    1MOL   H214  214   5.630   2.232   7.101  1.4601 -0.6329 -1.4290
    1MOL   H215  215   5.482   2.026   7.041  1.0774  0.0043 -1.9799
    1MOL   H216  216   5.411   2.156   7.133  1.3091  1.7174  0.2507
    1MOL   H217  217   5.373   2.143   6.960 -0.0027  0.5876  1.0955
    1MOL   C218  218   5.578   2.164   6.756 -0.2793  0.0280 -0.4257
    1MOL   C219  219   5.490   2.284   6.720 -0.6016 -0.3968  0.0253
    1MOL   C220  220   5.377   2.252   6.617 -0.1473 -0.1848 -0.4598
    1MOL   C221  221   5.412   2.188   6.481 -0.0802 -0.1764 -0.8367
    1MOL   H222  222   5.517   2.078   6.783  0.1444 -0.0529  0.2746
    1MOL   H223  223   5.637   2.125   6.673 -0.0490 -2.2006  0.7385
    1MOL   H224  224   5.445   2.320   6.813  3.3651  0.1369  1.8393
    1MOL   H225  225   5.316   2.340   6.599 -2.5209 -1.7640 -0.4193
    1MOL   H226  226   5.303   2.193   6.671 -0.5216  0.4605 -0.2631
    1MOL   H227  227   5.514   2.210   6.447 -0.3861 -1.0159 -2.3260
    1MOL   H228  228   5.415   2.080   6.496 -1.0546  0.1369  1.8559
    1MOL   H229  229   5.344   2.212   6.400 -1.7629 -1.3296  0.1982
    1MOL   C230  230   5.582   2.403   6.675 -0.5011  0.4022  0.7504
    1MOL   C231  231   5.514   2.521   6.608  0.2110 -0.1927  0.4914
    1MOL   C232  232   5.428   2.603   6.709 -0.2982  0.0934  0.6547
    1MOL   C233  233   5.353   2.718   6.634 -0.2236 -0.8173 -0.3469
    1MOL   H234  234   5.654   2.361   6.605  1.4578  3.9284  0.5420
    1MOL   H235  235   5.636   2.438   6.763  2.3212 -1.6337 -0.1131
    1MOL   H236  236   5.591   2.575   6.553 -0.0433 -0.0979  0.2317
    1MOL   H237  237   5.501   2.648   6.777  1.6346  2.5336 -2.8586
    1MOL   H238  238   5.359   2.544   6.769  0.1691  0.3729  1.4848
    1MOL   H239  239   5.421   2.768   6.565 -0.9499  1.7218  0.7445
    1MOL   H240  240   5.274   2.682   6.569 -0.4317  0.5910 -0.8879
    1MOL   H241  241   5.319   2.798   6.699 -1.9260 -1.9508  0.1860
    1MOL   H242  242   5.454   2.485   6.525  1.2715  0.0932 -0.4166
    2MOL     C1  243   1.643   3.585   4.416 -0.3032  0.1651 -0.1380
    2MOL     C2  244   1.746   3.619   4.304  0.1246 -0.2681  0.4794
    2MOL     C3  245   1.678   3.655   4.172  0.0457 -0.1017 -0.6872
    2MOL     C4  246   1.603   3.786   4.186  0.4056  0.8245  0.2991
    2MOL     H5  247   1.689   3.537   4.503  0.5585 -1.1695 -1.3014
    2MOL     H6  248   1.583   3.671   4.445  0.2957  1.2942 -2.2121
    2MOL     H7  249   1.807   3.702   4.338  2.5779 -1.7232 -0.1925
    2MOL     H8  250   1.611   3.571   4.150  0.6023 -0.3562 -1.3923
    2MOL     H9  251   1.748   3.667   4.090 -0.5822  0.9615 -1.0721
    2MOL    H10  252   1.647   3.872   4.238  0.9051  2.6611 -3.0060
    2MOL    H11  253   1.577   3.829   4.089  2.2765 -1.6231 -1.3359
    2MOL    H12  254   1.515   3.763   4.245  2.0453 -0.1312  2.4088
    2MOL    H13  255   1.566   3.515   4.382 -0.9830  0.9835 -0.3005
    2MOL    C14  256   1.842   3.503   4.288 -0.5316  0.1669 -0.6439
    2MOL    C15  257   1.971   3.533   4.207 -0.0861 -0.2939 -0.1936
    2MOL    C16  258   2.020   3.417   4.116  0.2374 -0.2850  0.2145
    2MOL    C17  259   1.925   3.402   3.997  0.4947 -0.2532 -0.0917
    2MOL    H18  260   1.785   3.416   4.255 -2.1408  0.4858  1.1591
    2MOL    H19  261   1.869   3.466   4.387 -1.5666  2.5589  0.5746
    2MOL    H20  262   1.949   3.609   4.132 -0.8181 -1.3106 -1.0152
    2MOL    H21  263   2.015   3.322   4.170 -2.3903 -0.2191  0.1468
    2MOL    H22  264   2.123   3.429   4.081 -0.8165  2.6755 -2.0785
    2MOL    H23  265   1.917   3.502   3.954  1.2928  0.3991  1.2392
    2MOL    H24  266   1.960   3.330   3.923  1.5200 -1.9276  1.9658
    2MOL    H25  267   1.828   3.374   4.037  0.5162 -0.5592 -0.2499
    2MOL    C26  268   2.078   3.589   4.312  0.5200  0.3776  0.5481
    2MOL    C27  269   2.182   3.673   4.250 -0.2666 -0.2745 -0.7857
    2MOL    C28  270   2.313   3.670   4.336  0.1033  0.3244  0.8623
    2MOL    C29  271   2.394   3.547   4.304 -0.1960  0.0775  0.0271
    2MOL    H30  272   2.118   3.497   4.354  1.4102  0.4039 -0.2354
    2MOL    H31  273   2.026   3.638   4.394  0.3464  0.5537  0.3327
    2MOL    H32  274   2.199   3.619   4.156 -0.3924 -2.1939  0.2764
    2MOL    H33  275   2.293   3.671   4.443  0.4947  0.5420  0.9378
    2MOL    H34  276   2.385   3.752   4.326 -0.6324  0.8722 -0.0503
    2MOL    H35  277   2.503   3.555   4.314 -0.0615 -1.4842 -0.0566
    2MOL    H36  278   2.361   3.454   4.351  4.3028 -1.7311 -0.1438
    2MOL    H37  279   2.391   3.523   4.198 -0.2713  1.0479 -0.1995
    2MOL    C38  280   2.136   3.816   4.225  0.2672  0.4393 -0.0702
    2MOL    C39  281   2.228   3.909   4.141  0.2104  0.2492  0.2999
    2MOL    C40  282   2.151   4.044   4.126  0.3714  0.6617  0.0641
    2MOL    C41  283   2.233   4.162   4.078  0.4223  0.2084 -0.2696
    2MOL    H42  284   2.108   3.860   4.321 -0.5879  0.6020 -0.3882
    2MOL    H43  285   2.043   3.805   4.169  2.7328 -1.6916 -3.9788
    2MOL    H44  286   2.314   3.946   4.197  1.7447 -1.4084 -0.9117
    2MOL    H45  287   2.119   4.078   4.224  0.2537 -0.7818  0.5319
    2MOL    H46  288   2.060   4.022   4.070 -0.7259 -0.0222  2.0967
    2MOL    H47  289   2.305   4.206   4.148  1.6431  1.1931 -2.0915
    2MOL    H48  290   2.294   4.124   3.996 -0.0650  1.1382 -1.0745
    2MOL    H49  291   2.163   4.238   4.042  0.0435  0.0507  0.1288
    2MOL    C50  292   2.284   3.851   4.002  0.7459 -0.2656  0.3512
    2MOL    C51  293   2.190   3.838   3.880  0.3623 -0.2259  0.0876
    2MOL    C52  294   2.125   3.696   3.869 -0.3743  0.1960  0.4303
    2MOL    C53  295   2.218   3.576   3.860  0.2919 -0.0919  0.3540
    2MOL    H54  296   2.346   3.764   4.025 -0.5345 -1.2715  0.0460
    2MOL    H55  297   2.356   3.926   3.969  1.0802 -1.1599 -0.9941
    2MOL    H56  298   2.106   3.907   3.889 -0.4084 -1.3575  1.8824
    2MOL    H57  299   2.041   3.700   3.799  0.2363 -0.2318 -0.3361
    2MOL    H58  300   2.078   3.686   3.967  2.2800  0.1040  1.7500
    2MOL    H59  301   2.291   3.567   3.780 -0.2250 -0.6297 -0.0607
    2MOL    H60  302   2.262   3.561   3.958 -1.5919 -0.2702  1.1842
    2MOL    H61  303   2.159   3.487   3.836 -1.1009  0.8837  0.0788
    2MOL    C62  304   2.275   3.863   3.746 -0.0204 -0.0436  0.1342
    2MOL    C63  305   2.304   4.011   3.701  0.3589  0.1674  0.3464
    2MOL    C64  306   2.197   4.072   3.614  0.6410  0.3439 -0.3869
    2MOL    C65  307   2.063   4.087   3.679  0.1607  0.6441  0.2889
    2MOL    H66  308   2.231   3.810   3.661  0.3023 -1.2820  0.7221
    2MOL    H67  309   2.369   3.813   3.769 -1.2167 -1.5260  2.0126
    2MOL    H68  310   2.324   4.081   3.782 -1.4883 -0.3459  1.2751
    2MOL    H69  311   2.180   4.014   3.524 -1.5288  1.1123 -0.5188
    2MOL    H70  312   2.234   4.168   3.577  1.8150  0.3076  0.6764
    2MOL    H71  313   2.019   3.988   3.692  0.4050  0.3757 -0.8185
    2MOL    H72  314   2.084   4.125   3.779 -2.1017  0.1591  0.9869
    2MOL    H73  315   1.998   4.159   3.628 -1.1707  0.1490  1.2564
    2MOL    C74  316   2.438   4.011   3.621 -0.1137 -0.9949  0.6119
    2MOL    C75  317   2.572   3.992   3.706 -0.0730  0.4355  0.2457
    2MOL    C76  318   2.583   4.106   3.809 -0.3214 -0.2181  0.1534
    2MOL    C77  319   2.567   4.249   3.761  0.1394 -0.3912 -0.1962
    2MOL    H78  320   2.451   4.099   3.558 -0.0117  0.2339  2.3139
    2MOL    H79  321   2.421   3.932   3.548  3.1324 -1.4085  0.2608
    2MOL    H80  322   2.571   3.902   3.768  2.9703 -0.2351 -0.5798
    2MOL    H81  323   2.675   4.099   3.867  0.3940 -1.5426 -1.1043
    2MOL    H82  324   2.510   4.081   3.887 -1.9340  0.5839 -1.0615
    2MOL    H83  325   2.469   4.275   3.722  0.6702  1.5351 -0.2830
    2MOL    H84  326   2.594   4.312   3.846 -0.8759 -0.5092  0.2175
    2MOL    H85  327   2.642   4.257   3.682 -0.9184 -1.7492 -1.3467
    2MOL    C86  328   2.699   3.984   3.613  0.3593 -0.1072  0.2389
    2MOL    C87  329   2.816   3.900   3.663  0.9745  0.0894  0.0854
    2MOL    C88  330   2.959   3.975   3.628  0.0856  0.3966 -0.0738
    2MOL    C89  331   2.997   4.097   3.718  0.1139  0.5386  0.1917
    2MOL    H90  332   2.724   4.089   3.601  1.8132 -0.4229  0.3897
    2MOL    H91  333   2.667   3.949   3.515  0.6211  1.3984 -0.3960
    2MOL    H92  334   2.809   3.887   3.771 -1.1800 -0.7828 -0.1443
    2MOL    H93  335   2.970   3.998   3.522  1.8023 -0.4877 -0.1090
    2MOL    H94  336   3.039   3.903   3.647 -2.1794 -3.0917 -2.7923
    2MOL    H95  337   3.097   4.138   3.707  1.2217 -2.1822 -0.2364
    2MOL    H96  338   2.918   4.171   3.704 -0.3150 -0.0924 -0.7814
    2MOL    H97  339   2.994   4.073   3.824  0.0356  1.7490  0.4702
    2MOL    C98  340   2.799   3.753   3.602  0.3583 -0.0755  0.2712
    2MOL    C99  341   2.894   3.658   3.655  0.8420 -0.1238 -0.2821
    2MOL   C100  342   2.894   3.543   3.553 -0.2539 -0.0256 -0.2077
    2MOL   C101  343   2.997   3.566   3.436 -0.1069  0.3288  0.1127
    2MOL   H102  344   2.813   3.769   3.495 -0.7158  0.0658  0.1455
    2MOL   H103  345   2.703   3.705   3.617  0.1497 -1.0720 -3.8027
    2MOL   H104  346   2.993   3.704   3.650  0.3772  0.7653 -1.6267
    2MOL   H105  347   2.792   3.525   3.518 -0.2026  0.0954 -0.4223
    2MOL   H106  348   2.914   3.447   3.601  1.5876  0.5650  0.2603
    2MOL   H107  349   3.101   3.589   3.460  0.9714 -1.5854 -2.4499
    2MOL   H108  350   2.991   3.484   3.365  0.7034  1.1125 -0.8787
    2MOL   H109  351   2.954   3.655   3.390  0.2087  0.3422 -0.1537
    2MOL   C110  352   2.846   3.609   3.800  0.0488 -0.2897  0.0225
    2MOL   C111  353   2.973   3.569   3.882 -0.2214  0.6538  0.3772
    2MOL   C112  354   2.923   3.462   3.979 -0.0332  0.0056 -0.0999
    2MOL   C113  355   2.806   3.510   4.070  0.0217  0.3021 -0.2354
    2MOL   H114  356   2.769   3.533   3.791  0.7430 -1.0117  0.1405
    2MOL   H115  357   2.796   3.690   3.853  2.0330 -0.1736  1.7672
    2MOL   H116  358   3.053   3.533   3.818  0.2728 -1.6091  2.2028
    2MOL   H117  359   3.011   3.420   4.028  0.1001  0.2030 -0.1672
    2MOL   H118  360   2.895   3.375   3.920  1.2544 -1.6703  1.6819
    2MOL   H119  361   2.759   3.427   4.123  0.1586  0.6682  0.4560
    2MOL   H120  362   2.833   3.585   4.144  0.0309 -0.6854  0.7785
    2MOL   H121  363   2.722   3.558   4.019 -1.7978  0.4267  2.7589
    2MOL   C122  364   3.029   3.699   3.952 -0.1243 -0.1378  0.8503
    2MOL   C123  365   3.179   3.704   3.987 -0.0571 -0.4130  0.4395
    2MOL   C124  366   3.268   3.690   3.863 -0.2139 -0.1496 -0.1819
    2MOL   C125  367   3.407   3.754   3.874 -0.3602  0.7488 -0.0662
    2MOL   H126  368   2.974   3.719   4.044  0.5578  1.9196  0.8320
    2MOL   H127  369   3.009   3.784   3.888 -0.7044 -0.3931  0.6858
    2MOL   H128  370   3.201   3.801   4.033 -1.7999 -0.2884  1.0589
    2MOL   H129  371   3.229   3.731   3.770  0.8198 -1.0204 -1.0317
    2MOL   H130  372   3.275   3.587   3.827  0.5550 -0.1029 -0.1777
    2MOL   H131  373   3.469   3.750   3.785 -0.8856 -0.7927 -0.3791
    2MOL   H132  374   3.395   3.856   3.909  1.2283  0.7069  0.6255
    2MOL   H133  375   3.461   3.701   3.952 -2.3942 -0.7635  0.3520
    2MOL   C134  376   3.225   3.612   4.104 -0.1368  0.0572 -0.0439
    2MOL   C135  377   3.150   3.622   4.236 -0.5893 -0.1725 -0.3480
    2MOL   C136  378   3.168   3.765   4.298 -0.5298  0.2811 -0.2745
    2MOL   C137  379   3.310   3.809   4.341  0.2497  0.0760 -0.2282
    2MOL   H138  380   3.327   3.634   4.134  0.0535 -1.9210  0.8512
    2MOL   H139  381   3.218   3.510   4.066 -0.3148  0.6069 -1.4975
    2MOL   H140  382   3.048   3.602   4.206 -1.3648  1.0068  1.4035
    2MOL   H141  383   3.101   3.761   4.385  0.6873  0.7010  0.6968
    2MOL   H142  384   3.122   3.837   4.230  1.9653  1.4955 -0.7153
    2MOL   H143  385   3.305   3.917   4.358  2.3156 -0.0625  1.3554
    2MOL   H144  386   3.344   3.767   4.435 -2.1873 -0.2302  0.5661
    2MOL   H145  387   3.386   3.798   4.265  1.0551 -1.2080  0.7430
    2MOL   C146  388   3.186   3.505   4.325  0.6148 -0.0694  0.2628
    2MOL   C147  389   3.120   3.488   4.461  0.3260 -0.0511  0.2893
    2MOL   C148  390   3.214   3.404   4.554  0.3970  0.6449 -0.1437
    2MOL   C149  391   3.318   3.497   4.617  0.7098 -0.1913 -0.2063
    2MOL   H150  392   3.294   3.517   4.339  0.5236  0.4912  0.4994
    2MOL   H151  393   3.192   3.406   4.281  0.3772  0.2591 -0.5179
    2MOL   H152  394   3.125   3.587   4.506 -0.2362 -0.1317  0.5347
    2MOL   H153  395   3.278   3.329   4.506 -0.8116  0.2425 -1.1504
    2MOL   H154  396   3.140   3.357   4.618 -2.0877  2.9413 -1.2689
    2MOL   H155  397   3.381   3.431   4.678 -0.3695 -0.6258  0.4563
    2MOL   H156  398   3.382   3.540   4.539  0.1771  0.8329 -0.0839
    2MOL   H157  399   3.276   3.574   4.682  0.8846 -1.2205  1.1433
    2MOL   C158  400   2.981   3.435   4.447  0.3864  0.2251  0.0168
    2MOL   C159  401   2.880   3.476   4.557  0.3645  0.0190 -0.2626
    2MOL   C160  402   2.778   3.360   4.588 -0.2218 -0.0468 -0.3781
    2MOL   C161  403   2.713   3.291   4.469 -0.0532 -0.3567 -0.2478
    2MOL   H162  404   2.991   3.329   4.466 -2.6617 -0.0791  0.2757
    2MOL   H163  405   2.929   3.446   4.351  0.0493 -1.0326  0.0529
    2MOL   H164  406   2.933   3.483   4.652 -1.0991 -2.1067  0.7418
    2MOL   H165  407   2.698   3.393   4.654 -0.3315  0.1229 -0.5966
    2MOL   H166  408   2.831   3.291   4.653 -1.4774  0.2090  0.9563
    2MOL   H167  409   2.677   3.365   4.397 -1.2386  0.3269  1.0249
    2MOL   H168  410   2.783   3.220   4.426  0.2082 -0.3285  0.1245
    2MOL   H169  411   2.629   3.234   4.508 -0.6483  0.8752  0.3177
    2MOL   C170  412   2.816   3.609   4.551 -0.4165  0.6843  0.1928
    2MOL   C171  413   2.813   3.712   4.663 -0.0505  0.0636  0.1351
    2MOL   C172  414   2.718   3.666   4.774  0.4502 -0.8346  0.0817
    2MOL   C173  415   2.727   3.731   4.909 -0.3349 -0.3976 -0.8509
    2MOL   H174  416   2.719   3.596   4.501  0.1228 -1.4071 -0.3763
    2MOL   H175  417   2.884   3.652   4.477 -0.1212 -1.5245 -0.8555
    2MOL   H176  418   2.910   3.727   4.710  0.2866  3.8680 -1.5819
    2MOL   H177  419   2.734   3.560   4.789  3.2287 -0.2297  1.8221
    2MOL   H178  420   2.615   3.677   4.741  1.1819 -1.4038 -2.4372
    2MOL   H179  421   2.809   3.686   4.965 -1.3926 -0.3424  0.7918
    2MOL   H180  422   2.749   3.838   4.904  0.9524 -0.5846  0.3807
    2MOL   H181  423   2.637   3.717   4.970  0.6513  0.6729  0.9020
    2MOL   C182  424   2.765   3.850   4.605 -0.0835 -0.3672 -0.0599
    2MOL   C183  425   2.871   3.924   4.518  0.0873  0.0589  0.0738
    2MOL   C184  426   2.999   3.974   4.600  0.1770  0.2575 -0.5483
    2MOL   C185  427   2.992   4.072   4.712  0.3250 -0.0443 -0.1473
    2MOL   H186  428   2.744   3.918   4.688  0.9957 -0.3361  0.2031
    2MOL   H187  429   2.673   3.832   4.550  0.7922  0.2817 -1.7706
    2MOL   H188  430   2.900   3.858   4.436  0.2866  0.4919 -0.2084
    2MOL   H189  431   3.077   4.012   4.533  0.7227  0.6292  0.2947
    2MOL   H190  432   3.048   3.885   4.641 -1.4249 -0.5263 -0.3256
    2MOL   H191  433   2.949   4.022   4.799 -0.7192  2.1207  0.6027
    2MOL   H192  434   3.087   4.111   4.749 -0.6183 -0.5141  2.9020
    2MOL   H193  435   2.928   4.158   4.695 -0.3470 -0.0320  2.2324
    2MOL   C194  436   2.812   4.047   4.449 -0.2813  0.5102 -0.9125
    2MOL   C195  437   2.711   4.027   4.327 -0.0104 -0.8400  0.0661
    2MOL   C196  438   2.772   3.951   4.213  0.5934 -0.0299 -0.1911
    2MOL   C197  439   2.685   3.858   4.124  0.0463 -0.1494  0.5869
    2MOL   H198  440   2.895   4.103   4.405 -1.3231 -0.0461 -3.6857
    2MOL   H199  441   2.769   4.116   4.521  0.2940 -0.8941  0.8207
    2MOL   H200  442   2.625   3.963   4.349 -2.7137  2.2794 -0.9374
    2MOL   H201  443   2.855   3.888   4.246 -1.5026 -1.9199  1.5625
    2MOL   H202  444   2.843   4.014   4.159  1.1178 -1.6490 -1.4692
    2MOL   H203  445   2.602   3.909   4.074 -0.4195 -0.8960  0.6032
    2MOL   H204  446   2.748   3.815   4.046 -0.0717  2.1719 -0.8184
    2MOL   H205  447   2.649   3.775   4.185  1.6433 -1.0302  0.3760
    2MOL   C206  448   2.651   4.160   4.281 -0.7143  1.1171 -0.2655
    2MOL   C207  449   2.560   4.228   4.386 -1.3908 -1.0432 -0.1219
    2MOL   C208  450   2.431   4.154   4.414  0.0012 -0.1235  0.1032
    2MOL   C209  451   2.439   4.096   4.548  0.0261  0.5648 -0.4524
    2MOL   H210  452   2.584   4.152   4.195  0.9255  1.2754 -1.5679
    2MOL   H211  453   2.732   4.219   4.238 -0.1583 -0.5134 -1.5011
    2MOL   H212  454   2.611   4.240   4.481 -2.2818  0.2962  0.2141
    2MOL   H213  455   2.416   4.072   4.344  1.9796  0.1189 -0.6388
    2MOL   H214  456   2.344   4.214   4.388  1.5879  0.7806 -3.3569
    2MOL   H215  457   2.370   4.011   4.544  1.9138 -0.9173 -3.1249
    2MOL   H216  458   2.535   4.053   4.576  0.2282 -0.0048 -1.9449
    2MOL   H217  459   2.398   4.162   4.624  0.6341  0.8400 -0.3629
    2MOL   C218  460   2.525   4.372   4.328 -0.1351 -0.6952  0.0469
    2MOL   C219  461   2.471   4.466   4.433  0.0581  0.2286 -0.2190
    2MOL   C220  462   2.415   4.594   4.365  0.3010 -0.3916 -0.1076
    2MOL   C221  463   2.292   4.584   4.273 -0.3087 -0.5348 -0.1247
    2MOL   H222  464   2.451   4.370   4.248  0.9466  3.1241 -1.1581
    2MOL   H223  465   2.608   4.426   4.284 -0.6041 -1.5697 -1.9411
    2MOL   H224  466   2.387   4.417   4.482 -0.2762  0.1954 -0.8210
    2MOL   H225  467   2.499   4.641   4.313  0.4610 -0.9547 -0.3673
    2MOL   H226  468   2.383   4.656   4.448 -0.2616 -0.5297 -0.2217
    2MOL   H227  469   2.260   4.685   4.247 -0.8371 -1.4163 -3.0543
    2MOL   H228  470   2.292   4.517   4.187 -0.1893 -1.1141  0.3243
    2MOL   H229  471   2.204   4.555   4.330 -0.0797 -1.4166 -0.2129
    2MOL   C230  472   2.574   4.495   4.546 -0.1431 -0.0593 -0.2147
    2MOL   C231  473   2.710   4.540   4.503  0.4445 -0.0692 -0.1812
    2MOL   C232  474   2.802   4.597   4.617 -0.1958 -0.1994 -0.2193
    2MOL   C233  475   2.842   4.481   4.716  0.3900  0.0473  0.0729
    2MOL   H234  476   2.573   4.403   4.604 -2.2369 -0.5894 -1.0546
    2MOL   H235  477   2.527   4.567   4.613 -2.7626 -0.6791 -1.3361
    2MOL   H236  478   2.768   4.460   4.455  1.4071  1.0395 -0.9091
    2MOL   H237  479   2.743   4.676   4.664  0.4414  0.6481 -0.8043
    2MOL   H238  480   2.892   4.649   4.583 -0.7623  0.5509 -0.6033
    2MOL   H239  481   2.757   4.435   4.765  1.3260 -0.0221  1.6621
    2MOL   H240  482   2.913   4.406   4.679 -0.1932 -0.2113 -0.5325
    2MOL   H241  483   2.887   4.528   4.804  0.9015  0.6518 -0.5063
    2MOL   H242  484   2.706   4.616   4.425  2.2789  1.9333  1.6071
    3MOL     C1  485   4.525   1.286   1.271  0.1728  0.2192  0.0087
    3MOL     C2  486   4.667   1.283   1.217  0.1787 -0.3269 -0.1616
    3MOL     C3  487   4.663   1.274   1.062 -0.0871 -0.0999  0.2663
    3MOL     C4  488   4.607   1.394   0.982  0.6574 -1.0583  0.0385
    3MOL     H5  489   4.529   1.314   1.376 -0.0855  0.4462 -0.0407
    3MOL     H6  490   4.464   1.358   1.217  1.2657  0.0317 -1.5168
    3MOL     H7  491   4.715   1.380   1.230  1.1152 -0.8467  0.3801
    3MOL     H8  492   4.598   1.191   1.036  0.5061 -0.7740  0.9086
    3MOL     H9  493   4.763   1.254   1.023 -0.3311 -0.8075 -0.0007
    3MOL    H10  494   4.521   1.426   1.040  2.1796 -1.3983  2.5862
    3MOL    H11  495   4.682   1.474   0.973 -0.6652  0.0881 -1.0811
    3MOL    H12  496   4.569   1.372   0.882 -2.9611 -0.6992  1.2966
    3MOL    H13  497   4.474   1.190   1.274 -0.5343  0.5980  0.2911
    3MOL    C14  498   4.757   1.167   1.267  0.0054 -0.9113  0.0944
    3MOL    C15  499   4.747   1.121   1.415  0.3892  0.1399 -0.0270
    3MOL    C16  500   4.838   1.217   1.491  0.4558 -0.4401  0.0998
    3MOL    C17  501   4.818   1.228   1.646 -0.2781  0.8534 -0.0610
    3MOL    H18  502   4.859   1.192   1.238 -0.1644 -0.9235 -0.5040
    3MOL    H19  503   4.743   1.080   1.203  0.7404 -1.5473  0.7832
    3MOL    H20  504   4.650   1.149   1.457  1.1056  1.7519  0.5683
    3MOL    H21  505   4.818   1.318   1.454  2.3523 -0.6492 -1.5721
    3MOL    H22  506   4.943   1.207   1.461  0.9497  0.2269  1.5378
    3MOL    H23  507   4.823   1.131   1.696 -1.0318  0.5859 -0.4922
    3MOL    H24  508   4.882   1.295   1.703 -0.2771  1.5310 -0.8618
    3MOL    H25  509   4.718   1.266   1.669  0.0034  0.5428  1.8113
    3MOL    C26  510   4.786   0.971   1.436  0.5359 -0.0535  0.3616
    3MOL    C27  511   4.679   0.869   1.390 -0.2602  0.2420  0.4935
    3MOL    C28  512   4.575   0.838   1.504  0.4946  0.6025 -0.4210
    3MOL    C29  513   4.441   0.776   1.469  0.2119 -0.1250 -0.2109
    3MOL    H30  514   4.805   0.948   1.541 -0.1447 -1.1818  0.2449
    3MOL    H31  515   4.879   0.957   1.381  0.1188  1.9580 -0.8833
    3MOL    H32  516   4.620   0.897   1.302 -0.6995 -2.3774 -0.0912
    3MOL    H33  517   4.554   0.938   1.540 -1.5604  0.1821 -0.4130
    3MOL    H34  518   4.612   0.784   1.592 -1.7076  1.2546  0.9338
    3MOL    H35  519   4.367   0.810   1.541 -0.5503 -1.6599 -0.2489
    3MOL    H36  520   4.401   0.786   1.368  1.2899 -1.7363 -0.8159
    3MOL    H37  521   4.440   0.668   1.483 -3.3270 -0.6573 -3.8178
    3MOL    C38  522   4.746   0.737   1.352 -0.3560 -0.3249  0.1956
    3MOL    C39  523   4.843   0.738   1.223  0.3529  0.0877  0.3144
    3MOL    C40  524   4.754   0.749   1.089 -0.8416 -0.3061 -0.3126
    3MOL    C41  525   4.833   0.746   0.952  0.1889 -0.0293  0.2498
    3MOL    H42  526   4.670   0.661   1.335  1.7416 -2.1739 -1.1904
    3MOL    H43  527   4.808   0.702   1.435  0.1762 -1.2859 -0.5814
    3MOL    H44  528   4.894   0.834   1.221 -0.6896  0.6535  0.1907
    3MOL    H45  529   4.697   0.842   1.098  1.1702  0.8041  1.2988
    3MOL    H46  530   4.674   0.675   1.083  0.8974 -2.3645  1.2746
    3MOL    H47  531   4.887   0.658   0.918  2.2022  1.3859 -0.3536
    3MOL    H48  532   4.757   0.771   0.879  0.5562 -1.1683 -0.5311
    3MOL    H49  533   4.912   0.821   0.957 -1.4933  1.8782 -0.9167
    3MOL    C50  534   4.953   0.628   1.227 -0.5617 -0.0343  0.0816
    3MOL    C51  535   5.065   0.658   1.322 -0.7559  0.6646  0.1536
    3MOL    C52  536   5.197   0.711   1.253 -0.0097  0.0377  0.2851
    3MOL    C53  537   5.170   0.849   1.186 -0.2111 -0.2803  0.0373
    3MOL    H54  538   5.006   0.616   1.133  1.3126 -0.5525  1.1916
    3MOL    H55  539   4.905   0.531   1.243  2.8317 -1.4143  2.3342
    3MOL    H56  540   5.026   0.745   1.376 -0.2407  2.7681 -2.7634
    3MOL    H57  541   5.215   0.635   1.177 -3.7020 -0.4467 -0.2164
    3MOL    H58  542   5.280   0.706   1.323  0.1493  0.5526  0.1374
    3MOL    H59  543   5.259   0.901   1.149  1.2723 -1.6410  1.5980
    3MOL    H60  544   5.097   0.828   1.108  0.3913 -2.5006  0.0485
    3MOL    H61  545   5.122   0.928   1.244 -1.0889 -1.7317  1.3261
    3MOL    C62  546   5.075   0.563   1.435 -0.4892  0.5377  0.0722
    3MOL    C63  547   5.161   0.612   1.555 -0.5362  0.2090 -0.4590
    3MOL    C64  548   5.186   0.494   1.654 -0.0276  0.4778 -0.2438
    3MOL    C65  549   5.295   0.400   1.603  0.2705  0.2396 -1.0024
    3MOL    H66  550   5.106   0.469   1.391 -1.1259  1.1093 -1.6401
    3MOL    H67  551   4.979   0.538   1.481 -1.7319  0.3430 -2.5409
    3MOL    H68  552   5.259   0.642   1.519  0.4132 -3.1717 -0.9300
    3MOL    H69  553   5.099   0.429   1.668  0.6576 -0.4717 -0.3392
    3MOL    H70  554   5.218   0.537   1.749  1.0911  1.0563 -0.8796
    3MOL    H71  555   5.307   0.315   1.671  0.7537  0.9246 -0.2136
    3MOL    H72  556   5.278   0.388   1.496  0.0874  0.7791 -1.0382
    3MOL    H73  557   5.393   0.445   1.620  0.8084 -1.2172 -0.2306
    3MOL    C74  558   5.115   0.738   1.638  0.2535  0.4263  0.5173
    3MOL    C75  559   5.224   0.842   1.667 -0.7713 -1.0177 -0.0509
    3MOL    C76  560   5.181   0.932   1.785  0.0839 -0.8132 -0.4627
    3MOL    C77  561   5.066   1.029   1.749 -0.0763  0.3963 -0.4465
    3MOL    H78  562   5.068   0.696   1.727 -0.5975  0.1933 -0.0347
    3MOL    H79  563   5.028   0.791   1.600 -0.0617  1.2281  2.3028
    3MOL    H80  564   5.314   0.785   1.692 -0.2492  0.7877  2.3999
    3MOL    H81  565   5.264   0.985   1.832 -0.7072 -0.1888  0.2395
    3MOL    H82  566   5.142   0.875   1.869 -3.4770 -2.0020 -2.7891
    3MOL    H83  567   5.107   1.108   1.684  0.1000  1.0271  0.4228
    3MOL    H84  568   4.988   0.979   1.692 -1.3410 -0.0863  1.6911
    3MOL    H85  569   5.023   1.074   1.838  1.8896  0.3147  0.5851
    3MOL    C86  570   5.259   0.930   1.540  0.5787  0.2197  0.0638
    3MOL    C87  571   5.361   1.043   1.552  0.7592 -0.3736  0.1001
    3MOL    C88  572   5.344   1.144   1.435 -0.5059 -1.0420  0.4815
    3MOL    C89  573   5.416   1.107   1.311 -0.4562  0.3075 -0.4806
    3MOL    H90  574   5.164   0.967   1.500 -0.1849  0.8054  2.3182
    3MOL    H91  575   5.301   0.862   1.466  0.1336  0.1397 -0.1197
    3MOL    H92  576   5.326   1.102   1.636 -0.5113  1.9118 -1.9551
    3MOL    H93  577   5.368   1.246   1.468 -0.0207 -0.5291 -1.4237
    3MOL    H94  578   5.241   1.144   1.399 -0.0545 -4.9978 -0.9919
    3MOL    H95  579   5.369   1.016   1.273 -0.1214  0.0424 -0.2589
    3MOL    H96  580   5.413   1.185   1.235  0.3300  1.4751  0.6788
    3MOL    H97  581   5.521   1.082   1.325 -0.1979  1.3410 -0.5553
    3MOL    C98  582   5.503   0.991   1.585  0.0033  0.0002 -0.3948
    3MOL    C99  583   5.599   1.105   1.617  0.2697 -0.0407 -0.5388
    3MOL   C100  584   5.748   1.076   1.581 -0.3695 -0.2848 -0.1856
    3MOL   C101  585   5.776   1.108   1.432 -0.1517  0.0336 -0.2114
    3MOL   H102  586   5.529   0.926   1.502  0.2046  2.0266 -1.9594
    3MOL   H103  587   5.489   0.931   1.675  2.0421 -1.0327 -0.7293
    3MOL   H104  588   5.568   1.194   1.563  1.2628  0.9588  0.5064
    3MOL   H105  589   5.778   0.974   1.602  3.1415  0.2926 -2.1001
    3MOL   H106  590   5.817   1.140   1.636 -0.7612  0.4259 -0.5030
    3MOL   H107  591   5.710   1.177   1.379 -0.5559 -0.7596 -0.7489
    3MOL   H108  592   5.877   1.148   1.423 -0.5932  1.5341  1.1662
    3MOL   H109  593   5.764   1.019   1.371  1.9195  0.7451 -1.7053
    3MOL   C110  594   5.597   1.147   1.770  0.2896  0.0856 -0.4442
    3MOL   C111  595   5.641   1.297   1.799  0.0917 -0.1765  0.1133
    3MOL   C112  596   5.612   1.333   1.944 -0.0769  0.4726  0.1604
    3MOL   C113  597   5.680   1.238   2.054  0.0333  0.1073  1.2460
    3MOL   H114  598   5.647   1.067   1.826 -1.4833 -0.8767 -0.2139
    3MOL   H115  599   5.499   1.136   1.816  0.6327 -2.9212 -0.2822
    3MOL   H116  600   5.749   1.304   1.793  0.2305 -0.8973  1.6566
    3MOL   H117  601   5.503   1.335   1.953  0.0368 -1.6678  3.0380
    3MOL   H118  602   5.655   1.432   1.956 -0.9135  0.8319  0.1835
    3MOL   H119  603   5.783   1.228   2.018 -0.1021 -0.2440  0.9535
    3MOL   H120  604   5.677   1.300   2.143 -1.7947  1.9167 -0.0105
    3MOL   H121  605   5.641   1.138   2.068  0.1171 -0.0587  0.3089
    3MOL   C122  606   5.580   1.411   1.715  0.4618 -0.3696  0.4384
    3MOL   C123  607   5.672   1.463   1.606  0.2673  0.2220  0.1817
    3MOL   C124  608   5.783   1.562   1.665 -0.1781 -0.2654  0.0812
    3MOL   C125  609   5.927   1.515   1.641 -0.3640 -1.0835 -0.3802
    3MOL   H126  610   5.551   1.495   1.778  1.6706  0.6811 -0.3754
    3MOL   H127  611   5.486   1.376   1.674  0.8879 -0.4328 -0.5051
    3MOL   H128  612   5.695   1.382   1.536 -1.2346 -0.0550 -0.0102
    3MOL   H129  613   5.762   1.590   1.768 -0.6424 -2.3195  0.5717
    3MOL   H130  614   5.776   1.662   1.622 -2.0468 -0.4835 -0.1594
    3MOL   H131  615   5.999   1.567   1.703  0.7606 -1.8163 -1.0462
    3MOL   H132  616   5.926   1.409   1.666 -0.1999 -0.9458  0.2022
    3MOL   H133  617   5.948   1.528   1.535  0.5409  0.5513 -0.0038
    3MOL   C134  618   5.584   1.549   1.515 -0.0282 -0.8525 -0.6294
    3MOL   C135  619   5.634   1.567   1.372  0.2117  0.0204  0.6415
    3MOL   C136  620   5.623   1.718   1.314 -0.2203  0.2849  0.0376
    3MOL   C137  621   5.683   1.828   1.407 -0.0367  0.1368  0.3386
    3MOL   H138  622   5.565   1.649   1.554  1.1062  0.2027 -2.7252
    3MOL   H139  623   5.478   1.526   1.513  0.3588 -2.6598 -1.4840
    3MOL   H140  624   5.742   1.553   1.371  0.3779  1.2984 -0.0143
    3MOL   H141  625   5.516   1.739   1.309 -0.3335 -0.6352 -1.5783
    3MOL   H142  626   5.667   1.736   1.217  0.6843 -0.7878  0.2322
    3MOL   H143  627   5.791   1.821   1.401 -0.2346 -2.1281 -1.7395
    3MOL   H144  628   5.661   1.930   1.374 -0.1579  0.2205  0.6821
    3MOL   H145  629   5.661   1.816   1.513 -1.5315 -0.6348 -0.0458
    3MOL   C146  630   5.574   1.466   1.275  0.0098  0.1296 -0.9959
    3MOL   C147  631   5.639   1.454   1.131 -0.8791  0.0351  0.0110
    3MOL   C148  632   5.539   1.427   1.019  0.8288 -0.0285  0.6440
    3MOL   C149  633   5.453   1.543   0.975  0.3297  0.8723  0.5825
    3MOL   H150  634   5.470   1.490   1.255  0.0347  0.4922 -0.7015
    3MOL   H151  635   5.580   1.365   1.316  0.4661  0.4291 -0.3241
    3MOL   H152  636   5.687   1.548   1.104  1.2247 -0.7107  1.0913
    3MOL   H153  637   5.477   1.348   1.059  1.3297 -0.6255  0.2571
    3MOL   H154  638   5.582   1.377   0.932  0.4714 -2.6684  1.9433
    3MOL   H155  639   5.377   1.512   0.903  0.4161 -3.5879  2.2583
    3MOL   H156  640   5.395   1.591   1.054 -1.8005 -1.4419  0.4727
    3MOL   H157  641   5.516   1.615   0.923  0.2747 -0.3832 -1.2924
    3MOL   C158  642   5.745   1.343   1.132 -0.0552  0.4356  0.2401
    3MOL   C159  643   5.848   1.344   1.012  0.2469  0.0928 -0.2975
    3MOL   C160  644   5.926   1.214   0.990  0.1091 -0.0754 -0.0086
    3MOL   C161  645   5.839   1.101   0.941  0.9901  0.1370 -0.1394
    3MOL   H162  646   5.689   1.250   1.123  0.5817  0.2962 -2.5878
    3MOL   H163  647   5.803   1.332   1.224 -2.9789 -1.4144  1.9448
    3MOL   H164  648   5.805   1.352   0.912 -0.0325  0.0238 -0.1837
    3MOL   H165  649   5.975   1.183   1.083 -0.7607 -1.0908  0.1232
    3MOL   H166  650   6.000   1.234   0.913 -0.6481  0.6577 -0.5425
    3MOL   H167  651   5.796   1.040   1.020  3.2726 -0.7366  0.4639
    3MOL   H168  652   5.762   1.128   0.869  0.1266 -1.1446  0.2895
    3MOL   H169  653   5.905   1.033   0.887  2.2469  0.0617  1.4290
    3MOL   C170  654   5.956   1.461   1.011  0.0391 -0.0909 -0.4617
    3MOL   C171  655   5.934   1.589   0.929 -0.6541  0.4984 -0.4466
    3MOL   C172  656   5.919   1.560   0.781 -0.2390 -0.0968 -0.0209
    3MOL   C173  657   6.045   1.493   0.719  0.0843  0.1977  0.2134
    3MOL   H174  658   6.053   1.426   0.977 -0.7899 -0.2850 -2.6665
    3MOL   H175  659   5.973   1.486   1.116 -0.3998 -0.5143 -0.2866
    3MOL   H176  660   5.844   1.640   0.964 -0.9136 -0.5009  0.3545
    3MOL   H177  661   5.904   1.651   0.724 -0.7276 -1.1961 -1.6864
    3MOL   H178  662   5.834   1.497   0.754 -0.1163 -0.3050  0.0800
    3MOL   H179  663   6.133   1.554   0.737 -0.4975  1.8225 -2.2004
    3MOL   H180  664   6.054   1.385   0.735  0.7722 -0.1614 -2.3330
    3MOL   H181  665   6.036   1.489   0.610 -2.0471 -2.6468  0.4252
    3MOL   C182  666   6.039   1.697   0.962 -0.3007  0.9333 -0.3921
    3MOL   C183  667   5.998   1.816   1.062  0.2009  0.3463  0.4328
    3MOL   C184  668   5.971   1.746   1.197 -0.0329 -0.0308 -0.8495
    3MOL   C185  669   6.093   1.687   1.273  0.0695  0.1108  0.1163
    3MOL   H186  670   6.067   1.741   0.867 -0.8891  0.4019 -0.8141
    3MOL   H187  671   6.129   1.643   0.992 -1.4364  0.3357  2.0915
    3MOL   H188  672   6.080   1.884   1.085 -1.3331  2.8939 -1.4694
    3MOL   H189  673   5.893   1.671   1.190 -0.6260  0.5181 -0.2349
    3MOL   H190  674   5.925   1.821   1.261  1.1900 -1.7429  2.1360
    3MOL   H191  675   6.129   1.592   1.235 -1.7561 -0.3956 -0.3847
    3MOL   H192  676   6.176   1.757   1.286  0.7822 -0.9242  1.2294
    3MOL   H193  677   6.073   1.665   1.378 -0.8025 -1.2960 -0.3391
    3MOL   C194  678   5.886   1.902   1.006 -0.1191  0.0600  0.1978
    3MOL   C195  679   5.916   1.964   0.867 -0.7070  0.3302  0.1585
    3MOL   C196  680   6.052   2.026   0.856  0.7248  0.3868  0.9722
    3MOL   C197  681   6.067   2.159   0.934  0.6001 -0.2179 -0.0042
    3MOL   H198  682   5.870   1.986   1.074 -0.2571  0.7003 -0.6167
    3MOL   H199  683   5.799   1.840   0.986 -1.5075  2.9231 -3.2416
    3MOL   H200  684   5.923   1.882   0.794 -1.3359  0.4413 -0.0319
    3MOL   H201  685   6.059   2.048   0.750 -1.5287  1.1023  0.9291
    3MOL   H202  686   6.133   1.959   0.884 -0.3125 -1.0156  0.6281
    3MOL   H203  687   6.131   2.233   0.884  2.2604 -1.3110  0.4409
    3MOL   H204  688   5.977   2.210   0.968  1.0295 -0.6907  1.8531
    3MOL   H205  689   6.109   2.125   1.028  1.0849  1.6046  0.4655
    3MOL   C206  690   5.800   2.058   0.828  0.2236  0.5544  0.4137
    3MOL   C207  691   5.688   2.004   0.739  0.1931  0.2348 -0.2513
    3MOL   C208  692   5.585   1.912   0.814 -0.3950 -0.2762 -0.0218
    3MOL   C209  693   5.529   1.947   0.959  0.4373 -0.1761 -0.2621
    3MOL   H210  694   5.847   2.134   0.765 -1.1054  2.7776  2.0141
    3MOL   H211  695   5.759   2.115   0.912 -1.0586 -0.4268  0.4745
    3MOL   H212  696   5.623   2.089   0.718  1.7613  1.6139  0.3993
    3MOL   H213  697   5.626   1.811   0.814  0.0962 -0.0810  0.7304
    3MOL   H214  698   5.504   1.895   0.743  0.5518  3.2004 -2.0587
    3MOL   H215  699   5.455   1.875   0.994 -1.4096  0.8281 -1.9754
    3MOL   H216  700   5.601   1.972   1.036 -1.0987  1.4197  0.7015
    3MOL   H217  701   5.475   2.041   0.946 -1.3501 -1.0311  0.7929
    3MOL   C218  702   5.726   1.938   0.603 -0.6244  0.2620 -0.5296
    3MOL   C219  703   5.825   2.017   0.514  0.9636  0.6243 -0.3179
    3MOL   C220  704   5.750   2.135   0.444 -0.3261  0.4935 -0.4087
    3MOL   C221  705   5.643   2.092   0.337  0.0571  0.6447  0.6519
    3MOL   H222  706   5.635   1.911   0.550 -0.9199 -0.7394  0.4829
    3MOL   H223  707   5.765   1.837   0.617 -0.2853  0.5923  1.0276
    3MOL   H224  708   5.906   2.058   0.574  1.3757 -0.0722 -0.3889
    3MOL   H225  709   5.818   2.190   0.380  0.1221 -1.0781 -1.3330
    3MOL   H226  710   5.697   2.198   0.515 -1.7561 -0.3688 -0.6803
    3MOL   H227  711   5.605   2.176   0.279 -2.2359  0.0495  1.2098
    3MOL   H228  712   5.687   2.027   0.261  0.9649  0.6731  1.1515
    3MOL   H229  713   5.558   2.040   0.382  1.4721 -0.3757  2.2272
    3MOL   C230  714   5.893   1.928   0.405 -0.1277  0.0748 -0.0812
    3MOL   C231  715   6.011   1.842   0.463 -0.6819 -0.5112  0.5081
    3MOL   C232  716   6.104   1.785   0.355 -0.0828 -0.3164 -0.5902
    3MOL   C233  717   6.230   1.722   0.407  0.8813 -0.1564 -0.3042
    3MOL   H234  718   5.939   1.988   0.327  1.2134  0.5652  1.0641
    3MOL   H235  719   5.816   1.866   0.360 -1.7091  1.6046  0.4616
    3MOL   H236  720   6.083   1.902   0.517 -2.3572 -0.0346  2.2616
    3MOL   H237  721   6.137   1.863   0.287  0.7691 -1.0257 -1.0062
    3MOL   H238  722   6.044   1.714   0.298  0.9358 -0.6913 -1.2123
    3MOL   H239  723   6.215   1.655   0.491 -1.4172  2.3604  1.3788
    3MOL   H240  724   6.278   1.675   0.321  1.2591 -1.5008  0.6405
    3MOL   H241  725   6.303   1.796   0.440  0.8758 -0.9554  1.5363
    3MOL   H242  726   5.978   1.758   0.524  1.5382 -1.1321  0.8825
    4MOL     C1  727   2.344   6.989   5.292 -0.1039  0.9479 -0.0616
    4MOL     C2  728   2.363   6.839   5.310 -0.0794 -0.2787  0.4045
    4MOL     C3  729   2.492   6.789   5.389  0.1955 -1.3399  0.6511
    4MOL     C4  730   2.616   6.827   5.311 -0.7725  0.5831 -0.1159
    4MOL     H5  731   2.403   7.010   5.203  0.7817  3.2018  1.0106
    4MOL     H6  732   2.242   7.010   5.260  0.3424  0.7856 -1.6187
    4MOL     H7  733   2.279   6.810   5.374  0.3227  1.4270  1.7322
    4MOL     H8  734   2.482   6.683   5.410  0.0378 -1.6121 -0.7909
    4MOL     H9  735   2.494   6.840   5.486  0.5446  2.0097 -1.0332
    4MOL    H10  736   2.632   6.769   5.220 -0.1238  0.3098  0.1673
    4MOL    H11  737   2.613   6.934   5.296  1.7426  0.7319  0.2274
    4MOL    H12  738   2.703   6.815   5.375 -0.4352 -0.9681 -0.8432
    4MOL    H13  739   2.369   7.049   5.379  0.2597  0.8114 -0.0689
    4MOL    C14  740   2.347   6.761   5.182  0.0012 -0.3360 -0.5221
    4MOL    C15  741   2.198   6.735   5.131  0.5018  0.0237  0.1480
    4MOL    C16  742   2.156   6.596   5.178 -0.6226  0.5740 -0.5578
    4MOL    C17  743   2.009   6.566   5.194  0.7468  0.5249 -0.2291
    4MOL    H18  744   2.387   6.662   5.203  0.4425  0.1447  0.9729
    4MOL    H19  745   2.425   6.799   5.115 -0.7811 -1.2071 -1.9646
    4MOL    H20  746   2.131   6.808   5.178  1.4363  0.3169  1.0345
    4MOL    H21  747   2.199   6.570   5.274 -1.4327 -0.8970 -0.5696
    4MOL    H22  748   2.193   6.533   5.098  1.9108  0.1535  0.8965
    4MOL    H23  749   2.000   6.471   5.247  1.7453  1.5689  1.8811
    4MOL    H24  750   1.952   6.644   5.242 -0.4363 -0.7802  0.5094
    4MOL    H25  751   1.959   6.549   5.098  0.6166 -2.1518  0.2685
    4MOL    C26  752   2.206   6.744   4.974 -0.1751 -0.6019 -0.0057
    4MOL    C27  753   2.225   6.888   4.923 -1.1191  0.1297 -0.4228
    4MOL    C28  754   2.091   6.968   4.915 -0.1986 -0.1515 -0.0142
    4MOL    C29  755   2.119   7.120   4.938  0.1743  0.9160 -0.6735
    4MOL    H30  756   2.110   6.707   4.936 -0.7079 -1.4654  2.1246
    4MOL    H31  757   2.270   6.672   4.924 -0.2364  0.2587 -1.3435
    4MOL    H32  758   2.272   6.944   5.005 -1.3728 -0.2076 -0.0454
    4MOL    H33  759   2.018   6.937   4.990  0.9413 -0.8799  0.8170
    4MOL    H34  760   2.052   6.948   4.816 -2.4069 -1.8948  1.1810
    4MOL    H35  761   2.181   7.168   4.862  1.8578  2.4095  1.5562
    4MOL    H36  762   2.032   7.185   4.932 -0.3547  0.2237 -0.4923
    4MOL    H37  763   2.169   7.127   5.034 -2.0135  0.8822  0.4898
    4MOL    C38  764   2.312   6.905   4.794  0.1814  0.5051  0.9724
    4MOL    C39  765   2.462   6.893   4.826  0.3957  0.2256  0.1051
    4MOL    C40  766   2.512   7.027   4.878  0.3520  0.3666  0.0464
    4MOL    C41  767   2.642   7.012   4.969 -0.4998  0.0779  0.2999
    4MOL    H42  768   2.281   6.996   4.744  1.3497  0.4483  0.1087
    4MOL    H43  769   2.280   6.828   4.723 -1.4452  0.0078  2.2349
    4MOL    H44  770   2.471   6.815   4.902  0.2265 -0.9700 -1.0755
    4MOL    H45  771   2.451   7.086   4.946 -3.2890 -1.6987 -1.3106
    4MOL    H46  772   2.506   7.083   4.785 -1.7242 -2.9504 -1.9349
    4MOL    H47  773   2.731   6.960   4.935  1.7850  2.3130  2.6129
    4MOL    H48  774   2.673   7.110   5.008 -1.1910  0.8236 -1.0001
    4MOL    H49  775   2.596   6.948   5.044  2.0083 -1.5022  0.5359
    4MOL    C50  776   2.544   6.847   4.701  0.5961  0.0735 -0.1663
    4MOL    C51  777   2.521   6.699   4.658 -0.0896 -0.1874 -0.4736
    4MOL    C52  778   2.655   6.615   4.665 -0.6139  0.3591  0.1636
    4MOL    C53  779   2.774   6.674   4.584 -1.0124 -0.4835  0.6007
    4MOL    H54  780   2.649   6.861   4.726  1.3381 -1.4460 -2.2358
    4MOL    H55  781   2.530   6.921   4.623  3.7039  1.7979  0.8142
    4MOL    H56  782   2.467   6.643   4.734 -0.7542 -1.4979 -1.8835
    4MOL    H57  783   2.634   6.521   4.615  0.8871 -0.2050  0.5641
    4MOL    H58  784   2.694   6.602   4.766 -1.0856  0.1550  0.3154
    4MOL    H59  785   2.827   6.754   4.635 -2.1904  0.7658 -0.1025
    4MOL    H60  786   2.852   6.598   4.573  0.1711  1.0145 -1.9427
    4MOL    H61  787   2.762   6.705   4.480  1.7431 -1.3910 -0.0514
    4MOL    C62  788   2.446   6.683   4.516  0.5849 -0.1552 -0.0595
    4MOL    C63  789   2.365   6.552   4.502  0.5895  0.6152  0.5648
    4MOL    C64  790   2.351   6.512   4.350 -0.3521 -0.6677  0.1934
    4MOL    C65  791   2.485   6.460   4.288  0.4758  0.4617 -0.2712
    4MOL    H66  792   2.511   6.698   4.431  1.6024  1.3927  0.9785
    4MOL    H67  793   2.375   6.765   4.512 -0.0145 -0.7296 -1.5634
    4MOL    H68  794   2.411   6.474   4.562  0.8450 -0.9759 -1.6084
    4MOL    H69  795   2.314   6.602   4.303 -2.2076 -0.4937  1.9245
    4MOL    H70  796   2.276   6.434   4.336  1.9750 -2.4408 -3.3325
    4MOL    H71  797   2.546   6.394   4.349 -0.4141 -0.4151 -0.3081
    4MOL    H72  798   2.474   6.421   4.187  1.0292 -1.5074  0.4015
    4MOL    H73  799   2.540   6.553   4.278  0.0306  0.8754  0.9913
    4MOL    C74  800   2.230   6.563   4.570  0.2213 -0.0087 -0.2542
    4MOL    C75  801   2.144   6.436   4.593 -0.5445  0.4116 -0.0350
    4MOL    C76  802   2.015   6.475   4.672  0.1830  0.0753 -0.6819
    4MOL    C77  803   1.924   6.573   4.606  0.9206 -0.2059 -0.1159
    4MOL    H78  804   2.175   6.638   4.513  1.9747  0.3555 -1.5196
    4MOL    H79  805   2.240   6.620   4.662  0.3665  0.5588 -0.6187
    4MOL    H80  806   2.116   6.387   4.500 -0.9596  0.8492 -0.1437
    4MOL    H81  807   2.026   6.495   4.778  3.5005 -0.4183 -0.8770
    4MOL    H82  808   1.959   6.382   4.672  1.5803 -0.8021  1.4839
    4MOL    H83  809   1.834   6.610   4.656 -0.6390 -2.2926 -1.2663
    4MOL    H84  810   1.974   6.666   4.579  0.8671 -0.3353 -0.6702
    4MOL    H85  811   1.893   6.541   4.506  1.4354 -0.6232 -0.1434
    4MOL    C86  812   2.212   6.322   4.678 -0.6121  0.0012  0.1786
    4MOL    C87  813   2.302   6.225   4.601  0.2215 -0.7362 -0.2834
    4MOL    C88  814   2.213   6.130   4.533 -0.2617  0.5584  0.2328
    4MOL    C89  815   2.296   6.041   4.437 -0.0146 -0.3503 -0.2190
    4MOL    H90  816   2.146   6.257   4.735 -0.5815 -0.1319  0.0641
    4MOL    H91  817   2.261   6.385   4.752  2.1858  0.2060 -1.7631
    4MOL    H92  818   2.366   6.277   4.530  0.7515  0.9510  1.3655
    4MOL    H93  819   2.134   6.178   4.475 -0.9784 -1.4607 -0.5088
    4MOL    H94  820   2.161   6.066   4.605  0.8696  1.9525  2.3087
    4MOL    H95  821   2.230   5.981   4.375  1.0031 -1.0979 -0.5932
    4MOL    H96  822   2.363   6.091   4.367  0.2657  0.4274  0.5993
    4MOL    H97  823   2.367   5.969   4.478  2.9236  1.0401 -2.5794
    4MOL    C98  824   2.385   6.152   4.711 -0.3043 -0.1533  0.1475
    4MOL    C99  825   2.500   6.235   4.768  0.3639 -0.1262 -0.1153
    4MOL   C100  826   2.626   6.232   4.683 -0.2562  0.5106  0.0428
    4MOL   C101  827   2.690   6.089   4.657 -0.0291  0.0157 -0.6825
    4MOL   H102  828   2.430   6.055   4.689 -0.6678  0.1450 -2.0257
    4MOL   H103  829   2.309   6.123   4.783 -1.9039  2.5433 -0.3820
    4MOL   H104  830   2.468   6.339   4.764  1.1715  0.0777 -2.0159
    4MOL   H105  831   2.700   6.292   4.736  0.9278  0.5020 -1.5385
    4MOL   H106  832   2.615   6.272   4.582 -1.3970 -0.3460 -0.1757
    4MOL   H107  833   2.716   6.044   4.752 -1.3529 -0.7059 -0.6570
    4MOL   H108  834   2.624   6.024   4.601  2.6015 -1.9839 -1.5912
    4MOL   H109  835   2.783   6.100   4.599 -0.3200  3.7578 -0.6095
    4MOL   C110  836   2.528   6.186   4.914 -0.1956  0.0585  0.7752
    4MOL   C111  837   2.433   6.230   5.033  0.9297 -0.0052  1.2441
    4MOL   C112  838   2.499   6.339   5.116  0.9947 -0.9241 -0.2519
    4MOL   C113  839   2.527   6.463   5.026 -0.5595 -0.7113  0.3043
    4MOL   H114  840   2.628   6.211   4.946 -0.4926  2.5481 -0.1512
    4MOL   H115  841   2.519   6.078   4.897 -1.3456  0.4816 -1.5568
    4MOL   H116  842   2.341   6.276   4.997 -1.5440 -3.1292  3.2669
    4MOL   H117  843   2.596   6.309   5.155  1.8752  1.8031 -0.2526
    4MOL   H118  844   2.440   6.361   5.204  0.0045  2.6804 -1.7248
    4MOL   H119  845   2.444   6.493   4.962 -1.0311  2.0715  2.1452
    4MOL   H120  846   2.567   6.537   5.095 -0.9714 -0.4211  0.2313
    4MOL   H121  847   2.614   6.459   4.961 -0.1142 -3.4381  1.0122
    4MOL   C122  848   2.395   6.097   5.108 -0.1509 -0.5486  0.0782
    4MOL   C123  849   2.291   6.118   5.230 -0.1643  0.4360 -0.4178
    4MOL   C124  850   2.358   6.127   5.367 -0.0055  0.1393 -0.3784
    4MOL   C125  851   2.289   6.218   5.465 -0.0698 -0.1399  0.1184
    4MOL   H126  852   2.482   6.035   5.134 -0.1670 -0.3252  0.6564
    4MOL   H127  853   2.342   6.030   5.040 -2.0961  0.9420  0.0955
    4MOL   H128  854   2.237   6.212   5.215 -0.5493  0.2505 -0.2128
    4MOL   H129  855   2.464   6.152   5.357  0.0066  0.0696 -0.4219
    4MOL   H130  856   2.361   6.028   5.412  0.4754  0.4996  0.4230
    4MOL   H131  857   2.336   6.211   5.563 -3.1900 -0.2995  1.6572
    4MOL   H132  858   2.305   6.319   5.427 -0.3734 -0.3337 -0.5276
    4MOL   H133  859   2.186   6.189   5.483  0.4550 -1.1801  1.5372
    4MOL   C134  860   2.175   6.008   5.239 -0.7483 -0.4514  0.2440
    4MOL   C135  861   2.061   6.034   5.141 -0.1237  1.0641  0.2455
    4MOL   C136  862   1.962   6.142   5.190  0.6890  0.3466 -0.2319
    4MOL   C137  863   1.866   6.192   5.081  0.2433 -0.4962  0.1837
    4MOL   H138  864   2.141   5.981   5.339 -1.6297 -2.1140 -0.4882
    4MOL   H139  865   2.230   5.919   5.208 -1.5978 -0.8419 -0.1604
    4MOL   H140  866   2.102   6.089   5.057  2.1649 -1.9483 -0.6922
    4MOL   H141  867   2.002   6.233   5.235 -0.9752  0.4964  1.0032
    4MOL   H142  868   1.900   6.093   5.265 -2.5859  0.5040 -2.6746
    4MOL   H143  869   1.771   6.221   5.126  0.5562  0.4555  0.2282
    4MOL   H144  870   1.896   6.281   5.027 -1.6627 -0.7855 -1.4005
    4MOL   H145  871   1.841   6.113   5.010  1.2798 -0.0771 -0.6595
    4MOL   C146  872   1.989   5.901   5.101 -0.3757  0.1581  0.5456
    4MOL   C147  873   2.042   5.829   4.972  0.5885 -0.5388 -0.0812
    4MOL   C148  874   1.983   5.897   4.839  0.2233 -0.3576  0.9051
    4MOL   C149  875   2.029   5.820   4.717  0.6324  0.4119  0.4596
    4MOL   H150  876   1.882   5.911   5.084 -0.1164  0.5507 -0.8808
    4MOL   H151  877   2.014   5.833   5.183  0.2414  0.0044  0.2326
    4MOL   H152  878   2.150   5.841   4.961  0.4739 -0.4149 -1.1615
    4MOL   H153  879   2.026   5.997   4.839 -1.9747  0.6117  2.0736
    4MOL   H154  880   1.875   5.897   4.853 -0.2503 -0.7134 -2.3571
    4MOL   H155  881   1.970   5.733   4.690  0.3276  0.6773  0.2667
    4MOL   H156  882   2.038   5.885   4.629 -0.5092 -0.2393 -0.1516
    4MOL   H157  883   2.130   5.780   4.729  1.1649  1.3088 -0.8232
    4MOL   C158  884   2.017   5.674   4.982 -0.0263  0.2009  0.1547
    4MOL   C159  885   2.110   5.601   5.091 -0.3800 -0.3713 -0.1680
    4MOL   C160  886   2.190   5.500   5.004 -0.5536  0.1790 -0.0030
    4MOL   C161  887   2.278   5.402   5.073  0.3290 -0.0730  0.2842
    4MOL   H162  888   2.036   5.631   4.884 -1.0656 -0.9176  0.4273
    4MOL   H163  889   1.913   5.650   5.005 -0.5894  1.1200 -1.4027
    4MOL   H164  890   2.180   5.680   5.116  0.0192 -0.9040  0.4010
    4MOL   H165  891   2.261   5.561   4.949  0.3941 -0.3357  0.6265
    4MOL   H166  892   2.116   5.437   4.955  1.9222 -2.0111 -1.0223
    4MOL   H167  893   2.339   5.453   5.147  1.8036  1.2210 -1.7475
    4MOL   H168  894   2.220   5.321   5.116 -3.0985  0.5164 -2.9337
    4MOL   H169  895   2.350   5.364   5.000  0.9413  2.2036 -0.3664
    4MOL   C170  896   2.030   5.560   5.219 -0.5372 -0.5586 -0.3707
    4MOL   C171  897   2.118   5.533   5.348  0.4006  0.4338 -0.3946
    4MOL   C172  898   2.026   5.482   5.463  0.0611  0.3719  0.0907
    4MOL   C173  899   1.958   5.587   5.548  0.7620 -0.2145 -0.2253
    4MOL   H174  900   1.974   5.472   5.191  1.7179 -1.8167 -1.0292
    4MOL   H175  901   1.953   5.633   5.244  1.6022  0.6341  3.0788
    4MOL   H176  902   2.190   5.454   5.327 -0.2033 -0.5381  1.1614
    4MOL   H177  903   2.074   5.412   5.532 -0.4910 -1.5135 -1.4051
    4MOL   H178  904   1.947   5.422   5.417 -0.3695  0.4859  0.6823
    4MOL   H179  905   1.893   5.651   5.489 -1.7372 -1.1342  1.4417
    4MOL   H180  906   1.890   5.539   5.619  0.4500 -1.5914 -1.4435
    4MOL   H181  907   2.027   5.644   5.610 -0.0174 -0.0480  0.4971
    4MOL   C182  908   2.200   5.653   5.397 -0.4290 -0.3088  0.5572
    4MOL   C183  909   2.299   5.627   5.516 -0.1781  1.3135 -0.0642
    4MOL   C184  910   2.344   5.757   5.588 -0.6578  0.3950 -0.2413
    4MOL   C185  911   2.395   5.743   5.732  0.2757  0.1412 -0.3177
    4MOL   H186  912   2.143   5.744   5.416  1.2137  1.3439 -2.1575
    4MOL   H187  913   2.263   5.683   5.313  0.3488 -2.0762  0.5022
    4MOL   H188  914   2.236   5.577   5.589  0.0670  1.7953  0.4818
    4MOL   H189  915   2.272   5.838   5.576 -0.2888  0.7953  0.2206
    4MOL   H190  916   2.430   5.794   5.533 -1.6544 -0.0575 -2.1246
    4MOL   H191  917   2.310   5.719   5.797 -0.7760 -0.3895 -1.8489
    4MOL   H192  918   2.478   5.674   5.747  0.7558  0.5279 -1.1851
    4MOL   H193  919   2.414   5.846   5.762 -0.1287 -0.0161  0.4953
    4MOL   C194  920   2.423   5.541   5.486 -0.0245  0.3762  0.2651
    4MOL   C195  921   2.420   5.389   5.492  0.3335  0.4029 -0.2954
    4MOL   C196  922   2.363   5.329   5.625  0.4480  0.6793 -0.2715
    4MOL   C197  923   2.470   5.348   5.746 -0.2541  0.1406 -0.4133
    4MOL   H198  924   2.507   5.570   5.548  0.1347 -1.5787  0.9926
    4MOL   H199  925   2.459   5.567   5.386 -0.4862 -1.8592 -0.5334
    4MOL   H200  926   2.347   5.361   5.416  0.3492  0.5098 -0.3490
    4MOL   H201  927   2.357   5.221   5.619  1.0794  0.6399 -0.2488
    4MOL   H202  928   2.264   5.365   5.655  1.3371  1.8901  1.3281
    4MOL   H203  929   2.437   5.309   5.843 -0.4470 -1.8788 -1.2722
    4MOL   H204  930   2.565   5.294   5.738 -0.4547 -0.3970  0.6492
    4MOL   H205  931   2.483   5.456   5.748 -0.1945  0.1596 -1.5178
    4MOL   C206  932   2.552   5.331   5.439 -0.2222 -0.5080  0.1348
    4MOL   C207  933   2.546   5.182   5.393 -0.5617 -0.3094 -0.3978
    4MOL   C208  934   2.691   5.125   5.383 -0.3937  0.4887 -0.1676
    4MOL   C209  935   2.774   5.114   5.514  0.7357 -0.1533 -0.2139
    4MOL   H210  936   2.630   5.337   5.515 -1.5227  0.1703  1.4299
    4MOL   H211  937   2.576   5.384   5.347  0.0979 -2.4372 -0.9117
    4MOL   H212  938   2.504   5.123   5.474 -1.3805  0.5673 -0.1726
    4MOL   H213  939   2.746   5.193   5.318 -1.3767  0.2615 -1.2765
    4MOL   H214  940   2.696   5.030   5.330 -3.2102  1.3188 -2.0361
    4MOL   H215  941   2.881   5.100   5.495  0.5588 -1.9305  0.0442
    4MOL   H216  942   2.763   5.200   5.580  3.4095  2.1613 -2.6289
    4MOL   H217  943   2.745   5.024   5.568  0.3267  1.3342  2.1307
    4MOL   C218  944   2.458   5.156   5.268 -0.0539  0.4387  0.0141
    4MOL   C219  945   2.367   5.030   5.251 -0.0425  0.6923  0.5006
    4MOL   C220  946   2.251   5.019   5.357  0.0283  0.7008  0.0533
    4MOL   C221  947   2.126   5.107   5.337  0.0093  0.0149  0.5090
    4MOL   H222  948   2.529   5.180   5.188  1.4511 -0.6947  0.9824
    4MOL   H223  949   2.392   5.242   5.263  1.4682  1.7900  2.3667
    4MOL   H224  950   2.321   5.048   5.153 -0.8384  1.3764  0.9954
    4MOL   H225  951   2.298   5.036   5.454  1.5659  0.6434 -0.6662
    4MOL   H226  952   2.216   4.917   5.346  2.3819 -0.1113 -0.3199
    4MOL   H227  953   2.072   5.111   5.432 -0.6554  2.1088  0.0654
    4MOL   H228  954   2.156   5.209   5.310 -1.6705  0.4982  0.3806
    4MOL   H229  955   2.063   5.071   5.256  1.7146 -2.9310  0.4148
    4MOL   C230  956   2.440   4.891   5.258 -0.0297 -0.0379 -0.2805
    4MOL   C231  957   2.549   4.881   5.148 -0.4358  0.0609  0.5052
    4MOL   C232  958   2.638   4.751   5.153 -0.4659 -0.3756  0.5873
    4MOL   C233  959   2.740   4.744   5.035 -0.4907 -0.3072 -1.0347
    4MOL   H234  960   2.373   4.808   5.240 -0.9507  0.4620  0.7705
    4MOL   H235  961   2.481   4.866   5.356  1.2305 -2.0403 -1.2714
    4MOL   H236  962   2.487   4.871   5.058 -0.2842  1.4352  0.2327
    4MOL   H237  963   2.582   4.658   5.152 -0.6215 -0.2983  1.3670
    4MOL   H238  964   2.707   4.743   5.237 -1.7730 -2.2616  1.5236
    4MOL   H239  965   2.785   4.645   5.037 -1.9428 -0.9907 -1.4046
    4MOL   H240  966   2.692   4.761   4.939 -0.4418 -0.1118 -1.0243
    4MOL   H241  967   2.827   4.809   5.042 -0.6686 -0.1663 -0.0323
    4MOL   H242  968   2.627   4.957   5.144 -1.2413  0.8460 -0.6459
    5MOL     C1  969   2.452   4.485   6.165  0.3875  0.6233  0.0208
    5MOL     C2  970   2.506   4.585   6.060  0.3258  0.1970  0.4415
    5MOL     C3  971   2.660   4.597   6.054 -0.2736 -0.2193 -0.1126
    5MOL     C4  972   2.749   4.466   6.068 -0.2588 -0.7472 -0.0155
    5MOL     H5  973   2.488   4.518   6.262  0.2284  0.2917  0.1918
    5MOL     H6  974   2.343   4.489   6.176  0.3847 -1.5367  1.0627
    5MOL     H7  975   2.481   4.545   5.962  0.7583 -0.1621  0.4739
    5MOL     H8  976   2.676   4.655   6.146  1.1064  0.7628 -0.9628
    5MOL     H9  977   2.692   4.650   5.964 -0.2356 -1.0677 -0.5999
    5MOL    H10  978   2.852   4.486   6.098 -0.0038 -3.1164  0.7222
    5MOL    H11  979   2.705   4.396   6.139  1.4036 -0.3333  1.4737
    5MOL    H12  980   2.755   4.413   5.973  1.2243 -1.7869  0.6450
    5MOL    H13  981   2.473   4.380   6.146 -0.3813  0.0346  2.2706
    5MOL    C14  982   2.439   4.716   6.093  0.3487  0.0292 -0.2776
    5MOL    C15  983   2.450   4.826   5.978  0.5334  0.5730  0.0335
    5MOL    C16  984   2.570   4.930   5.999  0.2663 -0.1951 -0.5632
    5MOL    C17  985   2.600   5.009   5.876  0.5016  0.0568  0.3961
    5MOL    H18  986   2.460   4.768   6.187  0.6705  0.3303 -0.5209
    5MOL    H19  987   2.331   4.697   6.095  0.3934 -0.2693 -0.7946
    5MOL    H20  988   2.461   4.785   5.878 -1.2077  0.7578 -0.2508
    5MOL    H21  989   2.658   4.870   6.022  0.4196 -0.7227 -2.4822
    5MOL    H22  990   2.551   4.987   6.090  1.0172 -1.8164  0.6235
    5MOL    H23  991   2.551   5.106   5.885 -2.0060 -1.1625  0.3712
    5MOL    H24  992   2.707   5.025   5.860  0.0702  0.7696 -1.9259
    5MOL    H25  993   2.567   4.958   5.786  0.5876  1.8312 -0.6730
    5MOL    C26  994   2.316   4.906   5.964  0.0523  0.0935 -0.3971
    5MOL    C27  995   2.202   4.846   5.865 -0.4533 -0.1308  0.3350
    5MOL    C28  996   2.199   4.920   5.736 -0.0770  0.1816  0.3093
    5MOL    C29  997   2.138   5.072   5.737  0.0376 -0.1348  0.1467
    5MOL    H30  998   2.343   5.007   5.932  2.2963 -0.6888 -1.0236
    5MOL    H31  999   2.262   4.914   6.059  0.5490 -0.7398 -0.0443
    5MOL    H32 1000   2.222   4.740   5.850 -1.6027 -0.2698 -0.2315
    5MOL    H33 1001   2.158   4.859   5.655  0.7642  1.3351 -0.9943
    5MOL    H34 1002   2.303   4.919   5.706 -0.3715  1.9123 -0.8248
    5MOL    H35 1003   2.030   5.084   5.748  0.0185  1.9460 -1.9323
    5MOL    H36 1004   2.189   5.131   5.813  4.2507 -1.3819 -1.5981
    5MOL    H37 1005   2.147   5.101   5.633 -1.1178 -0.8732 -0.1727
    5MOL    C38 1006   2.060   4.847   5.923 -0.6761 -0.9394 -0.0763
    5MOL    C39 1007   2.046   4.749   6.046  0.0015 -0.2906  0.8095
    5MOL    C40 1008   2.058   4.601   6.011 -0.4666 -0.3257  0.4559
    5MOL    C41 1009   1.973   4.550   5.892 -0.1642 -0.9300  0.4935
    5MOL    H42 1010   1.980   4.837   5.850 -0.3317  0.8051 -0.7123
    5MOL    H43 1011   2.062   4.952   5.953 -0.9619 -0.1505 -2.7578
    5MOL    H44 1012   2.123   4.766   6.121  0.3021  3.2969 -0.2156
    5MOL    H45 1013   2.045   4.537   6.099 -0.3287 -1.7021 -0.5107
    5MOL    H46 1014   2.164   4.583   5.994 -0.4745  0.7941 -0.8239
    5MOL    H47 1015   1.870   4.526   5.920 -0.3188 -1.5751 -0.6080
    5MOL    H48 1016   1.974   4.614   5.804 -0.8268  0.2893  1.3660
    5MOL    H49 1017   2.020   4.463   5.846 -1.6472 -2.8842  2.5463
    5MOL    C50 1018   1.914   4.781   6.123 -1.1049 -0.1624 -0.6072
    5MOL    C51 1019   1.885   4.705   6.257 -0.0676 -0.9858 -0.1481
    5MOL    C52 1020   1.740   4.716   6.315 -0.6256 -0.7457  0.0478
    5MOL    C53 1021   1.634   4.681   6.216 -0.5180  0.5712  0.0447
    5MOL    H54 1022   1.836   4.766   6.048 -1.2659 -0.0086 -0.4706
    5MOL    H55 1023   1.907   4.889   6.135 -0.1791 -0.1251 -0.3351
    5MOL    H56 1024   1.883   4.599   6.230  3.7936 -0.8096 -1.3916
    5MOL    H57 1025   1.715   4.819   6.343  0.8738 -0.3857  0.1211
    5MOL    H58 1026   1.733   4.658   6.407 -4.2666 -0.5124  0.0010
    5MOL    H59 1027   1.633   4.758   6.140  0.1496 -1.7551 -2.4124
    5MOL    H60 1028   1.631   4.576   6.184 -0.3883  0.2961  0.9265
    5MOL    H61 1029   1.543   4.705   6.271  0.7709  0.1937  2.4185
    5MOL    C62 1030   2.000   4.720   6.361  0.2638  0.8087  0.5037
    5MOL    C63 1031   2.015   4.858   6.424  0.0522 -0.0300 -0.0736
    5MOL    C64 1032   2.158   4.884   6.465  0.1419 -0.1014  0.2354
    5MOL    C65 1033   2.219   4.795   6.572 -0.0380 -0.7841 -0.0754
    5MOL    H66 1034   2.089   4.679   6.312  0.5544 -0.4834  2.0699
    5MOL    H67 1035   1.983   4.660   6.450 -1.5720  2.6351  1.4140
    5MOL    H68 1036   1.981   4.925   6.345  0.6259 -1.3212 -1.4326
    5MOL    H69 1037   2.153   4.984   6.507 -2.0351  0.5309 -1.4407
    5MOL    H70 1038   2.224   4.886   6.378 -0.0801 -0.2008  0.0645
    5MOL    H71 1039   2.199   4.829   6.674  1.3631  0.9311 -0.3621
    5MOL    H72 1040   2.204   4.688   6.554 -1.8940 -0.4108 -0.7850
    5MOL    H73 1041   2.327   4.814   6.571 -0.0607 -0.6193  0.4866
    5MOL    C74 1042   1.917   4.882   6.544 -0.1476 -0.2985  0.1474
    5MOL    C75 1043   1.899   5.032   6.582  0.2612  0.2727  0.1126
    5MOL    C76 1044   1.797   5.038   6.707 -0.0555  0.4926 -0.3438
    5MOL    C77 1045   1.839   4.955   6.834  0.3364  0.8200 -0.7663
    5MOL    H78 1046   1.953   4.814   6.621  0.7482 -1.6026 -1.3717
    5MOL    H79 1047   1.822   4.835   6.519 -0.3990 -0.3251  1.1486
    5MOL    H80 1048   1.991   5.086   6.603 -0.1332  0.7395  0.6434
    5MOL    H81 1049   1.715   4.983   6.661 -1.1530  1.6203  0.2570
    5MOL    H82 1050   1.758   5.131   6.748 -2.2084 -0.3654 -0.3799
    5MOL    H83 1051   1.819   4.849   6.818 -0.6287  1.0421 -1.0695
    5MOL    H84 1052   1.940   4.966   6.872 -0.1609 -0.6679  1.0874
    5MOL    H85 1053   1.775   4.981   6.919  1.9231  0.9291  0.4140
    5MOL    C86 1054   1.825   5.119   6.474 -0.7530  0.4827  0.5035
    5MOL    C87 1055   1.829   5.279   6.492  0.4658 -0.1563  0.0424
    5MOL    C88 1056   1.699   5.350   6.450  0.2281 -0.1852  1.1061
    5MOL    C89 1057   1.579   5.308   6.536 -0.4654  0.1050 -0.1455
    5MOL    H90 1058   1.723   5.087   6.456 -0.6148  1.4940 -2.3522
    5MOL    H91 1059   1.876   5.104   6.378  1.8089 -1.3273  2.0795
    5MOL    H92 1060   1.832   5.311   6.596  2.6161  0.2105 -0.1094
    5MOL    H93 1061   1.677   5.321   6.347 -0.1919  1.5012  0.7032
    5MOL    H94 1062   1.706   5.459   6.442 -0.9689 -0.0372  1.9684
    5MOL    H95 1063   1.547   5.208   6.506 -0.7322  0.4291 -0.9509
    5MOL    H96 1064   1.612   5.305   6.640  0.6362  1.7766 -0.4339
    5MOL    H97 1065   1.488   5.367   6.528  0.0946  0.9622 -0.2369
    5MOL    C98 1066   1.962   5.339   6.429 -0.5544 -0.6071  0.4755
    5MOL    C99 1067   2.103   5.304   6.478  0.1218  0.2655  0.2888
    5MOL   C100 1068   2.116   5.328   6.635 -0.2923 -0.1628 -0.1656
    5MOL   C101 1069   2.077   5.473   6.687 -0.1785  0.6481 -0.2859
    5MOL   H102 1070   1.958   5.448   6.439 -1.0842 -0.5884  0.0762
    5MOL   H103 1071   1.961   5.317   6.323 -0.8152 -0.7618  0.5081
    5MOL   H104 1072   2.111   5.196   6.476  1.8279  0.3851 -1.7987
    5MOL   H105 1073   2.218   5.315   6.670 -0.5589 -0.3802  0.5418
    5MOL   H106 1074   2.071   5.253   6.700 -0.1161 -0.0374  0.0996
    5MOL   H107 1075   2.108   5.554   6.621  0.8078 -0.5374 -1.3011
    5MOL   H108 1076   1.969   5.474   6.705 -0.1677 -0.2323 -0.1477
    5MOL   H109 1077   2.132   5.486   6.780 -1.3300 -1.3290  0.6911
    5MOL   C110 1078   2.207   5.371   6.400 -0.3209  0.8385  0.3555
    5MOL   C111 1079   2.239   5.302   6.265 -0.1183 -0.2913 -0.0645
    5MOL   C112 1080   2.307   5.165   6.274  0.0453 -0.3212  0.1633
    5MOL   C113 1081   2.430   5.154   6.371  0.2830  0.1751 -0.5452
    5MOL   H114 1082   2.298   5.365   6.459  0.5550 -1.2010 -1.1331
    5MOL   H115 1083   2.187   5.476   6.376 -0.7308  0.7432  0.2734
    5MOL   H116 1084   2.146   5.287   6.211 -0.4606  2.3697 -0.3038
    5MOL   H117 1085   2.334   5.123   6.177 -1.4474 -1.2176  0.1209
    5MOL   H118 1086   2.233   5.090   6.302  0.0021  0.2072  1.5108
    5MOL   H119 1087   2.499   5.236   6.352 -0.8695  1.5873  1.2120
    5MOL   H120 1088   2.416   5.168   6.478  2.9722 -0.3191 -0.0826
    5MOL   H121 1089   2.510   5.086   6.340 -1.2256 -0.8900 -2.2347
    5MOL   C122 1090   2.337   5.392   6.178  0.4698 -0.4558  0.1387
    5MOL   C123 1091   2.256   5.504   6.104  0.2659 -0.0516 -0.3588
    5MOL   C124 1092   2.225   5.446   5.965 -0.0725 -0.1828 -0.4561
    5MOL   C125 1093   2.102   5.500   5.892  0.0879 -0.1235  0.1161
    5MOL   H126 1094   2.375   5.321   6.105 -3.9541 -1.4471 -1.3289
    5MOL   H127 1095   2.420   5.438   6.232  0.7300  0.2857 -0.8720
    5MOL   H128 1096   2.160   5.512   6.154  0.5576 -0.9139  0.3569
    5MOL   H129 1097   2.209   5.338   5.963  4.9703 -1.0550 -0.8279
    5MOL   H130 1098   2.310   5.478   5.905  1.7496 -0.7744  1.7297
    5MOL   H131 1099   2.091   5.475   5.787 -0.1529  0.5027 -0.0138
    5MOL   H132 1100   2.016   5.447   5.933  0.5294 -0.8519  0.1058
    5MOL   H133 1101   2.093   5.608   5.907  2.3338  0.1166 -0.0111
    5MOL   C134 1102   2.335   5.642   6.107 -0.3948  0.2354  0.1008
    5MOL   C135 1103   2.356   5.714   6.245  0.5570  0.3769 -0.1125
    5MOL   C136 1104   2.217   5.778   6.289  0.0135 -0.3181  0.0971
    5MOL   C137 1105   2.220   5.817   6.437  0.0679  0.0264 -0.0682
    5MOL   H138 1106   2.285   5.709   6.038  0.4796  1.1264  0.3216
    5MOL   H139 1107   2.434   5.625   6.064 -0.1635  0.0450  0.7006
    5MOL   H140 1108   2.386   5.646   6.324  0.8478  1.4406  0.7038
    5MOL   H141 1109   2.136   5.705   6.293  0.7754 -1.0969  1.8480
    5MOL   H142 1110   2.184   5.852   6.217 -0.7898  0.4784  1.2643
    5MOL   H143 1111   2.249   5.731   6.497 -1.0827 -1.0526 -1.0427
    5MOL   H144 1112   2.294   5.896   6.456  1.3753 -1.0998 -0.4103
    5MOL   H145 1113   2.121   5.858   6.457  0.5970  1.8192 -0.9489
    5MOL   C146 1114   2.474   5.815   6.232  0.0768 -0.2812 -0.3461
    5MOL   C147 1115   2.592   5.787   6.334 -0.3959 -0.3017  0.1265
    5MOL   C148 1116   2.678   5.667   6.276  0.2566  0.3068  1.0762
    5MOL   C149 1117   2.741   5.680   6.135  0.0434  0.2858 -0.5083
    5MOL   H150 1118   2.425   5.909   6.256  1.1092  0.0151  0.6304
    5MOL   H151 1119   2.517   5.822   6.132 -1.4337 -0.8279 -1.0484
    5MOL   H152 1120   2.646   5.881   6.321 -1.6720  0.4478  0.1511
    5MOL   H153 1121   2.613   5.581   6.267  1.2651 -0.2775 -0.8589
    5MOL   H154 1122   2.756   5.640   6.348  0.8836 -0.4697  0.1135
    5MOL   H155 1123   2.795   5.586   6.120  0.6632  0.6426 -0.5087
    5MOL   H156 1124   2.659   5.680   6.064  0.2134 -2.5855 -0.7733
    5MOL   H157 1125   2.811   5.758   6.106  1.0053 -1.1274 -2.0800
    5MOL   C158 1126   2.556   5.785   6.484  0.2566 -0.2002  0.3247
    5MOL   C159 1127   2.668   5.759   6.589  0.1845 -0.9829  0.3029
    5MOL   C160 1128   2.591   5.687   6.702  0.4636  0.0381 -0.0399
    5MOL   C161 1129   2.490   5.780   6.775  0.2524  0.4903  0.2115
    5MOL   H162 1130   2.483   5.707   6.506  0.1466  0.0302  0.7809
    5MOL   H163 1131   2.495   5.871   6.511 -0.5216 -0.6726  0.0843
    5MOL   H164 1132   2.741   5.687   6.553 -2.0185 -2.9594 -0.3029
    5MOL   H165 1133   2.682   5.665   6.759  0.7147  0.0958 -0.4163
    5MOL   H166 1134   2.544   5.597   6.663 -2.8309  1.6302  0.1173
    5MOL   H167 1135   2.524   5.874   6.817 -1.2759  1.4879 -0.7409
    5MOL   H168 1136   2.399   5.800   6.719  0.3535 -0.4544 -0.3067
    5MOL   H169 1137   2.464   5.726   6.866  0.4616  0.6214  0.3477
    5MOL   C170 1138   2.738   5.895   6.619  0.3567  0.1433  0.6619
    5MOL   C171 1139   2.853   5.937   6.524  0.5718 -0.0461 -0.3225
    5MOL   C172 1140   2.989   5.890   6.586  0.3491 -0.0205 -0.3910
    5MOL   C173 1141   3.086   5.863   6.464  0.2425 -0.3725  0.0717
    5MOL   H174 1142   2.775   5.898   6.722 -0.7188  0.3618  1.0516
    5MOL   H175 1143   2.656   5.967   6.619  0.2425  0.0246 -1.1373
    5MOL   H176 1144   2.840   5.895   6.424  0.7810  1.8074 -1.1404
    5MOL   H177 1145   2.977   5.798   6.644 -0.0088 -1.4290 -2.6504
    5MOL   H178 1146   3.033   5.957   6.660  2.8695 -3.4381  1.4218
    5MOL   H179 1147   3.134   5.955   6.430  1.3508 -0.7538  0.5782
    5MOL   H180 1148   3.159   5.785   6.488  1.5759  1.0581  0.8473
    5MOL   H181 1149   3.026   5.828   6.381 -0.6604  1.1450  0.0574
    5MOL   C182 1150   2.856   6.090   6.510 -0.4469 -0.3772 -0.2734
    5MOL   C183 1151   2.765   6.144   6.397 -0.3536  0.8699 -0.2721
    5MOL   C184 1152   2.833   6.157   6.257 -0.2985 -0.9443  0.0817
    5MOL   C185 1153   2.975   6.230   6.248 -0.4005  0.3715 -0.0380
    5MOL   H186 1154   2.958   6.127   6.499 -0.1940 -0.8131  0.6049
    5MOL   H187 1155   2.829   6.132   6.607  0.4464 -0.6147  0.0917
    5MOL   H188 1156   2.677   6.080   6.392 -1.0242  1.8561 -1.5158
    5MOL   H189 1157   2.760   6.207   6.192  1.1464 -2.1215 -2.5138
    5MOL   H190 1158   2.852   6.060   6.213  0.3121  0.2991 -2.4977
    5MOL   H191 1159   3.057   6.168   6.286 -0.3864 -0.2152 -1.0175
    5MOL   H192 1160   3.009   6.269   6.153  0.6425  1.2883  0.6951
    5MOL   H193 1161   2.970   6.320   6.309 -2.2681 -0.7483  1.5268
    5MOL   C194 1162   2.710   6.282   6.444 -0.6640  0.8522  0.1676
    5MOL   C195 1163   2.584   6.330   6.380  0.0147 -0.3456 -0.0181
    5MOL   C196 1164   2.547   6.462   6.454  0.1082  0.0369  0.2471
    5MOL   C197 1165   2.645   6.569   6.429 -0.1704 -0.5194  0.3177
    5MOL   H198 1166   2.787   6.359   6.436 -0.5200  0.7088  0.1814
    5MOL   H199 1167   2.697   6.279   6.552 -1.0724 -1.6221  0.0776
    5MOL   H200 1168   2.593   6.356   6.274  0.8123  0.5344  0.2571
    5MOL   H201 1169   2.553   6.448   6.562 -0.4477 -3.0123 -0.0711
    5MOL   H202 1170   2.444   6.487   6.433 -0.1932 -1.1629  0.2368
    5MOL   H203 1171   2.737   6.562   6.486  0.1980  2.5391  0.1839
    5MOL   H204 1172   2.682   6.580   6.327 -3.6139 -0.4561 -1.0002
    5MOL   H205 1173   2.596   6.661   6.459  1.8117  0.7157 -0.1749
    5MOL   C206 1174   2.461   6.241   6.392 -0.3588  0.3602  0.3282
    5MOL   C207 1175   2.344   6.273   6.296  0.1872  0.0105  0.1407
    5MOL   C208 1176   2.206   6.237   6.361  0.3478 -0.4061  0.2193
    5MOL   C209 1177   2.085   6.293   6.274 -0.6348 -0.1193  0.5308
    5MOL   H210 1178   2.420   6.250   6.492  2.0844  1.6162  1.2481
    5MOL   H211 1179   2.486   6.136   6.379 -0.2889  0.2947  0.9783
    5MOL   H212 1180   2.337   6.381   6.283 -0.2256 -0.1451 -1.0648
    5MOL   H213 1181   2.190   6.280   6.460 -2.6028  1.3271 -0.9195
    5MOL   H214 1182   2.199   6.130   6.381  1.5835 -0.8483 -1.6099
    5MOL   H215 1183   2.106   6.396   6.245  0.2185 -0.1138  1.1490
    5MOL   H216 1184   2.068   6.230   6.187 -0.4652 -0.2324  0.5804
    5MOL   H217 1185   1.997   6.294   6.339 -1.1972 -0.1193 -0.2259
    5MOL   C218 1186   2.368   6.210   6.154  0.4139  0.2247  0.9388
    5MOL   C219 1187   2.315   6.299   6.043  0.3351 -0.4328 -0.1678
    5MOL   C220 1188   2.279   6.230   5.909  0.0959  0.1378 -0.8796
    5MOL   C221 1189   2.129   6.185   5.903 -0.6628 -0.3841 -0.2895
    5MOL   H222 1190   2.316   6.115   6.149 -0.8083  0.8181  1.9671
    5MOL   H223 1191   2.471   6.178   6.136  0.1907 -0.0530  0.1612
    5MOL   H224 1192   2.218   6.340   6.071 -1.0493 -2.9382 -1.1270
    5MOL   H225 1193   2.344   6.143   5.896 -0.0627  0.1885 -2.0939
    5MOL   H226 1194   2.316   6.291   5.826  0.7956 -0.7037 -1.1963
    5MOL   H227 1195   2.075   6.278   5.916  1.7570  0.7346  2.2064
    5MOL   H228 1196   2.112   6.132   5.809 -1.9176  1.1288 -0.9383
    5MOL   H229 1197   2.101   6.117   5.984  1.5472 -0.4810  0.4176
    5MOL   C230 1198   2.418   6.412   6.014 -0.0211  0.5217  0.0165
    5MOL   C231 1199   2.371   6.533   5.941 -0.2627  0.4517 -0.3678
    5MOL   C232 1200   2.458   6.658   5.963 -0.6110 -0.2198  0.1634
    5MOL   C233 1201   2.609   6.647   5.928 -0.0653 -0.5709 -0.5191
    5MOL   H234 1202   2.516   6.372   5.987 -0.5925 -3.1983  3.0867
    5MOL   H235 1203   2.447   6.459   6.108  2.9866 -1.2279  0.0040
    5MOL   H236 1204   2.355   6.516   5.834  0.8066 -0.2804 -0.4234
    5MOL   H237 1205   2.442   6.697   6.063  0.0038 -0.2374  0.2681
    5MOL   H238 1206   2.419   6.739   5.900 -2.0644 -0.9569  0.0978
    5MOL   H239 1207   2.655   6.559   5.974  0.7980  0.7189  1.1525
    5MOL   H240 1208   2.611   6.631   5.820  1.4636 -0.8521 -0.4663
    5MOL   H241 1209   2.675   6.731   5.950 -0.2309 -1.0154  1.8425
    5MOL   H242 1210   2.269   6.544   5.979  0.0089  0.3225  0.3993
    6MOL     C1 1211   1.156   1.788   5.108  0.0454 -0.3374  0.2994
    6MOL     C2 1212   1.266   1.720   5.182 -0.0032 -0.0540 -0.0662
    6MOL     C3 1213   1.375   1.673   5.077  0.4952 -0.2048 -0.2012
    6MOL     C4 1214   1.503   1.647   5.157 -0.1494  0.7968  0.2939
    6MOL     H5 1215   1.196   1.880   5.063  1.9326 -0.6022  1.3548
    6MOL     H6 1216   1.103   1.737   5.029 -2.0561  2.3233 -0.0856
    6MOL     H7 1217   1.316   1.786   5.252  0.2574 -0.9963  0.6446
    6MOL     H8 1218   1.390   1.745   4.996  0.1740  0.5791  0.4280
    6MOL     H9 1219   1.346   1.579   5.030  0.6044 -1.1424  1.5577
    6MOL    H10 1220   1.572   1.607   5.083  0.3203  2.7180 -0.3479
    6MOL    H11 1221   1.553   1.736   5.196  0.3796  1.3584 -1.5901
    6MOL    H12 1222   1.480   1.567   5.227  0.4988 -0.5884 -1.0391
    6MOL    H13 1223   1.081   1.824   5.178 -0.4726 -0.3077 -0.2757
    6MOL    C14 1224   1.206   1.603   5.270 -0.6033 -0.5848 -0.9002
    6MOL    C15 1225   1.108   1.644   5.389 -0.3814 -0.6374  1.0822
    6MOL    C16 1226   1.193   1.711   5.502  0.4821 -0.5425  0.1194
    6MOL    C17 1227   1.106   1.812   5.581 -0.6609 -0.1231  0.6530
    6MOL    H18 1228   1.287   1.548   5.318 -1.5973  0.2793  1.8757
    6MOL    H19 1229   1.156   1.541   5.196 -1.0523 -0.1546 -0.9659
    6MOL    H20 1230   1.022   1.701   5.353  0.1522 -0.4923  0.0094
    6MOL    H21 1231   1.287   1.753   5.468 -0.3318  1.7610  0.6270
    6MOL    H22 1232   1.233   1.634   5.568  0.6260  0.0461  0.7232
    6MOL    H23 1233   1.042   1.866   5.511 -1.7714 -0.4820  1.3812
    6MOL    H24 1234   1.035   1.758   5.643 -1.1207 -0.0480  0.1988
    6MOL    H25 1235   1.165   1.882   5.640  1.0398 -1.8677  1.1086
    6MOL    C26 1236   1.042   1.511   5.439  0.2599 -0.1705  0.1474
    6MOL    C27 1237   0.912   1.470   5.363 -0.0349 -0.0069 -0.6309
    6MOL    C28 1238   0.777   1.545   5.379  0.1907 -0.4734  0.2992
    6MOL    C29 1239   0.708   1.520   5.515 -0.2406  0.4437  0.1632
    6MOL    H30 1240   1.016   1.530   5.544 -2.8450 -1.7181 -0.3048
    6MOL    H31 1241   1.117   1.431   5.443  1.8089  1.2102 -0.4875
    6MOL    H32 1242   0.937   1.477   5.258 -0.0938  0.5768 -0.6053
    6MOL    H33 1243   0.718   1.511   5.293  1.2781 -0.7557 -0.3392
    6MOL    H34 1244   0.795   1.652   5.368 -3.2429  0.1044 -0.3050
    6MOL    H35 1245   0.707   1.416   5.549 -0.9536  0.6893  0.8774
    6MOL    H36 1246   0.758   1.567   5.600  3.5069 -1.0648 -1.0863
    6MOL    H37 1247   0.614   1.575   5.520  0.0197  1.2877 -2.9134
    6MOL    C38 1248   0.890   1.319   5.392 -0.5040  0.6254  0.6529
    6MOL    C39 1249   0.980   1.211   5.321 -0.8521  0.0638  0.7239
    6MOL    C40 1250   0.961   1.224   5.167  0.5047  0.0652  0.3835
    6MOL    C41 1251   1.048   1.136   5.080 -0.3450  0.6527  0.0097
    6MOL    H42 1252   0.789   1.284   5.374  0.0989 -1.5598  1.3975
    6MOL    H43 1253   0.909   1.301   5.498  1.7690  0.9943  0.3416
    6MOL    H44 1254   1.084   1.241   5.332 -1.2048  1.0917  1.3194
    6MOL    H45 1255   0.982   1.325   5.132  0.4323 -0.3438 -0.8644
    6MOL    H46 1256   0.856   1.207   5.143  0.7054  0.6778 -0.9581
    6MOL    H47 1257   1.050   1.173   4.977 -2.5560 -0.1252 -0.3319
    6MOL    H48 1258   1.150   1.128   5.119 -0.4422  1.2539  0.3898
    6MOL    H49 1259   1.021   1.031   5.068  2.4873  0.0381 -1.6149
    6MOL    C50 1260   0.970   1.071   5.389 -0.4493 -0.6676 -0.4282
    6MOL    C51 1261   1.042   1.044   5.522  0.9735  0.1129 -0.5432
    6MOL    C52 1262   1.199   1.059   5.505  1.0401  0.3703  0.1180
    6MOL    C53 1263   1.257   0.960   5.405 -0.4505 -0.2552  0.5815
    6MOL    H54 1264   1.018   1.010   5.313  1.6134 -2.1389  1.9843
    6MOL    H55 1265   0.864   1.049   5.403 -0.2376 -2.3891 -1.3197
    6MOL    H56 1266   1.000   1.122   5.585  0.9976 -0.1756 -0.1660
    6MOL    H57 1267   1.248   1.050   5.602  2.8422  0.7963 -0.7320
    6MOL    H58 1268   1.231   1.159   5.479  0.7165  0.1665 -1.0774
    6MOL    H59 1269   1.364   0.981   5.405  0.0156 -2.5186  2.0237
    6MOL    H60 1270   1.233   0.862   5.446  2.6367 -0.3700  2.3121
    6MOL    H61 1271   1.221   0.981   5.305  2.2959  0.4963 -0.2914
    6MOL    C62 1272   1.006   0.911   5.598 -0.2021 -0.6777 -0.0400
    6MOL    C63 1273   0.853   0.896   5.636  0.0230  0.1648  0.0502
    6MOL    C64 1274   0.822   0.995   5.743  0.1425  0.2649 -0.7762
    6MOL    C65 1275   0.681   0.986   5.807 -0.0070  0.2716  0.2110
    6MOL    H66 1276   1.070   0.896   5.685 -1.3973  0.9978  1.1652
    6MOL    H67 1277   1.031   0.828   5.533  0.3807 -0.6556  0.1602
    6MOL    H68 1278   0.784   0.937   5.562 -0.4705  0.6107  0.7463
    6MOL    H69 1279   0.834   1.102   5.725  0.5978  0.6509  1.7022
    6MOL    H70 1280   0.886   0.989   5.830 -0.6459 -1.4534 -0.2940
    6MOL    H71 1281   0.673   0.898   5.870 -0.4489  0.2767  0.1582
    6MOL    H72 1282   0.652   1.072   5.867 -1.0848  0.9750 -1.3000
    6MOL    H73 1283   0.614   0.983   5.721 -1.1449 -0.2895  1.1130
    6MOL    C74 1284   0.813   0.750   5.664  0.2586 -0.2419  1.4711
    6MOL    C75 1285   0.823   0.640   5.559 -0.1055 -0.9047 -0.4099
    6MOL    C76 1286   0.750   0.682   5.428  0.5933  0.2907 -0.2104
    6MOL    C77 1287   0.596   0.688   5.452  0.2385  0.3007  0.1107
    6MOL    H78 1288   0.711   0.748   5.702  0.0106 -2.3796  0.7365
    6MOL    H79 1289   0.875   0.726   5.750  2.1006 -1.2847 -0.1076
    6MOL    H80 1290   0.930   0.637   5.537  0.2706 -0.9037  1.3640
    6MOL    H81 1291   0.771   0.607   5.352  0.0733  1.7951 -1.8913
    6MOL    H82 1292   0.788   0.778   5.393 -1.3899  1.0268 -0.4304
    6MOL    H83 1293   0.551   0.741   5.368 -0.8169  0.0099  0.4846
    6MOL    H84 1294   0.556   0.587   5.454  0.8048  0.0879  0.9624
    6MOL    H85 1295   0.572   0.760   5.530 -1.0527  0.5228 -0.4745
    6MOL    C86 1296   0.802   0.491   5.613 -0.3638 -0.6707 -0.1631
    6MOL    C87 1297   0.932   0.439   5.696  0.4962  0.0281 -0.3565
    6MOL    C88 1298   0.955   0.287   5.662  0.3503  0.7778 -0.1879
    6MOL    C89 1299   1.075   0.206   5.719  0.0145  0.4222 -0.4145
    6MOL    H90 1300   0.781   0.427   5.527 -1.2970  1.0184 -1.2285
    6MOL    H91 1301   0.706   0.490   5.665  0.2566 -0.1840  1.0061
    6MOL    H92 1302   1.022   0.498   5.682 -0.0801  0.7732 -0.9580
    6MOL    H93 1303   0.978   0.286   5.555  1.2520 -4.6063 -0.0951
    6MOL    H94 1304   0.862   0.232   5.676 -0.2043  1.7664  0.0192
    6MOL    H95 1305   1.174   0.242   5.693  0.9342 -0.8576  1.1997
    6MOL    H96 1306   1.069   0.203   5.828  0.1179 -0.7342 -0.4300
    6MOL    H97 1307   1.064   0.102   5.689 -0.6546  0.4663 -0.3242
    6MOL    C98 1308   0.905   0.450   5.847 -0.2416  0.4582  0.4013
    6MOL    C99 1309   1.032   0.460   5.928 -0.4533 -0.0088  0.1385
    6MOL   C100 1310   1.001   0.437   6.082  0.4226  0.6305 -0.5666
    6MOL   C101 1311   0.996   0.286   6.113 -0.1925 -0.4115  0.1848
    6MOL   H102 1312   0.838   0.374   5.886 -0.3468  0.3261 -0.0373
    6MOL   H103 1313   0.847   0.542   5.861  1.1090  1.0006  2.7524
    6MOL   H104 1314   1.110   0.388   5.902 -1.9027 -0.8519 -1.9468
    6MOL   H105 1315   0.901   0.471   6.110  0.1997  1.4151 -2.2755
    6MOL   H106 1316   1.054   0.497   6.156 -0.9032  0.9743  0.1214
    6MOL   H107 1317   1.090   0.232   6.095 -0.8770 -1.5133 -0.1221
    6MOL   H108 1318   0.966   0.276   6.217 -0.0147  2.5096  0.5528
    6MOL   H109 1319   0.906   0.249   6.065 -0.2054  1.2219 -1.1073
    6MOL   C110 1320   1.110   0.598   5.920  0.3959 -0.0573 -1.0501
    6MOL   C111 1321   1.267   0.590   5.954 -0.7227  0.6725  0.5288
    6MOL   C112 1322   1.324   0.731   6.000  0.2202  0.2107 -0.0157
    6MOL   C113 1323   1.287   0.855   5.922  0.2511  0.6050  0.0154
    6MOL   H114 1324   1.049   0.664   5.984 -0.7305  0.7920 -2.9591
    6MOL   H115 1325   1.084   0.656   5.831  0.1460  0.6190 -0.5454
    6MOL   H116 1326   1.272   0.534   6.047 -1.1293 -0.1759  0.0421
    6MOL   H117 1327   1.432   0.716   6.010  0.2215  0.6436  0.6117
    6MOL   H118 1328   1.304   0.748   6.106  0.4891  2.6948 -0.3215
    6MOL   H119 1329   1.187   0.889   5.949  0.7725  1.7537  0.5320
    6MOL   H120 1330   1.366   0.929   5.940  1.1695  0.6124 -3.6305
    6MOL   H121 1331   1.274   0.828   5.818  2.3090 -1.3459  0.2108
    6MOL   C122 1332   1.362   0.529   5.846  0.0654 -0.1104 -0.2812
    6MOL   C123 1333   1.461   0.424   5.912 -0.4895 -0.8946  0.2543
    6MOL   C124 1334   1.583   0.416   5.819 -0.4060 -0.2425  0.5562
    6MOL   C125 1335   1.684   0.529   5.838  0.0461  0.1458 -0.2901
    6MOL   H126 1336   1.425   0.602   5.796  1.7879 -1.3674  0.0088
    6MOL   H127 1337   1.304   0.476   5.771  0.7937 -0.0584 -0.8809
    6MOL   H128 1338   1.500   0.461   6.007 -0.0677 -0.9858  0.1191
    6MOL   H129 1339   1.557   0.418   5.713 -0.6030 -1.7961  0.5576
    6MOL   H130 1340   1.630   0.318   5.825 -0.2552 -0.1278  1.2221
    6MOL   H131 1341   1.618   0.615   5.853  2.1265  1.3483  2.2908
    6MOL   H132 1342   1.748   0.517   5.924 -3.1527  2.3353  2.5352
    6MOL   H133 1343   1.753   0.558   5.759 -0.0733 -0.5331 -0.6441
    6MOL   C134 1344   1.395   0.287   5.932  0.1829 -0.3779  0.1777
    6MOL   C135 1345   1.476   0.197   6.032  0.0158 -0.3484 -0.1857
    6MOL   C136 1346   1.464   0.047   5.995 -0.4069  0.5062  0.0470
    6MOL   C137 1347   1.527   0.020   5.857  0.6239 -0.1156 -0.3411
    6MOL   H138 1348   1.375   0.242   5.835 -1.9126  1.3390 -0.2180
    6MOL   H139 1349   1.294   0.300   5.972 -0.2638 -1.1024 -0.6785
    6MOL   H140 1350   1.582   0.219   6.016  0.0400  0.2709  0.7575
    6MOL   H141 1351   1.356   0.031   5.982 -0.3494 -0.1127  0.2962
    6MOL   H142 1352   1.489   7.677   6.069 -1.1036 -0.8782 -1.1082
    6MOL   H143 1353   1.548   0.102   5.789  0.5819  0.1609 -0.0157
    6MOL   H144 1354   1.610   7.656   5.861 -1.0366 -2.1110  0.2421
    6MOL   H145 1355   1.463   7.672   5.786 -1.7012 -0.0281  1.6177
    6MOL   C146 1356   1.446   0.229   6.181 -0.0658 -0.3677 -0.6472
    6MOL   C147 1357   1.571   0.292   6.248  0.8459 -0.6503  1.2087
    6MOL   C148 1358   1.685   0.190   6.272 -0.0452  0.6959 -0.0666
    6MOL   C149 1359   1.815   0.236   6.334 -0.5507  0.3380 -0.3054
    6MOL   H150 1360   1.431   0.144   6.247 -3.8763  1.4954  1.0710
    6MOL   H151 1361   1.353   0.286   6.193 -0.4403 -0.7735 -1.6129
    6MOL   H152 1362   1.617   0.364   6.181 -0.4008 -1.2040 -0.2906
    6MOL   H153 1363   1.716   0.145   6.177  0.0072  1.3882 -0.3790
    6MOL   H154 1364   1.648   0.105   6.329 -1.9976  0.9755 -0.8906
    6MOL   H155 1365   1.807   0.276   6.435 -1.8362 -0.7969  0.0624
    6MOL   H156 1366   1.889   0.157   6.344  0.0190  0.7506 -1.2312
    6MOL   H157 1367   1.859   0.314   6.272 -1.5755 -0.8722 -2.6130
    6MOL   C158 1368   1.540   0.373   6.378 -0.2606 -0.1100  0.5108
    6MOL   C159 1369   1.461   0.504   6.361 -0.2660 -0.1385  0.4902
    6MOL   C160 1370   1.533   0.628   6.293  0.0166  0.3740 -0.1892
    6MOL   C161 1371   1.657   0.674   6.357 -0.1029  0.1189  0.5217
    6MOL   H162 1372   1.622   0.392   6.447 -0.9173  0.3489  1.1854
    6MOL   H163 1373   1.484   0.294   6.429  1.8051 -1.1211  1.2823
    6MOL   H164 1374   1.372   0.501   6.298 -1.1750 -0.8207  1.7969
    6MOL   H165 1375   1.464   0.708   6.268  1.1505  0.9611 -1.4991
    6MOL   H166 1376   1.564   0.585   6.197  1.9757  0.8041  0.2202
    6MOL   H167 1377   1.714   0.733   6.285  0.5417  0.5457  1.3813
    6MOL   H168 1378   1.656   0.742   6.443  0.3374  1.2497 -0.3469
    6MOL   H169 1379   1.725   0.595   6.388 -0.1623 -0.6384 -1.1940
    6MOL   C170 1380   1.415   0.549   6.509  0.1200  0.0597  0.1254
    6MOL   C171 1381   1.278   0.489   6.555  0.7255  0.2786 -0.0102
    6MOL   C172 1382   1.166   0.561   6.472 -0.0223  1.4417  0.1609
    6MOL   C173 1383   1.040   0.479   6.473 -0.2392 -0.4557 -0.5491
    6MOL   H174 1384   1.405   0.657   6.505  1.5148  0.1506 -0.8768
    6MOL   H175 1385   1.501   0.521   6.570  1.1112  0.3659 -1.1296
    6MOL   H176 1386   1.276   0.381   6.544 -2.1669  0.1290  1.5403
    6MOL   H177 1387   1.189   0.578   6.367 -1.7685  0.0787 -0.4667
    6MOL   H178 1388   1.149   0.657   6.520  2.6712  1.2202  1.6750
    6MOL   H179 1389   0.968   0.503   6.395 -0.9775 -1.6246 -0.2339
    6MOL   H180 1390   1.058   0.372   6.462 -1.4665 -0.7486  0.1618
    6MOL   H181 1391   0.986   0.488   6.568 -0.0217 -0.7265 -0.3991
    6MOL   C182 1392   1.263   0.506   6.704 -0.6599  0.5493 -0.5819
    6MOL   C183 1393   1.294   0.376   6.799  0.0847 -0.0932  0.1632
    6MOL   C184 1394   1.180   0.281   6.808 -0.0216 -0.9518 -0.0798
    6MOL   C185 1395   1.216   0.138   6.858  0.2296 -0.2278 -0.1592
    6MOL   H186 1396   1.165   0.546   6.732 -1.6640 -0.7466 -2.1024
    6MOL   H187 1397   1.332   0.586   6.730 -0.7555  0.5035 -0.1816
    6MOL   H188 1398   1.375   0.322   6.750  0.6211  0.7040  0.1622
    6MOL   H189 1399   1.136   0.279   6.708  1.9422 -2.3288 -0.9515
    6MOL   H190 1400   1.100   0.316   6.873  1.9029  1.7000  0.9216
    6MOL   H191 1401   1.132   0.069   6.844 -1.6279  1.8194  0.4824
    6MOL   H192 1402   1.299   0.087   6.811  0.4964  0.5733 -0.5666
    6MOL   H193 1403   1.231   0.135   6.966 -1.0519 -2.4435 -0.0127
    6MOL   C194 1404   1.348   0.425   6.940  0.8200  0.1931  0.7720
    6MOL   C195 1405   1.495   0.461   6.948 -0.0960 -0.2396 -0.2859
    6MOL   C196 1406   1.579   0.348   7.003 -0.1588  0.0597  0.0249
    6MOL   C197 1407   1.725   0.371   6.970 -0.3326 -0.0190 -0.0763
    6MOL   H198 1408   1.326   0.363   7.027 -0.8045  0.5210  0.6182
    6MOL   H199 1409   1.285   0.513   6.946 -1.6109 -1.3794 -0.7418
    6MOL   H200 1410   1.518   0.490   6.846  0.7163  0.0662 -0.0189
    6MOL   H201 1411   1.542   0.253   6.964  0.4415  0.4555 -1.5879
    6MOL   H202 1412   1.559   0.335   7.109 -2.0143  1.9868 -0.0608
    6MOL   H203 1413   1.763   0.436   7.049  1.1609 -1.2302  0.2391
    6MOL   H204 1414   1.774   0.274   6.982  0.8715  0.6403  0.4711
    6MOL   H205 1415   1.735   0.414   6.871 -0.8833  0.4736  0.0794
    6MOL   C206 1416   1.511   0.593   7.037  0.0546  0.1810  0.1344
    6MOL   C207 1417   1.477   0.730   6.971  1.0777 -0.2540  1.4603
    6MOL   C208 1418   1.597   0.788   6.884 -0.0871 -0.0104  0.2211
    6MOL   C209 1419   1.716   0.830   6.962 -0.1859 -0.8110  0.3274
    6MOL   H210 1420   1.616   0.588   7.063 -0.5356 -4.0311  2.0400
    6MOL   H211 1421   1.461   0.578   7.133  0.1107 -0.8606  0.0067
    6MOL   H212 1422   1.406   0.709   6.890  1.6560  1.6184  0.4599
    6MOL   H213 1423   1.576   0.877   6.824  2.1096  0.6158  0.3143
    6MOL   H214 1424   1.631   0.710   6.816  0.3059 -1.2785  1.8471
    6MOL   H215 1425   1.749   0.745   7.021  0.9014 -0.5870  0.0604
    6MOL   H216 1426   1.801   0.857   6.899 -0.0798  1.6094  1.4842
    6MOL   H217 1427   1.687   0.913   7.026  1.0846  0.2875 -0.4997
    6MOL   C218 1428   1.408   0.840   7.064 -0.5074  0.1234 -0.0708
    6MOL   C219 1429   1.331   0.951   6.995 -0.8031 -0.6295  0.4242
    6MOL   C220 1430   1.299   1.074   7.087  0.1498  0.0663 -0.5499
    6MOL   C221 1431   1.413   1.175   7.092 -0.6052 -0.2278  0.1489
    6MOL   H222 1432   1.500   0.878   7.109  0.2736 -0.8749 -0.7790
    6MOL   H223 1433   1.347   0.807   7.147 -1.2617 -0.8968 -1.0174
    6MOL   H224 1434   1.389   0.983   6.908  1.0436 -0.2505  1.7622
    6MOL   H225 1435   1.269   1.029   7.182  0.6774 -0.6408 -0.7135
    6MOL   H226 1436   1.212   1.133   7.057 -1.2913 -0.2731  2.7721
    6MOL   H227 1437   1.505   1.122   7.119 -0.4830 -0.0208  0.1379
    6MOL   H228 1438   1.430   1.229   6.999  2.8237  1.5067  1.7041
    6MOL   H229 1439   1.396   1.246   7.173  0.2457  0.8425 -0.5940
    6MOL   C230 1440   1.198   0.894   6.939  0.2315 -1.2280  0.0341
    6MOL   C231 1441   1.138   0.971   6.824 -0.7859 -0.2879  0.1403
    6MOL   C232 1442   1.013   0.903   6.782 -0.0111  1.2625 -0.5062
    6MOL   C233 1443   0.950   0.977   6.662  0.3529  0.1169  0.2032
    6MOL   H234 1444   1.139   0.893   7.030 -0.0034  1.7255 -0.0173
    6MOL   H235 1445   1.211   0.792   6.902  1.0070 -0.6210 -1.4027
    6MOL   H236 1446   1.115   1.074   6.852 -0.2966  0.9097 -3.5996
    6MOL   H237 1447   0.947   0.901   6.868  0.8443 -1.2177  0.1170
    6MOL   H238 1448   1.028   0.805   6.736  0.7503  0.8497  0.6301
    6MOL   H239 1449   0.978   0.933   6.567 -0.7095  1.1365 -0.6053
    6MOL   H240 1450   0.845   0.956   6.641  0.7700 -1.6308 -0.2284
    6MOL   H241 1451   0.973   1.083   6.676 -1.8250  0.4591  1.3790
    6MOL   H242 1452   1.206   0.969   6.739 -0.8956  2.0968 -0.0378
    7MOL     C1 1453   6.414   5.339   6.084 -0.5518 -0.1731  0.1690
    7MOL     C2 1454   6.475   5.203   6.075  0.2138 -0.2862 -0.1647
    7MOL     C3 1455   6.621   5.217   6.018  0.1016 -0.1812  0.0889
    7MOL     C4 1456   6.625   5.262   5.868  0.5440  0.3011  0.4353
    7MOL     H5 1457   6.375   5.368   5.987  1.3736 -0.4751 -0.7238
    7MOL     H6 1458   6.326   5.330   6.148 -0.5517  0.1374  0.2126
    7MOL     H7 1459   6.497   5.150   6.168 -1.0539 -0.2659  0.1588
    7MOL     H8 1460   6.681   5.127   6.034 -0.3706  0.0073  3.1841
    7MOL     H9 1461   6.681   5.295   6.066  0.0400  0.3239 -0.6482
    7MOL    H10 1462   6.727   5.283   5.837  0.0387  1.4165 -0.5111
    7MOL    H11 1463   6.585   5.178   5.811  0.5511 -0.5188  1.6102
    7MOL    H12 1464   6.550   5.338   5.845  1.3526  0.0954 -3.1260
    7MOL    H13 1465   6.489   5.414   6.110  1.4157 -2.4777  1.3645
    7MOL    C14 1466   6.388   5.099   6.006  0.1321  0.2220  1.2727
    7MOL    C15 1467   6.270   5.052   6.078 -0.0678  0.7261 -0.6926
    7MOL    C16 1468   6.295   4.987   6.221 -0.4316  0.0763  0.5473
    7MOL    C17 1469   6.410   4.883   6.229  0.4061 -0.2165 -0.2650
    7MOL    H18 1470   6.445   5.008   5.988 -2.8358 -1.2306 -1.1115
    7MOL    H19 1471   6.364   5.149   5.912  0.5432  1.4977  1.8308
    7MOL    H20 1472   6.216   5.145   6.097  1.0775  1.2970 -0.1761
    7MOL    H21 1473   6.202   4.940   6.252 -1.2800  0.0306 -1.9674
    7MOL    H22 1474   6.316   5.067   6.291 -0.8951  1.2957 -0.6990
    7MOL    H23 1475   6.508   4.910   6.190  1.2714 -2.4332  0.2827
    7MOL    H24 1476   6.430   4.853   6.332 -1.0091  2.1411  0.7634
    7MOL    H25 1477   6.383   4.792   6.176 -0.1964 -1.3312  1.9080
    7MOL    C26 1478   6.182   4.946   6.001  1.0485  0.5186 -0.4073
    7MOL    C27 1479   6.148   4.979   5.854 -0.1609  0.1825 -0.6763
    7MOL    C28 1480   6.051   5.099   5.849  0.7214 -0.4691  0.6731
    7MOL    C29 1481   6.048   5.163   5.706  0.1239 -0.5267 -0.2206
    7MOL    H30 1482   6.088   4.923   6.052  1.1060  1.0073 -0.0756
    7MOL    H31 1483   6.231   4.849   6.004  1.0425  0.4829 -1.2672
    7MOL    H32 1484   6.245   5.002   5.810  0.0118 -1.3420 -1.1009
    7MOL    H33 1485   6.087   5.181   5.912 -1.0173  1.4827 -0.8064
    7MOL    H34 1486   5.955   5.080   5.899 -0.5185  1.5188 -0.8757
    7MOL    H35 1487   6.000   5.095   5.636  0.6096 -1.1540  0.0600
    7MOL    H36 1488   6.004   5.263   5.699 -1.8780 -1.5769 -4.2188
    7MOL    H37 1489   6.148   5.189   5.671  0.1730  0.8798  0.9010
    7MOL    C38 1490   6.099   4.853   5.777 -0.7114 -0.7227 -0.2428
    7MOL    C39 1491   6.195   4.751   5.725 -0.0058  0.2888  0.5699
    7MOL    C40 1492   6.297   4.827   5.628  0.3192  0.2218  0.0391
    7MOL    C41 1493   6.440   4.841   5.695 -0.0914 -0.3652 -0.0484
    7MOL    H42 1494   6.031   4.885   5.699 -1.3329  1.4311  1.1670
    7MOL    H43 1495   6.029   4.805   5.845  0.1610  0.3762  1.4558
    7MOL    H44 1496   6.249   4.709   5.810  0.3259 -0.5298 -0.0388
    7MOL    H45 1497   6.264   4.927   5.603 -2.0636  0.2877  3.1913
    7MOL    H46 1498   6.314   4.770   5.536  1.3284 -1.3739  1.1813
    7MOL    H47 1499   6.472   4.751   5.749 -1.2985 -1.1343 -0.6054
    7MOL    H48 1500   6.518   4.865   5.623 -0.4441  0.3391 -0.1938
    7MOL    H49 1501   6.439   4.929   5.759  1.4533  1.8783 -2.9718
    7MOL    C50 1502   6.132   4.626   5.659 -0.0297  0.2297  0.2155
    7MOL    C51 1503   6.228   4.511   5.614  0.5032 -0.4560 -0.0411
    7MOL    C52 1504   6.184   4.447   5.486  0.5830  0.0129  0.4179
    7MOL    C53 1505   6.280   4.344   5.420 -0.1503  0.1045  0.1757
    7MOL    H54 1506   6.096   4.675   5.569 -1.0888  2.2550  1.7218
    7MOL    H55 1507   6.046   4.592   5.716 -1.0894 -0.3149 -1.6401
    7MOL    H56 1508   6.317   4.556   5.571  0.6568  1.2856  2.0167
    7MOL    H57 1509   6.174   4.525   5.411 -2.3356 -0.7614 -0.0535
    7MOL    H58 1510   6.080   4.416   5.498  1.0616 -1.2336  1.6140
    7MOL    H59 1511   6.257   4.312   5.318 -0.0738  0.7541 -0.0516
    7MOL    H60 1512   6.375   4.396   5.410 -1.7244  3.2572  0.9323
    7MOL    H61 1513   6.301   4.252   5.473  0.7978  0.2655  0.0780
    7MOL    C62 1514   6.257   4.404   5.727 -0.3065 -0.7352 -0.1028
    7MOL    C63 1515   6.358   4.443   5.839 -0.3125 -0.8538 -0.3692
    7MOL    C64 1516   6.491   4.448   5.776  0.1053  0.0571  0.0872
    7MOL    C65 1517   6.595   4.538   5.854  0.1897 -0.1916 -0.5515
    7MOL    H66 1518   6.272   4.304   5.686  0.1274 -1.2420  1.2609
    7MOL    H67 1519   6.162   4.390   5.777  0.3012 -1.7963  0.7835
    7MOL    H68 1520   6.341   4.543   5.880  0.5385  0.3681 -2.8641
    7MOL    H69 1521   6.489   4.499   5.679 -0.2851  1.1890  0.6783
    7MOL    H70 1522   6.513   4.344   5.750 -2.4600 -0.1440 -1.4147
    7MOL    H71 1523   6.660   4.582   5.778 -0.5200 -0.8898 -1.5763
    7MOL    H72 1524   6.543   4.611   5.917 -1.5127  0.1577 -2.3276
    7MOL    H73 1525   6.658   4.479   5.921 -1.0548 -0.4746  0.3903
    7MOL    C74 1526   6.345   4.365   5.968  0.1806  0.9890 -0.3607
    7MOL    C75 1527   6.209   4.347   6.054 -0.2892 -0.4508  0.2140
    7MOL    C76 1528   6.124   4.480   6.063  0.2437 -0.5999  0.6337
    7MOL    C77 1529   5.992   4.443   6.134 -0.9761 -0.0915 -0.3247
    7MOL    H78 1530   6.424   4.404   6.033  0.0151 -0.0461  0.4806
    7MOL    H79 1531   6.378   4.264   5.943  2.1673  1.2613  1.0291
    7MOL    H80 1532   6.148   4.280   5.993  0.5599  0.6669 -1.9303
    7MOL    H81 1533   6.107   4.529   5.967 -0.0107 -1.8973  0.0004
    7MOL    H82 1534   6.177   4.558   6.119 -0.4273  0.8596 -0.7367
    7MOL    H83 1535   6.002   4.412   6.237 -2.1475 -3.1116 -1.0762
    7MOL    H84 1536   5.928   4.531   6.126  1.0581  2.0293  4.6082
    7MOL    H85 1537   5.939   4.373   6.069 -0.3478 -0.6860 -0.1980
    7MOL    C86 1538   6.242   4.276   6.186 -0.1386 -0.5520 -0.0247
    7MOL    C87 1539   6.306   4.140   6.185 -0.7254  0.0606  0.3183
    7MOL    C88 1540   6.209   4.032   6.139 -0.0823 -0.5837  0.2979
    7MOL    C89 1541   6.267   3.910   6.066 -0.5235  0.0990 -0.4025
    7MOL    H90 1542   6.150   4.270   6.245 -0.7813 -0.7083 -1.0190
    7MOL    H91 1543   6.299   4.343   6.249  2.2230 -1.7441 -0.8466
    7MOL    H92 1544   6.384   4.137   6.109 -0.5012 -0.7077  0.5743
    7MOL    H93 1545   6.141   4.079   6.068 -1.1062 -0.2016  1.5058
    7MOL    H94 1546   6.144   4.001   6.222 -0.1624  1.4450  1.0347
    7MOL    H95 1547   6.193   3.830   6.062  0.7883 -1.2005  0.8638
    7MOL    H96 1548   6.315   3.925   5.970 -0.7674  0.2844 -0.4955
    7MOL    H97 1549   6.351   3.879   6.129 -0.6001 -0.8472 -0.7676
    7MOL    C98 1550   6.370   4.098   6.322  0.6891 -0.0304  0.0542
    7MOL    C99 1551   6.486   4.185   6.384 -0.2918  0.1138 -0.1701
    7MOL   C100 1552   6.603   4.206   6.296 -0.8691  0.1175  0.7591
    7MOL   C101 1553   6.688   4.085   6.267 -0.2363 -0.2351 -0.5629
    7MOL   H102 1554   6.407   3.996   6.318  0.7242 -0.0121 -0.0956
    7MOL   H103 1555   6.286   4.089   6.391  0.9714 -1.1242  0.2666
    7MOL   H104 1556   6.443   4.284   6.397 -2.3643 -0.8016  0.2302
    7MOL   H105 1557   6.658   4.293   6.331  1.3627 -0.4563 -1.2256
    7MOL   H106 1558   6.562   4.236   6.200 -2.0153 -1.8082  0.6156
    7MOL   H107 1559   6.766   4.107   6.193 -0.2258  0.8803 -0.2299
    7MOL   H108 1560   6.754   4.053   6.347  2.0365  4.4341 -0.3957
    7MOL   H109 1561   6.645   3.995   6.224 -2.6648  0.8102 -0.4255
    7MOL   C110 1562   6.525   4.118   6.518 -0.0763  0.2791  0.4257
    7MOL   C111 1563   6.588   4.206   6.626 -0.4138  0.2578 -1.0978
    7MOL   C112 1564   6.680   4.128   6.728  1.2989  0.4357 -0.1109
    7MOL   C113 1565   6.604   4.020   6.813 -0.1041 -1.2051 -0.1202
    7MOL   H114 1566   6.589   4.032   6.496  0.2283  0.1895  1.6060
    7MOL   H115 1567   6.435   4.082   6.568  0.6248 -1.1817  0.6654
    7MOL   H116 1568   6.650   4.274   6.567 -1.0940  1.9167  0.0534
    7MOL   H117 1569   6.726   4.194   6.801  2.1888  0.1302 -0.3913
    7MOL   H118 1570   6.756   4.074   6.672  1.0941 -0.3851  0.3975
    7MOL   H119 1571   6.664   3.931   6.833  1.4406 -0.0972  0.2870
    7MOL   H120 1572   6.547   4.052   6.900  1.5935  0.4466  0.4262
    7MOL   H121 1573   6.528   3.973   6.750  0.6286 -1.2245 -1.0039
    7MOL   C122 1574   6.486   4.301   6.703  0.2039 -0.0997  0.4986
    7MOL   C123 1575   6.511   4.455   6.689  0.2092 -0.6945 -0.5688
    7MOL   C124 1576   6.642   4.494   6.762  0.6656 -0.3563 -0.0810
    7MOL   C125 1577   6.680   4.646   6.747  0.5178  0.8444 -0.3327
    7MOL   H126 1578   6.471   4.283   6.810 -1.7340 -0.7447  0.1449
    7MOL   H127 1579   6.387   4.278   6.663  0.7467 -1.6079  0.0072
    7MOL   H128 1580   6.521   4.472   6.581 -0.3092  0.3361 -0.4714
    7MOL   H129 1581   6.725   4.442   6.716  1.8108  1.3562  0.0073
    7MOL   H130 1582   6.632   4.475   6.869  2.3617 -0.2192  0.1127
    7MOL   H131 1583   6.608   4.714   6.793 -3.9606 -3.1483 -1.1400
    7MOL   H132 1584   6.770   4.667   6.805 -0.8693  0.7162  1.9356
    7MOL   H133 1585   6.693   4.667   6.641  2.2083  0.6789 -0.1790
    7MOL   C134 1586   6.387   4.532   6.735 -0.1133  0.5350 -0.2687
    7MOL   C135 1587   6.261   4.515   6.645 -0.3102 -0.6656 -0.0410
    7MOL   C136 1588   6.266   4.618   6.532 -0.2378  0.1861 -0.1339
    7MOL   C137 1589   6.233   4.767   6.585  0.2002  0.7176  0.0270
    7MOL   H138 1590   6.414   4.637   6.728  2.0870 -0.0109 -0.1635
    7MOL   H139 1591   6.364   4.524   6.842  2.7676  1.6370  0.4784
    7MOL   H140 1592   6.251   4.426   6.584 -1.4046 -0.2898 -0.4251
    7MOL   H141 1593   6.201   4.585   6.450 -2.5318  0.3938  1.5408
    7MOL   H142 1594   6.367   4.612   6.493 -0.1068  0.4509  0.1708
    7MOL   H143 1595   6.310   4.806   6.651 -0.5240 -0.1165  1.4008
    7MOL   H144 1596   6.212   4.821   6.492 -0.3963  0.7328  0.1693
    7MOL   H145 1597   6.143   4.773   6.645  2.4891 -0.5620  3.7417
    7MOL   C146 1598   6.130   4.526   6.729  0.7720  0.5443 -0.2338
    7MOL   C147 1599   6.090   4.396   6.808 -0.4222  0.5994 -0.0432
    7MOL   C148 1600   6.002   4.298   6.727  0.1767 -0.1438 -0.1083
    7MOL   C149 1601   6.052   4.237   6.599  0.3905  0.6724 -0.2716
    7MOL   H150 1602   6.045   4.539   6.662  1.8824  2.0080 -1.3668
    7MOL   H151 1603   6.116   4.614   6.792  0.1346 -1.4569  2.5591
    7MOL   H152 1604   6.186   4.346   6.819 -0.9317 -0.3188  0.3162
    7MOL   H153 1605   5.910   4.351   6.705  1.8893  2.8578 -0.3388
    7MOL   H154 1606   5.969   4.212   6.786 -2.7885  0.9214 -0.1303
    7MOL   H155 1607   5.975   4.171   6.558  1.2464 -2.1037  2.3382
    7MOL   H156 1608   6.068   4.308   6.518 -0.6803  0.8122 -0.3637
    7MOL   H157 1609   6.138   4.172   6.618 -0.7124 -0.6888  0.1439
    7MOL   C158 1610   6.030   4.419   6.946  0.4081 -0.2874  0.8425
    7MOL   C159 1611   6.132   4.447   7.053 -0.6328  0.8344  0.1058
    7MOL   C160 1612   6.223   4.324   7.079  0.1416  0.7965 -0.3514
    7MOL   C161 1613   6.368   4.365   7.107  0.0002  0.3923 -0.3204
    7MOL   H162 1614   5.951   4.349   6.974 -0.2238 -0.1463 -0.5457
    7MOL   H163 1615   5.971   4.510   6.932  0.4166 -0.5654 -1.1161
    7MOL   H164 1616   6.188   4.528   7.007  1.1403  0.1510  1.0252
    7MOL   H165 1617   6.217   4.253   6.997  2.9340 -0.6185  0.6280
    7MOL   H166 1618   6.198   4.276   7.174  0.4681  1.4437  0.0643
    7MOL   H167 1619   6.376   4.423   7.198 -1.0512 -0.5239  0.3739
    7MOL   H168 1620   6.439   4.285   7.125  2.5088  2.3418 -1.3824
    7MOL   H169 1621   6.413   4.422   7.026  0.9038 -1.0988 -0.8879
    7MOL   C170 1622   6.052   4.491   7.175 -0.1325  0.3372  0.2338
    7MOL   C171 1623   6.115   4.598   7.262  0.3006  0.2911  0.3888
    7MOL   C172 1624   6.056   4.604   7.402 -0.4602 -0.0410 -0.3015
    7MOL   C173 1625   6.110   4.480   7.488  0.1210  0.2771  0.4255
    7MOL   H174 1626   6.031   4.395   7.221  1.5564  0.1205  0.5660
    7MOL   H175 1627   5.952   4.534   7.163  0.5985  2.5062  1.6462
    7MOL   H176 1628   6.222   4.574   7.264 -0.2806 -2.4077  0.4990
    7MOL   H177 1629   5.951   4.634   7.398 -0.1641  0.6854 -3.5347
    7MOL   H178 1630   6.108   4.686   7.452  2.4060 -0.6033 -2.2891
    7MOL   H179 1631   6.211   4.501   7.524  1.2310 -0.0270 -2.3651
    7MOL   H180 1632   6.036   4.463   7.566  0.4755 -2.5209  0.2080
    7MOL   H181 1633   6.104   4.384   7.437 -0.5485 -0.1512  1.2847
    7MOL   C182 1634   6.098   4.739   7.188  1.0715  0.0177  0.4863
    7MOL   C183 1635   6.193   4.857   7.233 -0.3099 -0.2648  0.1282
    7MOL   C184 1636   6.127   4.993   7.207  0.4123  0.7496  0.4974
    7MOL   C185 1637   6.116   5.024   7.054 -0.1066  0.1854 -0.8273
    7MOL   H186 1638   6.000   4.785   7.204  0.8184  0.2752 -1.7025
    7MOL   H187 1639   6.105   4.724   7.080 -1.2411 -3.0772  0.6960
    7MOL   H188 1640   6.196   4.845   7.341 -0.0059 -0.9189  0.0456
    7MOL   H189 1641   6.180   5.074   7.257  0.2336  1.3109 -0.2178
    7MOL   H190 1642   6.025   4.995   7.248 -0.0422 -0.2682 -0.5743
    7MOL   H191 1643   6.086   4.946   6.984  1.7702 -1.0457 -0.3015
    7MOL   H192 1644   6.066   5.119   7.035  0.4356  0.9320  1.3083
    7MOL   H193 1645   6.214   5.057   7.017  0.0642 -0.0301 -0.5731
    7MOL   C194 1646   6.330   4.828   7.171 -0.3071 -0.3297  0.2607
    7MOL   C195 1647   6.439   4.912   7.232  0.0081  0.5495 -0.3489
    7MOL   C196 1648   6.568   4.918   7.143 -0.2560  0.5360 -0.1912
    7MOL   C197 1649   6.634   4.782   7.104  0.6417 -0.1014  0.1012
    7MOL   H198 1650   6.325   4.839   7.063  1.3162 -3.2461 -0.1805
    7MOL   H199 1651   6.372   4.727   7.177  0.7473  0.1322  0.6733
    7MOL   H200 1652   6.394   5.011   7.225  1.5117  1.4689  2.4165
    7MOL   H201 1653   6.641   4.979   7.197  0.5736 -0.7005  0.1105
    7MOL   H202 1654   6.537   4.980   7.059  0.8107  0.7888 -0.3948
    7MOL   H203 1655   6.565   4.713   7.054  0.0058  0.2547  0.4712
    7MOL   H204 1656   6.714   4.804   7.034 -0.4970 -0.7191 -1.4446
    7MOL   H205 1657   6.680   4.738   7.192 -0.7438 -0.1703  0.8037
    7MOL   C206 1658   6.473   4.861   7.380  0.1567 -0.6153  0.0877
    7MOL   C207 1659   6.571   4.946   7.467 -0.6560 -0.7660  0.4649
    7MOL   C208 1660   6.660   4.852   7.561 -0.2284  0.2683 -0.2514
    7MOL   C209 1661   6.750   4.755   7.495 -0.0973  0.1537  0.0788
    7MOL   H210 1662   6.515   4.761   7.369 -2.2715 -1.5150 -1.3188
    7MOL   H211 1663   6.385   4.838   7.441 -0.1441 -0.0052 -0.1094
    7MOL   H212 1664   6.638   5.009   7.409 -0.1494 -0.0064  1.8486
    7MOL   H213 1665   6.599   4.794   7.631  2.9105 -0.9821  1.5667
    7MOL   H214 1666   6.724   4.911   7.627 -0.8795 -0.0858  0.7079
    7MOL   H215 1667   6.816   4.705   7.566  1.3887  0.8530 -0.7746
    7MOL   H216 1668   6.704   4.683   7.428  2.8679 -1.2477 -0.5406
    7MOL   H217 1669   6.823   4.807   7.433 -0.1438 -0.0531 -0.1483
    7MOL   C218 1670   6.491   5.050   7.559 -0.4751  0.6226 -0.8055
    7MOL   C219 1671   6.385   5.141   7.503  0.3419 -0.8685  0.2857
    7MOL   C220 1672   6.441   5.239   7.399 -0.1920  0.0670 -0.5057
    7MOL   C221 1673   6.342   5.308   7.305 -0.1328 -0.7742 -0.4194
    7MOL   H222 1674   6.571   5.112   7.600  0.4566 -0.9025 -0.2370
    7MOL   H223 1675   6.456   4.993   7.645 -0.3513  1.8201  0.0537
    7MOL   H224 1676   6.329   5.077   7.435 -0.6863  1.0583 -0.7362
    7MOL   H225 1677   6.518   5.180   7.350  0.7615  0.0810  0.9400
    7MOL   H226 1678   6.502   5.308   7.457 -0.3335 -1.6516  1.7706
    7MOL   H227 1679   6.401   5.395   7.277  0.1393  0.1798  2.9860
    7MOL   H228 1680   6.300   5.243   7.228 -0.0409 -0.7459 -0.4941
    7MOL   H229 1681   6.257   5.355   7.354 -0.3852 -2.4312  0.8026
    7MOL   C230 1682   6.292   5.204   7.605  0.3688  0.3136 -0.3683
    7MOL   C231 1683   6.247   5.118   0.019 -0.4710 -0.0103 -0.2553
    7MOL   C232 1684   6.147   5.181   0.115  0.0381  0.5820  0.0869
    7MOL   C233 1685   6.203   5.292   0.210  0.1846 -0.3591 -0.0751
    7MOL   H234 1686   6.205   5.234   7.547  0.0746 -1.8460 -1.0640
    7MOL   H235 1687   6.347   5.294   7.635 -1.9556  1.7578 -0.2859
    7MOL   H236 1688   6.205   5.022   7.693 -0.3440 -0.3250  0.5122
    7MOL   H237 1689   6.114   5.100   0.179  2.4941  0.0784  0.7846
    7MOL   H238 1690   6.062   5.221   0.061 -0.0282 -1.3003 -1.2377
    7MOL   H239 1691   6.233   5.371   0.142 -0.3071 -1.9770 -2.2294
    7MOL   H240 1692   6.119   5.333   0.265  0.0626  1.4540 -1.5825
    7MOL   H241 1693   6.287   5.250   0.267  1.6798  1.6070 -0.7694
    7MOL   H242 1694   6.335   5.097   0.080 -1.1219  0.4491  0.8513
    8MOL     C1 1695   3.660   2.405   2.932 -0.2654 -0.2644  0.1447
    8MOL     C2 1696   3.613   2.550   2.905  0.1530 -0.4258  0.5152
    8MOL     C3 1697   3.522   2.551   2.784  0.1270 -0.0849 -0.0681
    8MOL     C4 1698   3.371   2.528   2.810  0.4341 -0.0775  0.3168
    8MOL     H5 1699   3.571   2.343   2.944  0.1562 -0.7204  0.9345
    8MOL     H6 1700   3.720   2.370   2.848 -0.0367 -2.2975  1.1274
    8MOL     H7 1701   3.560   2.588   2.992  0.3734  2.0687 -0.3928
    8MOL     H8 1702   3.548   2.471   2.715 -3.6332 -0.1878 -1.4751
    8MOL     H9 1703   3.532   2.639   2.721  0.1553  0.4174  0.6315
    8MOL    H10 1704   3.364   2.422   2.835 -0.3221 -0.2012 -0.3885
    8MOL    H11 1705   3.325   2.586   2.890  1.1697  1.9423 -0.7012
    8MOL    H12 1706   3.309   2.552   2.724  2.2715 -0.2300 -1.0688
    8MOL    H13 1707   3.716   2.399   3.025  2.1503  1.5371 -1.1286
    8MOL    C14 1708   3.728   2.649   2.871  0.2965  0.2099  0.3380
    8MOL    C15 1709   3.834   2.649   2.987  0.2486 -0.7750 -0.8719
    8MOL    C16 1710   3.774   2.733   3.103  0.2331 -0.1879  0.2364
    8MOL    C17 1711   3.838   2.683   3.231 -0.1365  0.4222 -0.6019
    8MOL    H18 1712   3.678   2.745   2.860  1.0707  0.5170 -0.5200
    8MOL    H19 1713   3.770   2.621   2.774 -1.3919 -0.3865 -0.2317
    8MOL    H20 1714   3.847   2.545   3.017 -0.1977 -0.3501  0.8458
    8MOL    H21 1715   3.665   2.730   3.103  0.2290 -0.1748  0.9951
    8MOL    H22 1716   3.802   2.837   3.086  2.0952 -0.6517  0.3496
    8MOL    H23 1717   3.823   2.575   3.235  0.5647  0.2522 -2.2263
    8MOL    H24 1718   3.947   2.688   3.241 -0.2396 -0.0338  1.0278
    8MOL    H25 1719   3.800   2.736   3.319  3.1658  0.0284  1.1736
    8MOL    C26 1720   3.973   2.713   2.944 -0.0037 -0.2184 -0.2945
    8MOL    C27 1721   4.048   2.650   2.821  0.6810 -0.1313  0.2979
    8MOL    C28 1722   4.094   2.510   2.864 -0.8372 -0.2159  0.3626
    8MOL    C29 1723   4.146   2.423   2.752  0.0716 -0.7417 -0.5498
    8MOL    H30 1724   4.038   2.712   3.031  0.9628  1.2596 -0.9722
    8MOL    H31 1725   3.950   2.817   2.921  0.9820 -0.1730 -1.1420
    8MOL    H32 1726   3.979   2.640   2.737  2.5507 -0.1439 -1.2590
    8MOL    H33 1727   4.004   2.457   2.898 -2.7151  1.3260 -2.0038
    8MOL    H34 1728   4.168   2.507   2.944 -1.4195 -1.8809  0.8624
    8MOL    H35 1729   4.232   2.475   2.709  0.0899  1.5994  2.1602
    8MOL    H36 1730   4.177   2.329   2.797  4.7109  0.8231 -0.1600
    8MOL    H37 1731   4.081   2.408   2.666  0.8819  0.2449 -1.3540
    8MOL    C38 1732   4.161   2.744   2.775  0.7192  0.3059  0.0811
    8MOL    C39 1733   4.133   2.883   2.713  0.6568  0.8318  0.0450
    8MOL    C40 1734   4.013   2.877   2.621 -0.5549 -0.0399  0.0865
    8MOL    C41 1735   3.954   3.017   2.600  0.1928 -0.1810  0.5488
    8MOL    H42 1736   4.211   2.694   2.692 -0.7482 -1.9448  0.4871
    8MOL    H43 1737   4.233   2.741   2.856 -1.2362 -0.5734  1.8529
    8MOL    H44 1738   4.112   2.958   2.789 -0.0626  0.2484  0.4145
    8MOL    H45 1739   3.929   2.830   2.673 -1.4818  2.0887  0.5418
    8MOL    H46 1740   4.037   2.830   2.526  2.6906 -0.3004  0.9868
    8MOL    H47 1741   4.022   3.093   2.562 -0.0426 -0.1209  0.2447
    8MOL    H48 1742   3.876   3.011   2.525 -1.2941  2.2354  1.8237
    8MOL    H49 1743   3.903   3.053   2.689 -1.8906  0.0291 -0.7103
    8MOL    C50 1744   4.259   2.945   2.639  0.1856  0.1424  0.3470
    8MOL    C51 1745   4.383   2.977   2.728 -0.6242  0.5028  0.0801
    8MOL    C52 1746   4.401   3.129   2.739 -0.9069 -0.2400 -0.2100
    8MOL    C53 1747   4.281   3.204   2.802  1.2102 -0.0682  1.0911
    8MOL    H54 1748   4.233   3.033   2.581 -1.4086 -0.7122 -0.2756
    8MOL    H55 1749   4.287   2.874   2.562  0.7001  0.6032  0.1055
    8MOL    H56 1750   4.364   2.937   2.827  2.4240 -1.6775 -0.1184
    8MOL    H57 1751   4.435   3.164   2.642 -0.3940 -0.1304  0.0039
    8MOL    H58 1752   4.484   3.140   2.809  1.6625 -0.3585 -3.1177
    8MOL    H59 1753   4.193   3.198   2.739  1.5384 -3.0863  0.8057
    8MOL    H60 1754   4.246   3.154   2.893  0.5876 -0.5088  0.6131
    8MOL    H61 1755   4.314   3.306   2.820  0.9434  0.1957  0.0954
    8MOL    C62 1756   4.514   2.909   2.675  0.1455 -0.0097  0.5435
    8MOL    C63 1757   4.508   2.757   2.677 -0.2978 -0.2245 -0.0621
    8MOL    C64 1758   4.545   2.708   2.816  0.1872 -0.1217  0.9386
    8MOL    C65 1759   4.508   2.559   2.845 -0.1685  0.6284  0.0762
    8MOL    H66 1760   4.600   2.941   2.734 -2.1699  3.3847  2.2567
    8MOL    H67 1761   4.536   2.939   2.572  2.7888  0.1581  1.1231
    8MOL    H68 1762   4.409   2.725   2.648  1.0123 -1.5283 -3.2982
    8MOL    H69 1763   4.496   2.757   2.900  0.6322  1.3757  0.3425
    8MOL    H70 1764   4.654   2.707   2.823  0.2271  0.4019  0.3980
    8MOL    H71 1765   4.539   2.530   2.945 -0.6189 -0.1337 -0.0032
    8MOL    H72 1766   4.401   2.542   2.855  0.0163 -0.1857  0.7839
    8MOL    H73 1767   4.559   2.492   2.775  0.8455  1.3184  0.1491
    8MOL    C74 1768   4.591   2.692   2.562 -0.1438 -0.0864  0.7605
    8MOL    C75 1769   4.523   2.687   2.421  0.1486  0.5284  0.5239
    8MOL    C76 1770   4.401   2.595   2.414 -0.0070 -0.2433  0.5972
    8MOL    C77 1771   4.298   2.610   2.299  0.0067  0.5923  0.2193
    8MOL    H78 1772   4.612   2.591   2.596 -2.7797 -0.4777  1.3178
    8MOL    H79 1773   4.675   2.761   2.554 -0.7821  0.8560  1.9496
    8MOL    H80 1774   4.490   2.789   2.398 -1.3003  0.4620  2.1619
    8MOL    H81 1775   4.342   2.606   2.505  0.3288 -0.8292  0.8897
    8MOL    H82 1776   4.441   2.494   2.414  0.8843  0.1001 -0.6902
    8MOL    H83 1777   4.261   2.712   2.296 -1.8849 -0.0247  1.7098
    8MOL    H84 1778   4.351   2.604   2.204  0.1009  1.2946  0.2270
    8MOL    H85 1779   4.216   2.538   2.305 -0.6083  1.2154 -0.5585
    8MOL    C86 1780   4.618   2.663   2.302  0.4742  0.3334 -0.7865
    8MOL    C87 1781   4.715   2.776   2.275 -1.3207  0.1471 -0.1114
    8MOL    C88 1782   4.663   2.918   2.264  0.2302  0.3590 -0.1515
    8MOL    C89 1783   4.545   2.939   2.165  0.3027 -0.5724 -0.2683
    8MOL    H90 1784   4.555   2.650   2.213 -0.4714 -0.7979  0.0243
    8MOL    H91 1785   4.660   2.562   2.303 -1.1156 -0.3433 -0.7117
    8MOL    H92 1786   4.787   2.774   2.357  1.2917  1.5791 -2.3138
    8MOL    H93 1787   4.742   2.985   2.231  0.2255  0.3014 -0.2774
    8MOL    H94 1788   4.636   2.960   2.361 -2.0246 -0.8269 -0.2403
    8MOL    H95 1789   4.491   3.034   2.163 -1.9120 -1.7924 -0.9414
    8MOL    H96 1790   4.581   2.922   2.063 -3.3384  0.4400 -1.8124
    8MOL    H97 1791   4.471   2.859   2.179 -0.9833  0.3644 -1.5256
    8MOL    C98 1792   4.798   2.745   2.147  0.0729  0.1031  0.4062
    8MOL    C99 1793   4.890   2.617   2.150  0.0561  0.0193  0.0427
    8MOL   C100 1794   5.027   2.637   2.205 -1.0070 -0.1740  0.1449
    8MOL   C101 1795   5.124   2.720   2.126 -0.0104 -0.1122 -0.2671
    8MOL   H102 1796   4.862   2.826   2.115  1.8220 -0.8537  1.3900
    8MOL   H103 1797   4.726   2.729   2.067 -1.0467 -0.3365  1.4909
    8MOL   H104 1798   4.846   2.550   2.224 -0.2147  0.4753  0.3033
    8MOL   H105 1799   5.073   2.542   2.232  0.2827 -0.1601 -1.9139
    8MOL   H106 1800   5.012   2.682   2.303  0.3238 -0.0183  0.2930
    8MOL   H107 1801   5.221   2.720   2.175 -0.2620 -2.1653  0.2631
    8MOL   H108 1802   5.135   2.673   2.028  0.1110 -0.9179  0.1328
    8MOL   H109 1803   5.088   2.821   2.109  1.5171  0.0249 -2.9938
    8MOL   C110 1804   4.891   2.547   2.018  0.2556 -0.3560 -0.2556
    8MOL   C111 1805   4.773   2.454   1.997  0.1161 -0.2278  0.0519
    8MOL   C112 1806   4.789   2.303   2.056 -0.1697 -0.4644 -0.4452
    8MOL   C113 1807   4.660   2.228   2.074  0.1044 -0.3222  0.2550
    8MOL   H114 1808   4.986   2.495   2.008  1.2005  1.3279 -0.1688
    8MOL   H115 1809   4.898   2.627   1.944 -0.0148 -1.5177 -1.5699
    8MOL   H116 1810   4.686   2.508   2.035  0.1229  0.9287 -1.5457
    8MOL   H117 1811   4.834   2.320   2.153 -2.2521 -2.0131  0.8256
    8MOL   H118 1812   4.860   2.244   1.998 -0.6996 -0.8662 -0.6939
    8MOL   H119 1813   4.672   2.127   2.112 -0.7093 -1.6192 -2.8245
    8MOL   H120 1814   4.593   2.286   2.138  1.2652 -0.5026  1.6587
    8MOL   H121 1815   4.616   2.222   1.975  0.0815  0.6367  0.1957
    8MOL   C122 1816   4.736   2.451   1.851 -0.6874 -0.1580 -0.6863
    8MOL   C123 1817   4.675   2.584   1.789  0.2459  0.0930 -0.3873
    8MOL   C124 1818   4.524   2.583   1.765 -0.6394  0.6458 -0.0166
    8MOL   C125 1819   4.440   2.540   1.884  0.2243 -0.3448  0.0954
    8MOL   H126 1820   4.678   2.362   1.829  0.6468 -0.9601 -1.0395
    8MOL   H127 1821   4.824   2.421   1.794  0.7814  1.5565  0.6096
    8MOL   H128 1822   4.686   2.651   1.875 -2.7559  0.2542 -0.0476
    8MOL   H129 1823   4.505   2.507   1.688 -1.7490  2.1845 -1.2942
    8MOL   H130 1824   4.491   2.681   1.730 -0.0472  0.8849  0.0913
    8MOL   H131 1825   4.335   2.533   1.856 -0.1790  2.0536  0.8634
    8MOL   H132 1826   4.470   2.448   1.934 -0.9847 -0.8339 -0.0520
    8MOL   H133 1827   4.444   2.625   1.952 -1.3492  0.8384 -1.2525
    8MOL   C134 1828   4.764   2.636   1.665  0.7138 -0.2781 -0.8390
    8MOL   C135 1829   4.737   2.773   1.603 -0.6954 -0.1144 -0.2429
    8MOL   C136 1830   4.835   2.813   1.494  0.0074 -0.0388  0.3334
    8MOL   C137 1831   4.836   2.727   1.366  0.1340 -0.0344  0.2213
    8MOL   H138 1832   4.770   2.563   1.585  2.5240 -2.0840  0.8881
    8MOL   H139 1833   4.866   2.626   1.703  0.4118  1.2248  0.4155
    8MOL   H140 1834   4.634   2.759   1.571 -0.6226 -0.4051 -0.3499
    8MOL   H141 1835   4.930   2.818   1.546 -0.4744 -1.8613  1.4732
    8MOL   H142 1836   4.806   2.908   1.450 -0.0047  0.0929  0.6254
    8MOL   H143 1837   4.901   2.776   1.293 -0.4586 -0.7264 -0.7816
    8MOL   H144 1838   4.869   2.627   1.395 -1.0995 -0.2874  0.8184
    8MOL   H145 1839   4.737   2.723   1.321 -1.6169 -0.7016  3.9108
    8MOL   C146 1840   4.746   2.887   1.708  0.5720 -0.1185  0.1906
    8MOL   C147 1841   4.662   3.015   1.677 -0.1105 -0.7426 -0.3871
    8MOL   C148 1842   4.743   3.138   1.723  0.0630  0.2160 -0.4316
    8MOL   C149 1843   4.804   3.130   1.864  0.1020 -0.1797  0.0989
    8MOL   H150 1844   4.850   2.907   1.735  0.1381 -0.8870  2.4968
    8MOL   H151 1845   4.703   2.845   1.799 -1.5818 -3.4370 -2.2397
    8MOL   H152 1846   4.664   3.027   1.569  0.7978  1.6682 -0.1440
    8MOL   H153 1847   4.676   3.223   1.717  1.0800  0.9877 -0.9682
    8MOL   H154 1848   4.820   3.164   1.651  0.3495  1.9960  0.5075
    8MOL   H155 1849   4.884   3.058   1.879 -0.3076 -1.1243 -2.0316
    8MOL   H156 1850   4.841   3.232   1.875  1.3327 -0.8029  1.9339
    8MOL   H157 1851   4.731   3.108   1.943 -0.8032 -2.5328 -1.3343
    8MOL   C158 1852   4.521   3.005   1.720 -0.4787  0.2783 -0.1508
    8MOL   C159 1853   4.423   3.108   1.658  0.8010 -0.2374 -0.1440
    8MOL   C160 1854   4.317   3.159   1.766 -0.4724  0.0300  0.9397
    8MOL   C161 1855   4.386   3.237   1.877  0.6977  0.0700  0.3649
    8MOL   H162 1856   4.520   3.007   1.829 -0.8811 -0.6457 -0.1349
    8MOL   H163 1857   4.486   2.904   1.699 -2.3006  0.9724 -0.5015
    8MOL   H164 1858   4.475   3.194   1.616 -1.7315  0.9724 -0.9095
    8MOL   H165 1859   4.257   3.079   1.810 -1.2568  0.4233  0.5792
    8MOL   H166 1860   4.266   3.238   1.711  1.1157  0.3592 -0.0865
    8MOL   H167 1861   4.334   3.332   1.895 -1.0579 -0.7012 -0.4762
    8MOL   H168 1862   4.389   3.189   1.974 -0.2637  1.4806  1.1292
    8MOL   H169 1863   4.487   3.261   1.844  0.2689 -1.3029 -2.0707
    8MOL   C170 1864   4.345   3.040   1.539  0.7927  0.4622  0.8365
    8MOL   C171 1865   4.424   3.023   1.406  0.2030  0.5463 -0.0301
    8MOL   C172 1866   4.468   3.160   1.352 -0.2455  0.8083  0.3407
    8MOL   C173 1867   4.362   3.276   1.352 -0.3343 -0.8180 -0.1439
    8MOL   H174 1868   4.246   3.080   1.515  1.2451  1.0168 -0.1220
    8MOL   H175 1869   4.324   2.937   1.568  1.6951  0.0736  0.1611
    8MOL   H176 1870   4.520   2.971   1.407  0.3365  0.8088  0.7574
    8MOL   H177 1871   4.509   3.143   1.253  0.7749  1.9812  0.5439
    8MOL   H178 1872   4.554   3.193   1.411 -0.7000  0.5547  1.1580
    8MOL   H179 1873   4.420   3.366   1.328  0.5842 -0.4230  3.2776
    8MOL   H180 1874   4.276   3.263   1.286 -1.3795 -0.8363  1.2053
    8MOL   H181 1875   4.314   3.283   1.450  0.9550 -1.3579  0.5315
    8MOL   C182 1876   4.354   2.953   1.294 -0.6677  0.9250 -0.1489
    8MOL   C183 1877   4.311   2.808   1.324  0.4452  0.1911 -0.3759
    8MOL   C184 1878   4.419   2.705   1.309 -0.1518  1.0772  0.6891
    8MOL   C185 1879   4.405   2.568   1.362  0.0397 -0.2341  0.2004
    8MOL   H186 1880   4.418   2.948   1.206  1.9664 -0.6808  1.7713
    8MOL   H187 1881   4.266   3.013   1.270 -1.9361 -1.6496 -2.1602
    8MOL   H188 1882   4.272   2.794   1.426  0.5932  0.3313 -0.3011
    8MOL   H189 1883   4.514   2.734   1.355  0.1880 -0.7200  1.1490
    8MOL   H190 1884   4.434   2.695   1.201  1.0309 -0.9536  1.0157
    8MOL   H191 1885   4.414   2.581   1.470  0.9730 -0.3187  0.1342
    8MOL   H192 1886   4.308   2.520   1.346 -0.0534  0.3611 -1.1280
    8MOL   H193 1887   4.492   2.507   1.339  0.3978  0.0172  0.8754
    8MOL   C194 1888   4.192   2.762   1.241 -0.2469  0.1710 -1.0945
    8MOL   C195 1889   4.057   2.830   1.270  0.2803 -0.1190  0.9429
    8MOL   C196 1890   3.991   2.789   1.404  0.0331 -0.2142  0.7590
    8MOL   C197 1891   3.944   2.647   1.397 -0.8737  0.3834 -0.3508
    8MOL   H198 1892   4.172   2.655   1.240  1.5562 -0.1947 -0.4627
    8MOL   H199 1893   4.228   2.783   1.141 -0.4905 -0.9764 -1.4273
    8MOL   H200 1894   4.068   2.937   1.288  1.6275 -0.4850  2.3182
    8MOL   H201 1895   3.904   2.854   1.414  1.3281  1.5888  0.7170
    8MOL   H202 1896   4.055   2.802   1.491  0.6994 -1.1954  0.4213
    8MOL   H203 1897   3.877   2.637   1.482  1.1803 -0.6503  1.1689
    8MOL   H204 1898   3.887   2.632   1.305 -0.1727 -3.2506 -0.2848
    8MOL   H205 1899   4.018   2.568   1.404 -1.5734 -0.1102  1.7153
    8MOL   C206 1900   3.971   2.821   1.139 -0.5286  0.0719 -0.9364
    8MOL   C207 1901   4.003   2.937   1.048 -0.1686  0.0033 -0.5376
    8MOL   C208 1902   3.912   3.062   1.072  1.1721 -0.1540 -0.2553
    8MOL   C209 1903   3.868   3.094   1.216 -0.2323  0.2520 -0.2000
    8MOL   H210 1904   3.869   2.826   1.175 -0.4595  2.7759 -1.0135
    8MOL   H211 1905   3.987   2.722   1.097  0.1646  0.2933 -1.2161
    8MOL   H212 1906   4.100   2.977   1.080 -0.2971  0.2370 -0.4405
    8MOL   H213 1907   3.817   3.051   1.018  0.0043 -0.7394  1.8552
    8MOL   H214 1908   3.953   3.143   1.012 -0.2711  0.3221 -0.6190
    8MOL   H215 1909   3.801   3.180   1.224  1.7644  1.8642 -0.3064
    8MOL   H216 1910   3.829   3.008   1.270 -0.7699  0.0422 -0.9051
    8MOL   H217 1911   3.958   3.119   1.272 -1.6321  0.5384  1.9589
    8MOL   C218 1912   4.003   2.904   0.901  0.6916  0.7593 -0.8271
    8MOL   C219 1913   4.125   2.819   0.859 -1.1383 -0.3387 -0.4592
    8MOL   C220 1914   4.255   2.906   0.858 -0.2763 -0.1479 -0.0151
    8MOL   C221 1915   4.383   2.847   0.906  0.1505 -0.3646  0.6700
    8MOL   H222 1916   3.982   2.987   0.833 -2.2796 -0.3502 -1.3234
    8MOL   H223 1917   3.910   2.847   0.894  0.8248  0.6367 -1.6007
    8MOL   H224 1918   4.136   2.733   0.925 -0.3337  0.6058  0.6764
    8MOL   H225 1919   4.247   2.992   0.924  1.5324 -0.8324  1.1337
    8MOL   H226 1920   4.270   2.948   0.759  0.9446  2.4320  1.2104
    8MOL   H227 1921   4.374   2.772   0.985  0.0173 -0.6288  0.4076
    8MOL   H228 1922   4.432   2.804   0.819 -0.5878  1.8861 -0.8840
    8MOL   H229 1923   4.456   2.921   0.935  0.8022 -0.4029 -0.8461
    8MOL   C230 1924   4.103   2.748   0.728  0.2426 -0.5702 -0.2805
    8MOL   C231 1925   4.228   2.680   0.673  0.2875 -0.4126 -0.0119
    8MOL   C232 1926   4.202   2.607   0.544  0.5651  0.1095 -0.6418
    8MOL   C233 1927   4.331   2.546   0.492 -0.4888 -0.0814 -0.1217
    8MOL   H234 1928   4.065   2.830   0.667  0.0060  1.0851  2.0093
    8MOL   H235 1929   4.023   2.676   0.745  0.5575 -0.7114  0.6118
    8MOL   H236 1930   4.297   2.760   0.647 -1.7070  1.5284  0.4261
    8MOL   H237 1931   4.166   2.682   0.474 -2.5371 -0.5474  0.1562
    8MOL   H238 1932   4.127   2.530   0.565  0.5862  0.0654 -0.7312
    8MOL   H239 1933   4.312   2.470   0.416 -0.6800 -0.6076  0.4464
    8MOL   H240 1934   4.409   2.614   0.458  0.0597  0.3191  1.8449
    8MOL   H241 1935   4.380   2.494   0.575  1.7299 -0.5454 -1.6809
    8MOL   H242 1936   4.280   2.625   0.751 -1.7353  0.6030  2.1318
    9MOL     C1 1937   6.147   5.634   2.573  0.0956  0.2696 -0.0424
    9MOL     C2 1938   6.056   5.517   2.619 -0.3079  0.0146  0.6969
    9MOL     C3 1939   5.961   5.555   2.739  0.3742  0.7509  0.4387
    9MOL     C4 1940   5.825   5.476   2.754 -0.2912 -0.5818  0.4206
    9MOL     H5 1941   6.178   5.597   2.475  0.7834  3.2894 -1.0386
    9MOL     H6 1942   6.100   5.731   2.556  3.0760  1.9260  0.6724
    9MOL     H7 1943   5.991   5.479   2.540  0.9431  0.4341 -0.5565
    9MOL     H8 1944   5.925   5.658   2.730  0.1265  0.5742 -0.6580
    9MOL     H9 1945   6.019   5.544   2.830 -0.9497  1.1372  1.3456
    9MOL    H10 1946   5.766   5.528   2.829  0.2952 -0.0636  0.5315
    9MOL    H11 1947   5.755   5.479   2.670 -2.5574 -2.1427  2.2111
    9MOL    H12 1948   5.835   5.368   2.765  0.2104 -0.5181  0.5928
    9MOL    H13 1949   6.235   5.661   2.632 -1.1037  0.6801  1.6055
    9MOL    C14 1950   6.142   5.392   2.657  0.3390  0.8865 -0.4356
    9MOL    C15 1951   6.239   5.329   2.549  0.2567  0.9639  0.1009
    9MOL    C16 1952   6.383   5.374   2.550 -0.3335  0.0907 -0.3102
    9MOL    C17 1953   6.476   5.331   2.663  0.7381 -0.3240 -0.2656
    9MOL    H18 1954   6.069   5.315   2.679 -1.5404  2.7748  0.0771
    9MOL    H19 1955   6.198   5.409   2.749  0.0121 -1.4237  0.2210
    9MOL    H20 1956   6.250   5.226   2.581 -0.9618  0.2162 -1.8682
    9MOL    H21 1957   6.391   5.482   2.541  0.5505 -0.0207 -0.9240
    9MOL    H22 1958   6.420   5.345   2.452 -0.6074 -1.2912 -0.0116
    9MOL    H23 1959   6.432   5.359   2.758  1.3801 -0.6877  0.1445
    9MOL    H24 1960   6.477   5.222   2.672 -0.7193 -0.1962  1.7829
    9MOL    H25 1961   6.578   5.364   2.642  0.5757 -0.6019 -1.5696
    9MOL    C26 1962   6.177   5.300   2.411 -0.0340 -0.8043 -0.0740
    9MOL    C27 1963   6.062   5.201   2.412  0.4875 -0.5612  0.1454
    9MOL    C28 1964   6.082   5.058   2.483  0.1813 -0.5284 -0.1684
    9MOL    C29 1965   6.177   4.967   2.407  0.1625 -0.2152 -0.3096
    9MOL    H30 1966   6.256   5.253   2.353  0.3461 -2.1329  1.4870
    9MOL    H31 1967   6.149   5.400   2.378 -3.4739 -1.2986  1.0940
    9MOL    H32 1968   5.983   5.250   2.469  0.2316 -2.2449  1.2609
    9MOL    H33 1969   5.981   5.019   2.469  0.0372  0.7588 -2.8861
    9MOL    H34 1970   6.108   5.068   2.589  2.4534 -0.0233 -0.7516
    9MOL    H35 1971   6.129   4.924   2.320  0.3021 -0.8948 -0.0558
    9MOL    H36 1972   6.266   5.023   2.380  1.2060 -1.5794  0.2037
    9MOL    H37 1973   6.225   4.896   2.475 -0.9881 -1.8712 -1.1891
    9MOL    C38 1974   5.997   5.177   2.274  0.3014 -0.3297  0.6626
    9MOL    C39 1975   5.840   5.141   2.259  0.1393 -0.4401 -0.3805
    9MOL    C40 1976   5.809   5.093   2.115  0.0703 -0.1151 -0.9650
    9MOL    C41 1977   5.812   5.206   2.010 -0.0457 -1.0857 -0.4598
    9MOL    H42 1978   6.049   5.098   2.220 -2.0281 -1.2254 -0.3457
    9MOL    H43 1979   6.014   5.273   2.225 -1.4891  0.0302  0.7279
    9MOL    H44 1980   5.811   5.057   2.322  1.2637 -1.4367 -1.1619
    9MOL    H45 1981   5.723   5.027   2.106  0.3423 -0.5190 -0.6681
    9MOL    H46 1982   5.885   5.017   2.093  0.6643 -0.6098  2.4409
    9MOL    H47 1983   5.729   5.275   2.023  1.0029 -0.0306  0.7757
    9MOL    H48 1984   5.907   5.260   2.015 -0.7858  0.1963 -0.0366
    9MOL    H49 1985   5.799   5.168   1.909 -4.1775 -2.2273  0.4008
    9MOL    C50 1986   5.739   5.251   2.301  0.1707 -0.4641 -0.6033
    9MOL    C51 1987   5.589   5.231   2.285  0.0784 -0.4242 -0.2716
    9MOL    C52 1988   5.507   5.359   2.267 -0.4322  0.3835  0.1941
    9MOL    C53 1989   5.513   5.459   2.376 -0.4857 -0.3641 -1.3880
    9MOL    H54 1990   5.770   5.344   2.254 -1.7539 -0.6032 -2.1729
    9MOL    H55 1991   5.764   5.275   2.404 -1.7989  2.0471 -0.6782
    9MOL    H56 1992   5.574   5.178   2.191  0.3977 -0.1112 -0.5014
    9MOL    H57 1993   5.404   5.325   2.255 -0.6178  1.6052 -2.0451
    9MOL    H58 1994   5.533   5.404   2.171 -0.8164 -1.9134 -1.0412
    9MOL    H59 1995   5.447   5.437   2.460  1.3860 -1.7350 -0.2259
    9MOL    H60 1996   5.616   5.461   2.411 -0.4137 -1.8925 -1.4515
    9MOL    H61 1997   5.507   5.555   2.326  3.5278 -1.7272 -4.7441
    9MOL    C62 1998   5.526   5.154   2.408 -0.3882  0.5279 -0.0383
    9MOL    C63 1999   5.541   5.004   2.416 -1.0076  0.3890 -0.0180
    9MOL    C64 2000   5.466   4.933   2.304 -0.5083  0.0379 -0.3512
    9MOL    C65 2001   5.502   4.785   2.283  0.6073  0.0714  0.3670
    9MOL    H66 2002   5.418   5.156   2.393 -0.2865  0.1314 -0.8279
    9MOL    H67 2003   5.556   5.207   2.498 -0.7131 -0.1459  0.4678
    9MOL    H68 2004   5.644   4.969   2.412 -1.1976 -0.4748  2.0349
    9MOL    H69 2005   5.502   4.974   2.210 -0.7796 -1.3785 -1.0927
    9MOL    H70 2006   5.359   4.955   2.302 -0.0110  2.5094 -1.3987
    9MOL    H71 2007   5.438   4.748   2.203  0.6844 -0.8925  0.7392
    9MOL    H72 2008   5.604   4.772   2.245  0.9819 -0.2171  1.4697
    9MOL    H73 2009   5.485   4.721   2.369 -1.4810  1.4378  1.0010
    9MOL    C74 2010   5.494   4.954   2.559 -0.1652  0.1459  0.1110
    9MOL    C75 2011   5.556   5.025   2.684  0.3315 -0.4741  1.2106
    9MOL    C76 2012   5.703   5.038   2.695  0.3901 -0.3332 -0.1264
    9MOL    C77 2013   5.786   4.911   2.669 -0.1664  0.0638  0.4625
    9MOL    H78 2014   5.528   4.850   2.560 -0.3983  0.0492  3.2041
    9MOL    H79 2015   5.385   4.946   2.558 -0.2060  0.6319 -1.6901
    9MOL    H80 2016   5.521   5.128   2.693  0.5798 -0.2872  0.1224
    9MOL    H81 2017   5.736   5.077   2.792  0.4240  1.3230 -0.7844
    9MOL    H82 2018   5.742   5.114   2.627  2.3361  1.4338  2.8085
    9MOL    H83 2019   5.762   4.838   2.746  1.1891 -1.3424 -0.4084
    9MOL    H84 2020   5.781   4.864   2.571 -2.2224 -1.1003  1.1029
    9MOL    H85 2021   5.893   4.934   2.674 -0.4319  1.7645 -1.3166
    9MOL    C86 2022   5.500   4.955   2.810  0.1581  0.2828  0.2459
    9MOL    C87 2023   5.508   5.044   2.937  0.0409 -0.0385 -0.1134
    9MOL    C88 2024   5.549   4.954   3.057 -0.4095 -0.1676 -0.0643
    9MOL    C89 2025   5.433   4.858   3.093 -0.3167  0.4926 -0.2787
    9MOL    H90 2026   5.544   4.857   2.824 -0.1044 -0.0093 -0.9236
    9MOL    H91 2027   5.392   4.944   2.799  0.2992  0.5362 -1.4180
    9MOL    H92 2028   5.595   5.107   2.925  0.4437 -0.0360  2.4845
    9MOL    H93 2029   5.582   5.016   3.140 -2.4833  1.6997 -0.5942
    9MOL    H94 2030   5.632   4.892   3.023 -2.0976 -1.5331 -1.7729
    9MOL    H95 2031   5.456   4.811   3.188 -1.6730 -1.9821 -1.1156
    9MOL    H96 2032   5.345   4.920   3.112 -0.5138  0.0264  0.3253
    9MOL    H97 2033   5.415   4.784   3.015  0.8054 -0.2972  0.2156
    9MOL    C98 2034   5.389   5.141   2.966 -0.0918  0.0784  0.0852
    9MOL    C99 2035   5.404   5.220   3.095  0.0419  0.3071  0.3681
    9MOL   C100 2036   5.278   5.304   3.115  0.1417 -0.4192 -0.4348
    9MOL   C101 2037   5.169   5.222   3.181 -0.4629  0.2191  0.5011
    9MOL   H102 2038   5.289   5.100   2.949 -0.3722  1.9278 -3.0243
    9MOL   H103 2039   5.388   5.211   2.883  0.4967  0.5277  0.4593
    9MOL   H104 2040   5.416   5.154   3.181 -1.8842  2.1984  2.1800
    9MOL   H105 2041   5.246   5.337   3.016  0.0768  0.9266  0.0392
    9MOL   H106 2042   5.287   5.388   3.183  0.2691  0.5622 -1.6442
    9MOL   H107 2043   5.081   5.284   3.199  0.0475  0.1734  3.4499
    9MOL   H108 2044   5.132   5.144   3.115  1.0155  0.7000 -0.9548
    9MOL   H109 2045   5.195   5.190   3.282  2.0758 -0.4082 -0.3209
    9MOL   C110 2046   5.535   5.307   3.093  0.4602 -0.1051 -0.0389
    9MOL   C111 2047   5.554   5.381   3.227 -0.0021  0.7439 -0.9107
    9MOL   C112 2048   5.536   5.530   3.205 -0.3061 -0.4064 -0.0087
    9MOL   C113 2049   5.662   5.591   3.139  0.5925 -0.1721  0.9628
    9MOL   H114 2050   5.537   5.366   3.002 -0.3914  0.2987  0.2038
    9MOL   H115 2051   5.623   5.243   3.092 -0.2300 -1.0726  0.5202
    9MOL   H116 2052   5.472   5.355   3.294  2.2743 -0.6317  1.3993
    9MOL   H117 2053   5.510   5.585   3.296  1.3323 -0.5658  0.5565
    9MOL   H118 2054   5.450   5.543   3.139 -0.0645 -1.4191 -0.5278
    9MOL   H119 2055   5.647   5.686   3.088  2.8026 -0.0565  0.4838
    9MOL   H120 2056   5.737   5.618   3.213  0.3361  1.5524  0.6137
    9MOL   H121 2057   5.712   5.530   3.063 -1.9882 -0.0999 -0.8682
    9MOL   C122 2058   5.676   5.325   3.296  0.5131  0.5464  0.3368
    9MOL   C123 2059   5.720   5.376   3.435  0.6010 -0.0165 -0.1795
    9MOL   C124 2060   5.869   5.328   3.474  0.2025 -0.1141 -0.7261
    9MOL   C125 2061   5.879   5.182   3.491 -1.1948  0.7400  0.3440
    9MOL   H126 2062   5.757   5.338   3.224  1.7123 -2.7635  0.9764
    9MOL   H127 2063   5.669   5.218   3.314 -0.9204  0.6486  0.3794
    9MOL   H128 2064   5.719   5.485   3.426  0.0767 -0.0918 -1.0733
    9MOL   H129 2065   5.905   5.379   3.563 -0.9819 -0.6317  0.0753
    9MOL   H130 2066   5.928   5.363   3.390 -1.3971  5.9207  0.3971
    9MOL   H131 2067   5.845   5.115   3.413  0.2642  1.8721 -1.3033
    9MOL   H132 2068   5.984   5.161   3.513 -1.3019  0.1647  0.2958
    9MOL   H133 2069   5.825   5.150   3.580 -0.7702 -2.5138 -0.5338
    9MOL   C134 2070   5.617   5.354   3.548 -0.2009  0.1147  1.0698
    9MOL   C135 2071   5.631   5.454   3.664  0.3784 -0.1624  0.2713
    9MOL   C136 2072   5.605   5.387   3.803  0.5269 -0.6483  0.5955
    9MOL   C137 2073   5.473   5.316   3.821 -0.1629 -1.1768 -0.4300
    9MOL   H138 2074   5.652   5.256   3.582  0.5434 -0.0626 -0.1562
    9MOL   H139 2075   5.514   5.341   3.515 -0.3342  0.0776  1.5074
    9MOL   H140 2076   5.735   5.483   3.671  0.2468  0.7144 -1.2003
    9MOL   H141 2077   5.626   5.467   3.874  0.8257  1.1670 -1.4823
    9MOL   H142 2078   5.682   5.310   3.809  0.4293 -0.8540 -0.5306
    9MOL   H143 2079   5.457   5.250   3.736  1.5711  0.4847 -2.0986
    9MOL   H144 2080   5.478   5.252   3.909  1.0799  2.4483  2.2669
    9MOL   H145 2081   5.383   5.376   3.828 -0.6412 -1.9016 -0.3127
    9MOL   C146 2082   5.545   5.579   3.640  0.2271 -0.2877 -1.0324
    9MOL   C147 2083   5.575   5.709   3.719  1.2113 -0.0011 -0.2698
    9MOL   C148 2084   5.451   5.799   3.695  0.2419  0.7442  0.4628
    9MOL   C149 2085   5.339   5.788   3.798  0.0758 -0.1245  0.3728
    9MOL   H150 2086   5.438   5.558   3.647 -0.2619  2.8612  2.4154
    9MOL   H151 2087   5.564   5.607   3.536 -0.3859  3.6521 -0.1779
    9MOL   H152 2088   5.572   5.689   3.826 -0.9079  1.0666 -0.1025
    9MOL   H153 2089   5.419   5.789   3.592  1.5077  1.1562  0.0279
    9MOL   H154 2090   5.481   5.903   3.686  1.8776  0.1032 -1.6956
    9MOL   H155 2091   5.266   5.868   3.785 -0.2671 -0.2318  1.6276
    9MOL   H156 2092   5.282   5.695   3.802  0.9389 -0.7047 -0.4985
    9MOL   H157 2093   5.383   5.822   3.892  0.7669  0.0496 -0.0132
    9MOL   C158 2094   5.710   5.766   3.683  0.3222  0.3957 -0.8298
    9MOL   C159 2095   5.749   5.893   3.767 -0.2497 -0.4849  0.2771
    9MOL   C160 2096   5.866   5.970   3.706 -0.5038 -0.0785  0.0465
    9MOL   C161 2097   5.825   6.056   3.588  0.2776  0.5963 -0.0550
    9MOL   H162 2098   5.707   5.800   3.580 -2.1464  2.3667 -0.1683
    9MOL   H163 2099   5.791   5.694   3.694  0.2018  0.6058  2.0469
    9MOL   H164 2100   5.668   5.965   3.775 -1.5274 -1.9805  1.2163
    9MOL   H165 2101   5.936   5.893   3.674  0.9903  1.6422 -0.9334
    9MOL   H166 2102   5.909   6.034   3.784 -0.9176  1.3975 -0.9106
    9MOL   H167 2103   5.893   6.139   3.570  1.0109  0.2254  0.9352
    9MOL   H168 2104   5.809   5.998   3.497  0.5293 -1.4089  1.1249
    9MOL   H169 2105   5.731   6.106   3.610 -0.3178 -0.6310  0.2292
    9MOL   C170 2106   5.785   5.838   3.907 -0.1289  0.0723  0.4211
    9MOL   C171 2107   5.764   5.938   4.030 -0.3773  0.3561 -0.6553
    9MOL   C172 2108   5.862   5.911   4.149 -0.7643 -0.1826  0.7393
    9MOL   C173 2109   5.999   5.963   4.096 -0.1426 -0.3532  0.1717
    9MOL   H174 2110   5.884   5.795   3.892 -0.4850 -0.5356 -0.1808
    9MOL   H175 2111   5.739   5.743   3.933 -2.8557  1.0566 -0.7241
    9MOL   H176 2112   5.793   6.036   3.992 -2.1924  0.8889 -0.6808
    9MOL   H177 2113   5.866   5.804   4.165 -2.2508 -0.5188 -0.9575
    9MOL   H178 2114   5.841   5.966   4.240 -2.0324  2.1448 -0.8961
    9MOL   H179 2115   6.067   5.941   4.178 -1.2132  0.7561  1.3911
    9MOL   H180 2116   6.040   5.925   4.003 -0.7607  1.7665 -1.0027
    9MOL   H181 2117   6.003   6.071   4.080  0.8260 -0.5289 -0.7708
    9MOL   C182 2118   5.612   5.943   4.069 -0.5299  0.3549 -0.3197
    9MOL   C183 2119   5.579   6.079   4.133  0.2009  0.0920 -0.6242
    9MOL   C184 2120   5.463   6.071   4.240  0.1349  0.0431 -0.4329
    9MOL   C185 2121   5.334   6.044   4.167 -0.0113 -0.1291 -0.4061
    9MOL   H186 2122   5.594   5.860   4.137 -0.0215  0.1290 -0.4525
    9MOL   H187 2123   5.559   5.926   3.975  0.4217  3.5692 -1.5449
    9MOL   H188 2124   5.665   6.099   4.197  1.0971 -2.4194 -0.9970
    9MOL   H189 2125   5.459   6.161   4.301 -0.4505 -0.9314  0.9852
    9MOL   H190 2126   5.492   5.997   4.314 -1.3056 -0.8882 -0.7692
    9MOL   H191 2127   5.293   6.138   4.130 -2.7664 -0.8136  0.7778
    9MOL   H192 2128   5.336   5.972   4.086 -1.6289 -0.7731  0.0942
    9MOL   H193 2129   5.252   6.000   4.224 -0.3005 -0.9604 -1.4400
    9MOL   C194 2130   5.561   6.196   4.029 -0.1398  0.3045  0.4047
    9MOL   C195 2131   5.525   6.342   4.091  0.8883 -0.0464 -0.0537
    9MOL   C196 2132   5.484   6.439   3.974 -0.2667 -0.1374 -0.3262
    9MOL   C197 2133   5.348   6.420   3.913 -0.2776  0.3141 -0.3554
    9MOL   H198 2134   5.486   6.169   3.955  1.3455  2.8168 -2.1226
    9MOL   H199 2135   5.652   6.202   3.969  1.2150  0.7187  2.4252
    9MOL   H200 2136   5.445   6.320   4.162  0.0232  0.9035 -0.7239
    9MOL   H201 2137   5.558   6.430   3.895  0.0677  1.4280 -0.2167
    9MOL   H202 2138   5.501   6.543   4.002 -0.6519 -0.7638  2.4409
    9MOL   H203 2139   5.345   6.330   3.851  0.8374  0.3199 -0.4391
    9MOL   H204 2140   5.268   6.434   3.985 -1.0326  1.1233 -1.3311
    9MOL   H205 2141   5.339   6.495   3.833 -0.4454  1.5062  0.7624
    9MOL   C206 2142   5.643   6.398   4.171  0.4404  0.8788 -0.4938
    9MOL   C207 2143   5.598   6.497   4.287  0.2157 -0.7879  0.1398
    9MOL   C208 2144   5.707   6.608   4.321  0.7549 -0.1963 -0.0576
    9MOL   C209 2145   5.835   6.550   4.381  0.0118 -0.8278 -0.6915
    9MOL   H210 2146   5.732   6.432   4.118  1.0688  0.6386  0.3851
    9MOL   H211 2147   5.680   6.312   4.227 -2.1574 -0.1308 -0.2615
    9MOL   H212 2148   5.523   6.560   4.241 -1.8843 -2.1232  1.6665
    9MOL   H213 2149   5.666   6.680   4.392  0.7154 -0.4517  0.1778
    9MOL   H214 2150   5.752   6.650   4.231 -0.9344 -0.2903 -0.9638
    9MOL   H215 2151   5.906   6.633   4.385 -0.2860 -0.6363  5.2271
    9MOL   H216 2152   5.816   6.522   4.485 -0.5372 -1.5751 -0.9884
    9MOL   H217 2153   5.877   6.463   4.330  0.2228 -1.2474  0.1890
    9MOL   C218 2154   5.547   6.424   4.403  0.0244 -0.3771 -0.2456
    9MOL   C219 2155   5.493   6.521   4.516 -0.3073 -0.5773 -0.5342
    9MOL   C220 2156   5.447   6.432   4.631  0.2106 -0.4646  0.0794
    9MOL   C221 2157   5.424   6.501   4.762 -0.2814  0.4617  0.7636
    9MOL   H222 2158   5.626   6.368   4.452  0.3748 -1.0497 -1.5645
    9MOL   H223 2159   5.462   6.363   4.373  1.4895 -2.0453 -1.0671
    9MOL   H224 2160   5.576   6.583   4.550  2.0435 -3.9203  0.1958
    9MOL   H225 2161   5.519   6.352   4.647  0.4985 -0.1983  0.1343
    9MOL   H226 2162   5.353   6.383   4.607  0.3655 -0.3265 -0.8289
    9MOL   H227 2163   5.345   6.576   4.759 -1.2958 -0.5862  1.1863
    9MOL   H228 2164   5.410   6.433   4.846 -1.5829 -0.3847 -0.1123
    9MOL   H229 2165   5.512   6.558   4.793  1.9647 -2.0419 -0.7550
    9MOL   C230 2166   5.388   6.631   4.463  0.0621 -0.2137 -0.1179
    9MOL   C231 2167   5.403   6.772   4.527 -0.3095  0.5818  0.2905
    9MOL   C232 2168   5.368   6.886   4.426 -0.1368 -0.3210  0.3497
    9MOL   C233 2169   5.363   7.014   4.511  0.1575  0.0556 -0.1930
    9MOL   H234 2170   5.288   6.594   4.484  0.3222 -1.1982 -0.5361
    9MOL   H235 2171   5.388   6.646   4.355  1.0505 -1.6118 -0.3255
    9MOL   H236 2172   5.337   6.769   4.614  0.0427  2.6051  0.6464
    9MOL   H237 2173   5.276   6.864   4.370 -0.0747 -0.1443  0.1732
    9MOL   H238 2174   5.452   6.892   4.356  0.8829  1.0690  1.6619
    9MOL   H239 2175   5.366   7.098   4.441 -1.2924  0.1261 -0.1849
    9MOL   H240 2176   5.269   7.016   4.566 -0.6605  0.0471 -1.5783
    9MOL   H241 2177   5.454   7.039   4.566  0.6040  1.3813 -1.5164
    9MOL   H242 2178   5.502   6.783   4.570  0.3869 -0.6996 -0.9279
   10MOL     C1 2179   0.222   5.563   3.129 -0.0270  0.4392  0.1812
   10MOL     C2 2180   0.149   5.697   3.165 -0.0439  0.0553  0.0007
   10MOL     C3 2181   7.697   5.694   3.155  0.2002 -1.1709 -0.4072
   10MOL     C4 2182   7.631   5.563   3.208  0.0235  0.0310  0.2890
   10MOL     H5 2183   0.195   5.482   3.197 -0.4461  1.1693  0.8839
   10MOL     H6 2184   0.202   5.545   3.023 -2.9418  2.2261  0.3906
   10MOL     H7 2185   0.179   5.725   3.266  1.2558 -0.6158 -0.1910
   10MOL     H8 2186   7.671   5.715   3.051  1.2981  0.3461 -0.3966
   10MOL     H9 2187   7.649   5.770   3.218  1.7181  0.2125 -0.8851
   10MOL    H10 2188   7.658   5.548   3.313 -0.6743 -0.6306  0.3820
   10MOL    H11 2189   7.524   5.568   3.186 -0.0028 -0.4001  0.3107
   10MOL    H12 2190   7.676   5.478   3.158  1.0090 -2.2935  4.8180
   10MOL    H13 2191   0.329   5.582   3.140 -0.1304  0.4847  1.1646
   10MOL    C14 2192   0.213   5.818   3.095  0.3109 -0.5677  0.3242
   10MOL    C15 2193   0.201   5.959   3.167 -0.0929 -0.2139 -0.2017
   10MOL    C16 2194   0.123   6.061   3.080  0.2029 -0.0839 -0.2680
   10MOL    C17 2195   0.195   6.107   2.953  0.2351  0.3435 -0.3071
   10MOL    H18 2196   0.181   5.826   2.992  0.4586 -1.7735  0.1759
   10MOL    H19 2197   0.317   5.794   3.071  0.5566  0.3753  0.4410
   10MOL    H20 2198   0.143   5.941   3.257 -0.8478  2.5134 -0.0960
   10MOL    H21 2199   0.091   6.144   3.144  0.3058  0.2276 -0.6207
   10MOL    H22 2200   0.027   6.016   3.054  0.4303 -0.9905  0.4108
   10MOL    H23 2201   0.175   6.210   2.923  3.4426  1.5970  1.6691
   10MOL    H24 2202   0.298   6.118   2.987 -0.0727  0.6172  0.5701
   10MOL    H25 2203   0.192   6.037   2.870 -0.7933  2.0978 -1.7996
   10MOL    C26 2204   0.329   6.009   3.242  0.2826  0.3259  0.0938
   10MOL    C27 2205   0.318   6.145   3.302 -0.2703 -0.1872 -0.2690
   10MOL    C28 2206   0.455   6.204   3.342 -0.7680  0.4914 -0.2370
   10MOL    C29 2207   0.523   6.123   3.451 -0.7583 -0.6975 -0.4738
   10MOL    H30 2208   0.407   6.001   3.166 -1.0780  0.3570 -1.3259
   10MOL    H31 2209   0.354   5.928   3.311 -1.4790 -0.3969 -0.0839
   10MOL    H32 2210   0.284   6.213   3.224 -1.9512  0.7873  1.2617
   10MOL    H33 2211   0.454   6.307   3.378  0.2772  0.0096  1.2120
   10MOL    H34 2212   0.533   6.201   3.266 -0.3227 -2.6519  0.2833
   10MOL    H35 2213   0.473   6.129   3.548  0.4939  2.5859  0.0220
   10MOL    H36 2214   0.518   6.018   3.421 -1.4308 -0.6448 -0.5576
   10MOL    H37 2215   0.628   6.149   3.467 -0.8049 -0.8494  0.0820
   10MOL    C38 2216   0.209   6.161   3.420 -0.4469 -0.3598 -0.1736
   10MOL    C39 2217   0.184   6.306   3.478 -0.0413  0.0598  0.3785
   10MOL    C40 2218   0.103   6.276   3.605  0.1232  0.0163 -0.0104
   10MOL    C41 2219   0.071   6.411   3.680  0.1270 -0.4501  0.2874
   10MOL    H42 2220   0.252   6.098   3.498 -1.3829 -0.7865  0.0012
   10MOL    H43 2221   0.113   6.113   3.402 -1.7017  1.4620  1.3677
   10MOL    H44 2222   0.281   6.354   3.489 -0.4259  0.7046  0.9449
   10MOL    H45 2223   0.164   6.207   3.663 -2.8608 -3.3606 -0.6967
   10MOL    H46 2224   0.012   6.223   3.575 -0.4806  0.3722  1.1764
   10MOL    H47 2225   7.705   6.470   3.625  1.3587  0.6876 -0.1136
   10MOL    H48 2226   0.027   6.401   3.779 -1.7885  0.8373 -0.4225
   10MOL    H49 2227   0.167   6.462   3.684 -0.5526  1.0394 -1.7598
   10MOL    C50 2228   0.101   6.394   3.373  0.1755 -0.7153 -0.4807
   10MOL    C51 2229   0.130   6.550   3.395 -0.0704  0.3410  0.5014
   10MOL    C52 2230   7.704   6.626   3.371 -1.1417 -0.5318  0.3593
   10MOL    C53 2231   7.642   6.606   3.232  0.4504 -0.4018  0.1576
   10MOL    H54 2232   7.702   6.363   3.366 -0.1911  0.6030 -1.0149
   10MOL    H55 2233   0.120   6.369   3.268 -1.2263 -0.0661 -0.9115
   10MOL    H56 2234   0.169   6.572   3.494  0.6383  2.4158 -0.2024
   10MOL    H57 2235   0.009   6.734   3.383  0.0637 -0.7262  1.0714
   10MOL    H58 2236   7.632   6.601   3.450 -0.2317 -0.1347  1.3377
   10MOL    H59 2237   7.602   6.507   3.214 -0.0355  0.1218 -1.7881
   10MOL    H60 2238   7.548   6.660   3.232  1.1759  0.9147 -1.4574
   10MOL    H61 2239   7.705   6.645   3.151 -0.3076  0.1725 -0.1625
   10MOL    C62 2240   0.246   6.599   3.309 -0.8192 -0.0266  0.1131
   10MOL    C63 2241   0.292   6.748   3.328  0.3657  0.8670 -0.2501
   10MOL    C64 2242   0.375   6.783   3.200 -0.7058  0.4480  0.1480
   10MOL    C65 2243   0.415   6.917   3.187  0.1644 -1.3541 -0.0366
   10MOL    H66 2244   0.205   6.585   3.209  0.6217  0.7544 -0.6182
   10MOL    H67 2245   0.333   6.533   3.314 -0.1333  0.9229  1.0150
   10MOL    H68 2246   0.199   6.805   3.329  0.6287  1.3646 -2.4145
   10MOL    H69 2247   0.313   6.762   3.114 -0.4465  4.5125 -1.1645
   10MOL    H70 2248   0.460   6.716   3.189 -0.3035  0.5929  2.1850
   10MOL    H71 2249   0.330   6.984   3.199  0.6432 -0.3247 -2.2378
   10MOL    H72 2250   0.486   6.954   3.262 -0.3759  1.1203 -0.6837
   10MOL    H73 2251   0.464   6.934   3.091  0.4537  0.5160  0.4226
   10MOL    C74 2252   0.355   6.777   3.463 -0.1400  0.1871 -0.2940
   10MOL    C75 2253   0.289   6.858   3.573  0.7987  1.0539 -0.4403
   10MOL    C76 2254   0.266   7.010   3.531 -0.1375 -0.4274 -0.5314
   10MOL    C77 2255   0.165   7.088   3.615 -0.0953 -0.0330 -0.0021
   10MOL    H78 2256   0.454   6.818   3.443  0.1559  0.0160  0.7552
   10MOL    H79 2257   0.393   6.685   3.508 -0.2841 -0.1533 -0.8621
   10MOL    H80 2258   0.189   6.819   3.591  1.3690 -0.7336 -1.0650
   10MOL    H81 2259   0.224   7.005   3.430  0.0437 -0.5057 -0.6034
   10MOL    H82 2260   0.362   7.061   3.517  0.2176 -1.2443 -1.0783
   10MOL    H83 2261   0.173   7.195   3.599  0.7069 -0.3617 -1.9681
   10MOL    H84 2262   0.061   7.082   3.582 -0.1704  0.4736  0.1340
   10MOL    H85 2263   0.168   7.077   3.724  1.0843  0.8043  0.0521
   10MOL    C86 2264   0.374   6.853   3.701  0.1610  0.0927 -0.1179
   10MOL    C87 2265   0.376   6.718   3.770  0.6421  0.1142  0.0823
   10MOL    C88 2266   0.254   6.710   3.868 -0.4819 -0.3438  0.5156
   10MOL    C89 2267   0.266   6.778   4.004  0.3689 -0.1797  0.9360
   10MOL    H90 2268   0.350   6.933   3.771  4.1908  1.0848  0.2390
   10MOL    H91 2269   0.473   6.895   3.682  0.2334  0.5827  1.2850
   10MOL    H92 2270   0.359   6.636   3.700 -1.8388  0.0446  0.7440
   10MOL    H93 2271   0.219   6.609   3.890 -1.4757 -0.2870 -0.8139
   10MOL    H94 2272   0.162   6.744   3.822 -0.1629  0.4608  0.4696
   10MOL    H95 2273   0.310   6.877   3.990  2.5141 -0.7932  3.0397
   10MOL    H96 2274   0.165   6.776   4.043  0.3681  1.0614  1.0454
   10MOL    H97 2275   0.338   6.732   4.071  0.8473  0.1059  0.6227
   10MOL    C98 2276   0.521   6.679   3.828 -0.4706 -0.2885  0.1983
   10MOL    C99 2277   0.605   6.597   3.727 -0.3694 -0.0158 -0.6172
   10MOL   C100 2278   0.594   6.442   3.755 -0.1366 -0.2689  0.6320
   10MOL   C101 2279   0.456   6.384   3.742 -0.5518 -0.1750 -0.5528
   10MOL   H102 2280   0.516   6.610   3.912  0.7033 -0.9789 -0.2768
   10MOL   H103 2281   0.565   6.776   3.852 -2.1091 -0.0539  2.3475
   10MOL   H104 2282   0.570   6.606   3.624 -0.2205 -2.1776 -0.8807
   10MOL   H105 2283   0.640   6.417   3.851  1.6157 -3.1257 -0.8491
   10MOL   H106 2284   0.662   6.401   3.680 -1.3160 -0.1911 -0.4780
   10MOL   H107 2285   0.386   6.440   3.803  0.9369  1.0495  0.0508
   10MOL   H108 2286   0.427   6.387   3.637 -1.2143  1.2893 -0.3283
   10MOL   H109 2287   0.466   6.279   3.773 -0.0216 -0.3328 -1.2470
   10MOL   C110 2288   0.753   6.630   3.733 -0.2693  0.1603 -0.3356
   10MOL   C111 2289   0.796   6.777   3.688  0.5796 -0.0608 -0.0414
   10MOL   C112 2290   0.752   6.790   3.542 -0.3659  0.0027  0.2544
   10MOL   C113 2291   0.755   6.928   3.484  0.1389 -0.2117  0.2462
   10MOL   H114 2292   0.815   6.579   3.660  0.1567  0.7912 -0.4118
   10MOL   H115 2293   0.788   6.600   3.832  1.9268  0.5598 -0.9746
   10MOL   H116 2294   0.734   6.855   3.732  0.4017  0.2418 -0.8361
   10MOL   H117 2295   0.650   6.760   3.517 -0.7913  0.9584  0.8357
   10MOL   H118 2296   0.806   6.727   3.471 -2.4862  0.1438 -1.5256
   10MOL   H119 2297   0.855   6.972   3.486  0.2646 -0.4734 -0.2764
   10MOL   H120 2298   0.696   6.933   3.393  2.8969  0.2575 -1.5961
   10MOL   H121 2299   0.706   6.997   3.552  0.8909 -0.6031  1.2018
   10MOL   C122 2300   0.937   6.818   3.715  0.1532  0.3724  0.1086
   10MOL   C123 2301   0.972   6.830   3.870  1.1688  0.3902 -0.1395
   10MOL   C124 2302   0.926   6.964   3.922 -0.3189  0.4503  0.2377
   10MOL   C125 2303   0.913   6.959   4.079  0.2293 -0.4889 -0.5672
   10MOL   H126 2304   0.950   6.917   3.672 -2.7099  1.0672  0.7106
   10MOL   H127 2305   1.008   6.755   3.661  0.7174  0.5893  0.5915
   10MOL   H128 2306   0.918   6.756   3.929  1.1087  1.0379  0.6239
   10MOL   H129 2307   0.829   6.988   3.879 -0.9311  1.3909  2.0820
   10MOL   H130 2308   1.001   7.038   3.893  1.6666 -1.3582  0.6355
   10MOL   H131 2309   0.832   6.893   4.106 -0.1964  0.0251 -0.5798
   10MOL   H132 2310   1.000   6.912   4.125  0.0525 -0.3706 -0.1116
   10MOL   H133 2311   0.899   7.055   4.129 -0.5739 -0.1124 -1.5025
   10MOL   C134 2312   1.120   6.803   3.891 -0.5974  0.3847  0.3123
   10MOL   C135 2313   1.159   6.652   3.901 -0.4834 -1.0353 -0.1986
   10MOL   C136 2314   1.129   6.591   4.041  0.2697  0.7164  0.0518
   10MOL   C137 2315   1.179   6.664   4.170  0.3339  0.2958  0.0908
   10MOL   H138 2316   1.144   6.859   3.981  1.8311  0.5658 -0.3900
   10MOL   H139 2317   1.184   6.856   3.819 -2.9303  1.2113 -1.1990
   10MOL   H140 2318   1.106   6.591   3.828 -0.4175  1.8964 -2.8255
   10MOL   H141 2319   1.168   6.491   4.062 -1.5948 -0.3739 -1.5069
   10MOL   H142 2320   1.021   6.578   4.051  0.4416 -1.4192 -0.6230
   10MOL   H143 2321   1.148   6.611   4.260 -0.4163  0.0038 -0.3418
   10MOL   H144 2322   1.288   6.659   4.164  0.2375  0.9096 -2.8206
   10MOL   H145 2323   1.154   6.770   4.169  3.9648  1.3126  3.1101
   10MOL   C146 2324   1.313   6.632   3.879 -0.2555  0.4771 -0.2026
   10MOL   C147 2325   1.337   6.511   3.770 -0.0724 -0.2015 -0.3981
   10MOL   C148 2326   1.471   6.433   3.778 -0.1738  0.3938  1.3391
   10MOL   C149 2327   1.469   6.319   3.883  0.0969  0.0891 -0.1096
   10MOL   H150 2328   1.356   6.605   3.975 -0.5858 -0.8215 -0.4131
   10MOL   H151 2329   1.362   6.710   3.820  0.8619 -1.0927 -1.3649
   10MOL   H152 2330   1.257   6.444   3.803 -0.3551  0.7688  0.9152
   10MOL   H153 2331   1.556   6.500   3.791  1.0844 -0.7463 -0.7182
   10MOL   H154 2332   1.479   6.390   3.678 -0.7571  1.7210  0.7156
   10MOL   H155 2333   1.553   6.249   3.878 -2.2396 -2.8602  0.3604
   10MOL   H156 2334   1.466   6.361   3.983  3.4372  0.3459 -0.0623
   10MOL   H157 2335   1.381   6.254   3.881  1.5182 -1.8293 -1.7775
   10MOL   C158 2336   1.294   6.564   3.631 -0.2739  0.1148  0.1458
   10MOL   C159 2337   1.220   6.459   3.536 -0.8599  0.2460 -0.6678
   10MOL   C160 2338   1.274   6.482   3.393  0.0219 -0.2520 -0.3566
   10MOL   C161 2339   1.272   6.632   3.351 -0.3874 -0.9174  0.3316
   10MOL   H162 2340   1.385   6.599   3.582  0.4960  0.6102  1.8575
   10MOL   H163 2341   1.233   6.654   3.635 -1.1520 -0.5452  2.9153
   10MOL   H164 2342   1.261   6.366   3.575 -0.9664  0.2083 -0.6469
   10MOL   H165 2343   1.219   6.410   3.332 -0.8470 -1.1005  1.4108
   10MOL   H166 2344   1.376   6.444   3.384  0.1605  0.1431 -0.4559
   10MOL   H167 2345   1.272   6.631   3.242 -2.1686  1.6898  0.2545
   10MOL   H168 2346   1.177   6.681   3.374  0.4658  0.4333  1.0819
   10MOL   H169 2347   1.362   6.692   3.369  0.3209 -1.2541 -1.9566
   10MOL   C170 2348   1.067   6.454   3.558  0.3521 -0.6708  0.0948
   10MOL   C171 2349   0.993   6.337   3.485  0.2372 -0.3078 -0.0958
   10MOL   C172 2350   0.867   6.369   3.414 -0.2396  0.7961 -0.7635
   10MOL   C173 2351   0.882   6.480   3.300 -0.7457  0.5146 -0.2999
   10MOL   H174 2352   1.023   6.543   3.514  2.2895 -0.3359 -1.2091
   10MOL   H175 2353   1.030   6.455   3.661 -0.5112  0.0370 -0.2162
   10MOL   H176 2354   1.064   6.280   3.425  0.0391  0.2135 -0.8343
   10MOL   H177 2355   0.789   6.390   3.487 -0.6750 -0.7026 -0.7663
   10MOL   H178 2356   0.839   6.281   3.355  0.6268  0.2427 -0.3640
   10MOL   H179 2357   0.787   6.493   3.248 -1.2147  0.8347  0.6123
   10MOL   H180 2358   0.921   6.578   3.328  1.1926 -0.3047 -0.0866
   10MOL   H181 2359   0.946   6.444   3.220 -0.3107  0.7027 -0.0378
   10MOL   C182 2360   0.960   6.217   3.588  0.6067 -0.6820 -0.8877
   10MOL   C183 2361   1.074   6.161   3.681  0.2877  0.5753  0.2654
   10MOL   C184 2362   1.175   6.074   3.592  0.2971  0.3852  0.0028
   10MOL   C185 2363   1.293   6.012   3.670  0.4931 -0.0344  0.1704
   10MOL   H186 2364   0.913   6.132   3.538  0.4454 -0.1710 -1.6002
   10MOL   H187 2365   0.889   6.250   3.664 -0.6535 -2.1852 -1.3840
   10MOL   H188 2366   1.138   6.236   3.728  1.6407 -0.7367  0.5689
   10MOL   H189 2367   1.219   6.141   3.519  0.4562 -0.5469 -0.7568
   10MOL   H190 2368   1.122   5.992   3.543  2.1811 -0.3025 -0.9024
   10MOL   H191 2369   1.364   5.975   3.596 -0.1331  1.6993 -1.3573
   10MOL   H192 2370   1.351   6.079   3.733  0.5026 -1.7565  2.0349
   10MOL   H193 2371   1.265   5.927   3.732  1.1296 -0.1711  0.2753
   10MOL   C194 2372   1.012   6.074   3.795  0.5941 -0.9658 -0.4244
   10MOL   C195 2373   0.917   6.136   3.905  0.2139 -0.0664  0.1185
   10MOL   C196 2374   0.967   6.255   3.987  0.0848 -0.0746  0.0936
   10MOL   C197 2375   1.077   6.232   4.090  0.1058  0.1556  0.2280
   10MOL   H198 2376   1.089   6.015   3.845  1.4289  0.7703  0.3765
   10MOL   H199 2377   0.968   5.991   3.739  1.9970 -1.0564 -1.4369
   10MOL   H200 2378   0.836   6.191   3.857  0.9883  0.6724 -0.3413
   10MOL   H201 2379   0.892   6.291   4.057 -0.1720 -1.5867  0.6112
   10MOL   H202 2380   0.994   6.341   3.925  0.3695  0.0816  0.4364
   10MOL   H203 2381   1.175   6.212   4.046  0.6764  2.1954  0.4852
   10MOL   H204 2382   1.087   6.310   4.166 -3.6718 -0.0879  1.0392
   10MOL   H205 2383   1.037   6.148   4.147 -0.2811  0.5121  0.4826
   10MOL   C206 2384   0.854   6.031   3.999  0.5876  0.0434 -0.0559
   10MOL   C207 2385   0.723   5.965   3.937  0.4028  0.6315  0.2554
   10MOL   C208 2386   0.608   6.067   3.917  0.5305  0.4102 -0.5073
   10MOL   C209 2387   0.558   6.134   4.047 -0.2100 -0.0774  0.1753
   10MOL   H210 2388   0.824   6.079   4.093 -1.4000  2.3629 -1.8137
   10MOL   H211 2389   0.929   5.956   4.026  0.3260  1.2949  4.6171
   10MOL   H212 2390   0.767   5.947   3.838 -0.3569 -1.2454  0.2474
   10MOL   H213 2391   0.531   6.013   3.861  0.9181 -1.3388  0.5988
   10MOL   H214 2392   0.638   6.156   3.862 -1.1330  1.7952  0.7701
   10MOL   H215 2393   0.457   6.171   4.029  0.0345  0.2313 -0.5508
   10MOL   H216 2394   0.541   6.066   4.131 -1.4613  0.5268  0.4205
   10MOL   H217 2395   0.623   6.217   4.073  0.3298 -1.0304  1.9981
   10MOL   C218 2396   0.658   5.830   3.987 -0.6893  0.4477  0.6087
   10MOL   C219 2397   0.760   5.713   3.954 -0.5604  0.9912 -0.6914
   10MOL   C220 2398   0.774   5.674   3.811 -0.7713  0.1624 -0.9375
   10MOL   C221 2399   0.671   5.575   3.750 -0.2200 -0.1133 -0.7281
   10MOL   H222 2400   0.557   5.808   3.949  0.0483 -0.3940 -0.9464
   10MOL   H223 2401   0.633   5.843   4.092  0.6500 -1.0651  1.1256
   10MOL   H224 2402   0.856   5.764   3.968  0.4622 -0.7202 -1.2064
   10MOL   H225 2403   0.871   5.629   3.793 -0.8757 -0.1238 -0.7901
   10MOL   H226 2404   0.779   5.759   3.743 -0.3076  1.4519  0.6773
   10MOL   H227 2405   0.671   5.474   3.792  0.8216  0.2029  0.0600
   10MOL   H228 2406   0.569   5.613   3.763  0.1720  0.4499  0.7718
   10MOL   H229 2407   0.690   5.572   3.643  0.4496  1.0544 -0.6520
   10MOL   C230 2408   0.749   5.581   4.041  0.3960 -0.2217 -0.3393
   10MOL   C231 2409   0.788   5.591   4.188 -0.0624  0.1228 -0.8112
   10MOL   C232 2410   0.781   5.462   4.278  0.0914  0.2642  0.0802
   10MOL   C233 2411   0.909   5.376   4.262  0.2525 -0.2201  0.6207
   10MOL   H234 2412   0.815   5.509   3.993 -1.6675 -0.9370 -2.2136
   10MOL   H235 2413   0.649   5.537   4.035 -0.4688  1.8990 -1.9816
   10MOL   H236 2414   0.876   5.652   4.211  0.9940 -1.5419 -0.3898
   10MOL   H237 2415   0.691   5.406   4.253 -1.1032  1.0567  2.4610
   10MOL   H238 2416   0.766   5.499   4.379 -0.0829  0.1482  0.0966
   10MOL   H239 2417   0.928   5.351   4.158  1.8059 -1.5001  1.1928
   10MOL   H240 2418   0.997   5.430   4.296  0.6355  0.8686 -1.9896
   10MOL   H241 2419   0.885   5.286   4.319  1.4587 -1.0875 -0.2337
   10MOL   H242 2420   0.708   5.650   4.234  0.3437  0.5489 -0.6513
   11MOL     C1 2421   4.744   5.054   7.614 -0.3060 -0.4777  0.9736
   11MOL     C2 2422   4.631   4.987   7.697 -0.7590 -0.9186  1.0773
   11MOL     C3 2423   4.542   5.098   0.052 -0.4004 -0.0067 -0.7141
   11MOL     C4 2424   4.605   5.166   0.172 -0.3981 -0.1824 -0.3734
   11MOL     H5 2425   4.806   5.128   7.664 -0.4855  1.8767 -2.0823
   11MOL     H6 2426   4.817   4.978   7.587  0.2041  0.7654 -1.3292
   11MOL     H7 2427   4.566   4.923   7.638  0.5804 -1.5717  0.2859
   11MOL     H8 2428   4.441   5.069   0.081  0.1873 -0.8341  0.5419
   11MOL     H9 2429   4.514   5.175   7.686 -1.2489 -1.1610 -1.6223
   11MOL    H10 2430   4.594   5.108   0.264  3.1659 -1.2068 -0.4936
   11MOL    H11 2431   4.710   5.192   0.156 -0.1776 -1.5576 -1.1879
   11MOL    H12 2432   4.569   5.268   0.183 -0.5932 -0.2566 -0.3172
   11MOL    H13 2433   4.703   5.099   7.523 -3.9133  2.2005  3.7534
   11MOL    C14 2434   4.696   4.882   0.093 -0.3274  0.2942  0.4437
   11MOL    C15 2435   4.598   4.779   0.161  0.0100 -0.8555 -0.7017
   11MOL    C16 2436   4.670   4.696   0.266 -0.2017  0.1564 -0.3459
   11MOL    C17 2437   4.720   4.779   0.384  0.0080 -0.1781 -0.2085
   11MOL    H18 2438   4.761   4.928   0.168 -0.0787 -0.4154  0.6723
   11MOL    H19 2439   4.761   4.817   0.034 -0.6009  0.6273 -0.2164
   11MOL    H20 2440   4.516   4.833   0.210 -0.3976 -0.7129 -1.5296
   11MOL    H21 2441   4.740   4.620   0.229 -0.3976 -0.4414  0.4964
   11MOL    H22 2442   4.599   4.630   0.315  1.5734  1.0823  3.6752
   11MOL    H23 2443   4.724   4.724   0.478 -0.5645  1.3169  0.7066
   11MOL    H24 2444   4.817   4.821   0.357 -0.2517  2.1946  2.3978
   11MOL    H25 2445   4.663   4.871   0.395 -0.9635 -0.8642  0.5358
   11MOL    C26 2446   4.547   4.674   0.056 -0.2216 -0.3744  0.6977
   11MOL    C27 2447   4.411   4.619   0.105 -0.1934 -0.2907  0.3740
   11MOL    C28 2448   4.404   4.471   0.144  0.8302  0.0241  0.7453
   11MOL    C29 2449   4.275   4.431   0.230 -0.4069  0.2794 -0.1496
   11MOL    H30 2450   4.617   4.593   0.036  0.2959  0.6259 -1.7390
   11MOL    H31 2451   4.543   4.715   7.661  0.9475  0.8672  1.1288
   11MOL    H32 2452   4.387   4.672   0.197 -0.5462  1.0934 -0.4909
   11MOL    H33 2453   4.491   4.443   0.204  2.9562  0.0312 -2.2063
   11MOL    H34 2454   4.412   4.414   0.051 -1.6015  1.2318 -0.2361
   11MOL    H35 2455   4.270   4.481   0.327 -0.4183  1.0623 -0.5495
   11MOL    H36 2456   4.182   4.457   0.179 -0.9186 -0.1526  0.5545
   11MOL    H37 2457   4.269   4.329   0.266  0.8417  0.7826  1.5422
   11MOL    C38 2458   4.306   4.634   7.691  0.7286 -0.4118 -0.9674
   11MOL    C39 2459   4.273   4.778   7.640  0.6449 -0.0530 -0.2774
   11MOL    C40 2460   4.228   4.868   0.062 -0.1841  0.3392 -0.0723
   11MOL    C41 2461   4.087   4.829   0.111 -0.1313 -0.2913  0.0959
   11MOL    H42 2462   4.212   4.582   0.006 -0.6944  2.5758  0.4186
   11MOL    H43 2463   4.342   4.572   7.609 -2.7855 -1.5463 -1.7479
   11MOL    H44 2464   4.368   4.827   7.619  0.7050  0.6394  1.4802
   11MOL    H45 2465   4.232   4.971   0.025 -0.8783  0.5177  0.3299
   11MOL    H46 2466   4.299   4.862   0.144 -3.7073 -1.1658  2.9763
   11MOL    H47 2467   4.067   4.909   0.182  2.9354 -0.6394  1.4591
   11MOL    H48 2468   4.011   4.825   0.033 -1.0651 -1.1278  1.0555
   11MOL    H49 2469   4.072   4.733   0.159 -1.8910 -0.3683 -0.6057
   11MOL    C50 2470   4.165   4.787   7.527  0.1506 -0.2413 -0.2028
   11MOL    C51 2471   4.214   4.739   7.383  0.1170 -0.6269  0.0244
   11MOL    C52 2472   4.327   4.830   7.326  0.4336  0.5926 -0.0991
   11MOL    C53 2473   4.366   4.788   7.179  0.6003 -0.4511 -0.0115
   11MOL    H54 2474   4.134   4.892   7.521 -1.8692 -0.8524 -0.8098
   11MOL    H55 2475   4.082   4.725   7.559 -0.3354  0.5046 -0.0031
   11MOL    H56 2476   4.254   4.639   7.399  3.1352  0.7082  1.0754
   11MOL    H57 2477   4.411   4.814   7.393  0.0195 -1.0844  0.0352
   11MOL    H58 2478   4.298   4.935   7.320 -1.9063 -0.1802 -4.1453
   11MOL    H59 2479   4.284   4.799   7.108  0.7040 -1.1793 -0.2498
   11MOL    H60 2480   4.461   4.832   7.150  0.6577  1.2201  2.5711
   11MOL    H61 2481   4.383   4.683   7.158 -1.6458 -0.6787 -0.8273
   11MOL    C62 2482   4.093   4.727   7.287  0.3579 -0.0449 -0.1189
   11MOL    C63 2483   3.978   4.625   7.318  0.6706  0.4236  0.5886
   11MOL    C64 2484   4.016   4.482   7.354 -0.3170  0.4492 -0.0109
   11MOL    C65 2485   3.894   4.395   7.368  0.2974 -0.5570  0.2754
   11MOL    H66 2486   4.131   4.689   7.193  3.2348  0.0102  0.9655
   11MOL    H67 2487   4.048   4.824   7.264  0.9448  0.6335  1.4859
   11MOL    H68 2488   3.923   4.658   7.406 -0.0207 -1.8404  1.0232
   11MOL    H69 2489   4.079   4.478   7.443 -0.9811 -0.1793  0.4331
   11MOL    H70 2490   4.073   4.438   7.272 -1.2595 -1.7677  0.5005
   11MOL    H71 2491   3.814   4.441   7.427  1.8101 -0.7793  2.5779
   11MOL    H72 2492   3.852   4.354   7.276 -1.5279 -0.4056  1.0316
   11MOL    H73 2493   3.924   4.305   7.421 -1.4219 -1.4828 -0.2792
   11MOL    C74 2494   3.867   4.633   7.207  0.1635  0.5712  0.3404
   11MOL    C75 2495   3.905   4.606   7.061  0.0280  0.1444  0.3081
   11MOL    C76 2496   3.953   4.741   6.991  0.9541  0.4310  0.5180
   11MOL    C77 2497   4.051   4.710   6.878 -0.2761 -0.3122 -0.2163
   11MOL    H78 2498   3.835   4.737   7.214  1.9633  1.2339 -0.7153
   11MOL    H79 2499   3.783   4.570   7.233 -0.8972  1.3584 -1.1156
   11MOL    H80 2500   3.990   4.539   7.059 -0.6069 -0.7237  1.4729
   11MOL    H81 2501   3.998   4.819   7.052  0.3712  1.5489 -0.4477
   11MOL    H82 2502   3.861   4.792   6.960 -0.4208 -0.0921  3.5306
   11MOL    H83 2503   4.023   4.638   6.801 -0.0623  0.3264 -0.8990
   11MOL    H84 2504   4.068   4.799   6.817  1.6850 -0.6720 -0.2390
   11MOL    H85 2505   4.149   4.679   6.915 -0.1706  1.3445  0.9355
   11MOL    C86 2506   3.777   4.557   6.983 -0.5409  0.0388 -0.3021
   11MOL    C87 2507   3.727   4.412   7.014 -0.3155 -0.1191 -0.2293
   11MOL    C88 2508   3.844   4.317   6.975  0.2541  0.7291  0.4788
   11MOL    C89 2509   3.899   4.324   6.836  0.1226 -0.7287 -0.5602
   11MOL    H90 2510   3.791   4.570   6.876  0.1011 -0.3441 -0.2613
   11MOL    H91 2511   3.692   4.622   7.005  0.6869  1.5309  0.0945
   11MOL    H92 2512   3.699   4.413   7.119  3.5556  1.3693  0.8630
   11MOL    H93 2513   3.811   4.214   6.982 -2.9034  1.6700  0.0625
   11MOL    H94 2514   3.921   4.333   7.050 -0.4448 -0.1646  1.3836
   11MOL    H95 2515   3.933   4.424   6.809  2.6034 -1.4828 -0.3568
   11MOL    H96 2516   3.977   4.254   6.807 -0.0212 -0.8554 -0.6383
   11MOL    H97 2517   3.818   4.301   6.768 -1.7051 -0.6898  1.5609
   11MOL    C98 2518   3.601   4.371   6.932 -0.0617  0.0434  0.0975
   11MOL    C99 2519   3.538   4.235   6.989  0.0847 -0.3427  0.2611
   11MOL   C100 2520   3.513   4.143   6.869 -0.0291 -0.1056  0.3853
   11MOL   C101 2521   3.468   4.002   6.904  0.0312  0.1848  0.2041
   11MOL   H102 2522   3.616   4.370   6.825 -1.5583 -2.3121 -0.1268
   11MOL   H103 2523   3.526   4.449   6.946  0.1153  0.2205  0.0736
   11MOL   H104 2524   3.599   4.187   7.065 -0.6528  0.2942  1.2605
   11MOL   H105 2525   3.586   4.149   6.789 -0.1738  3.3252  0.4410
   11MOL   H106 2526   3.434   4.183   6.805 -0.8445 -1.3807  0.5769
   11MOL   H107 2527   3.468   3.933   6.819  0.2019 -1.7216  1.7280
   11MOL   H108 2528   3.519   3.958   6.989 -1.6784  1.4077  1.8822
   11MOL   H109 2529   3.365   3.991   6.936 -0.4143  1.5792 -0.6847
   11MOL   C110 2530   3.400   4.270   7.051 -0.7458 -0.6220  0.0413
   11MOL   C111 2531   3.409   4.355   7.178 -0.6148  0.3847 -0.4138
   11MOL   C112 2532   3.463   4.269   7.301 -0.1910  0.5696 -0.3783
   11MOL   C113 2533   3.477   4.346   7.432  0.2958 -0.3925 -0.2160
   11MOL   H114 2534   3.350   4.175   7.071 -1.9326 -0.2792 -1.2490
   11MOL   H115 2535   3.336   4.319   6.979  0.6265  0.0578 -0.7447
   11MOL   H116 2536   3.480   4.434   7.154 -0.6813 -0.0919 -2.2706
   11MOL   H117 2537   3.558   4.227   7.267 -0.5217 -0.9012  0.4657
   11MOL   H118 2538   3.409   4.174   7.310  2.1627 -0.7783 -0.2011
   11MOL   H119 2539   3.510   4.449   7.422  1.0917 -0.5756  0.4490
   11MOL   H120 2540   3.389   4.346   7.497 -0.0907  1.0254 -0.7313
   11MOL   H121 2541   3.562   4.304   7.486  0.6284  0.1663 -0.3097
   11MOL   C122 2542   3.279   4.421   7.210  0.1090  0.0422 -0.7646
   11MOL   C123 2543   3.264   4.570   7.158  0.0820  0.0308 -0.5582
   11MOL   C124 2544   3.329   4.674   7.261 -0.3113  0.7103  0.2564
   11MOL   C125 2545   3.265   4.680   7.396 -0.6807  0.2001 -0.5840
   11MOL   H126 2546   3.256   4.423   7.316  3.0960 -3.7035  0.0588
   11MOL   H127 2547   3.199   4.358   7.170 -0.4171  1.2014 -1.5696
   11MOL   H128 2548   3.319   4.587   7.066 -0.3275  1.8580 -0.4908
   11MOL   H129 2549   3.313   4.774   7.222 -1.4545  0.6698  0.6013
   11MOL   H130 2550   3.434   4.646   7.271 -0.6240  0.3003  2.8135
   11MOL   H131 2551   3.327   4.753   7.449  0.4372 -0.1088 -1.4334
   11MOL   H132 2552   3.167   4.727   7.402 -0.6458  0.4222 -1.6608
   11MOL   H133 2553   3.253   4.589   7.454  1.7879  1.6359  2.3124
   11MOL   C134 2554   3.114   4.606   7.139  0.4308  0.2123 -0.1676
   11MOL   C135 2555   3.049   4.548   7.014 -0.4967  0.5539  0.4969
   11MOL   C136 2556   3.091   4.631   6.890 -0.2359 -0.4175  0.8197
   11MOL   C137 2557   3.065   4.783   6.891 -0.0463 -0.4403 -0.0801
   11MOL   H138 2558   3.098   4.714   7.137 -0.4968  0.0596 -1.3185
   11MOL   H139 2559   3.068   4.575   7.233  0.8514 -0.6299 -0.2320
   11MOL   H140 2560   3.087   4.446   6.999  0.5824  0.9436  0.5369
   11MOL   H141 2561   3.062   4.584   6.796  1.7822 -3.4133  1.6089
   11MOL   H142 2562   3.196   4.610   6.872 -0.4117 -0.0305 -0.7657
   11MOL   H143 2563   3.084   4.815   6.788  1.2551  1.3621  0.7064
   11MOL   H144 2564   2.962   4.810   6.916  0.7262  0.8113  1.8557
   11MOL   H145 2565   3.147   4.843   6.930  0.9339 -1.4383 -0.5753
   11MOL   C146 2566   2.893   4.562   7.025  0.2368  0.2436  0.2996
   11MOL   C147 2567   2.809   4.479   7.129 -0.2731 -0.4485 -0.6661
   11MOL   C148 2568   2.793   4.326   7.083  0.2883  0.8071  0.0522
   11MOL   C149 2569   2.918   4.239   7.080 -1.2678 -0.1924 -0.5377
   11MOL   H150 2570   2.845   4.552   6.927 -0.7543 -0.7053  0.8645
   11MOL   H151 2571   2.876   4.667   7.048  0.4889  0.5023 -0.6540
   11MOL   H152 2572   2.871   4.469   7.219  1.5475  0.6895 -1.7737
   11MOL   H153 2573   2.740   4.317   6.988  1.7757 -2.8851 -0.4916
   11MOL   H154 2574   2.721   4.288   7.157 -2.2483  1.0106 -2.2367
   11MOL   H155 2575   2.903   4.132   7.065  1.4151 -0.5339 -1.0560
   11MOL   H156 2576   2.969   4.272   6.989 -1.0767  0.3330 -0.2386
   11MOL   H157 2577   2.973   4.245   7.174 -0.5443  0.7173 -1.0116
   11MOL   C158 2578   2.670   4.547   7.155  0.8163 -0.4264 -0.1103
   11MOL   C159 2579   2.569   4.475   7.250 -0.1616  0.4290  0.3188
   11MOL   C160 2580   2.448   4.575   7.265 -0.1215 -0.6438  0.3254
   11MOL   C161 2581   2.476   4.693   7.358  0.0718  0.0579  0.0497
   11MOL   H162 2582   2.617   4.560   7.060 -1.8904  0.4526  1.4602
   11MOL   H163 2583   2.690   4.650   7.183 -1.6332 -0.0297  0.3154
   11MOL   H164 2584   2.529   4.387   7.199  1.1857 -0.9820  1.6474
   11MOL   H165 2585   2.357   4.527   7.301  1.5720 -2.3166  2.5226
   11MOL   H166 2586   2.415   4.617   7.170 -1.7889  0.1268  1.2406
   11MOL   H167 2587   2.534   4.775   7.314 -1.1526  0.5740 -0.6287
   11MOL   H168 2588   2.382   4.739   7.387 -0.9786 -2.4649  0.7053
   11MOL   H169 2589   2.517   4.653   7.451 -1.0076 -1.2930 -0.0426
   11MOL   C170 2590   2.626   4.427   7.387  0.3114  0.3622 -0.3029
   11MOL   C171 2591   2.530   4.363   7.487  0.0968 -0.2878 -0.0097
   11MOL   C172 2592   2.606   4.337   7.621  0.0100  0.4310  0.0328
   11MOL   C173 2593   2.625   4.459   0.009 -0.3144 -0.7250 -0.0802
   11MOL   H174 2594   2.674   4.511   7.436 -0.1655 -0.3666  1.4325
   11MOL   H175 2595   2.710   4.359   7.370 -1.1124 -1.6487  0.5232
   11MOL   H176 2596   2.458   4.442   7.504  0.0212 -0.6111  1.1993
   11MOL   H177 2597   2.706   4.296   7.604  0.0045  0.5257 -0.2322
   11MOL   H178 2598   2.563   4.266   7.692  0.1153 -0.4702 -0.7902
   11MOL   H179 2599   2.645   4.558   7.674 -0.4015 -0.4413  0.5699
   11MOL   H180 2600   2.530   4.471   0.062 -0.7893 -0.6525 -0.9285
   11MOL   H181 2601   2.697   4.438   0.087  0.9730  0.9403 -0.8052
   11MOL   C182 2602   2.473   4.233   7.436  0.4460  0.7828 -0.1185
   11MOL   C183 2603   2.386   4.147   7.527 -0.1690 -0.7647  0.7621
   11MOL   C184 2604   2.400   4.000   7.482 -0.2791  0.2404 -0.0936
   11MOL   C185 2605   2.533   3.929   7.517 -0.2282  0.2696 -0.7132
   11MOL   H186 2606   2.548   4.163   7.399 -1.3345 -0.6185 -1.1763
   11MOL   H187 2607   2.415   4.259   7.347  0.7235 -1.6862 -1.0827
   11MOL   H188 2608   2.419   4.156   7.631  1.8419 -0.4659  0.1337
   11MOL   H189 2609   2.377   3.984   7.377  1.2647  2.5828 -0.8174
   11MOL   H190 2610   2.328   3.941   7.538 -0.2183  0.5490  0.3102
   11MOL   H191 2611   2.554   3.922   7.624 -0.4231 -0.8301 -0.7365
   11MOL   H192 2612   2.542   3.824   7.487 -0.5256  0.9265 -3.1912
   11MOL   H193 2613   2.613   3.975   7.459 -0.0053 -0.6684 -1.1622
   11MOL   C194 2614   2.241   4.194   7.525  0.3228  0.3705  0.0189
   11MOL   C195 2615   2.203   4.344   7.555 -0.2870  0.0753  0.1811
   11MOL   C196 2616   2.237   4.396   7.695 -0.4042 -0.3131 -0.1550
   11MOL   C197 2617   2.237   4.547   7.705  0.7136  0.3186 -0.3882
   11MOL   H198 2618   2.180   4.125   7.583  1.0705  0.9689  1.5298
   11MOL   H199 2619   2.194   4.177   7.427 -0.0715  0.7474  0.1398
   11MOL   H200 2620   2.263   4.396   7.480 -1.0353 -1.6717 -1.6600
   11MOL   H201 2621   2.334   4.367   0.032  0.1629 -0.9407 -1.8324
   11MOL   H202 2622   2.171   4.350   0.062  0.3798 -0.6453  0.3598
   11MOL   H203 2623   2.193   4.569   0.097 -1.6576 -0.4579 -1.2346
   11MOL   H204 2624   2.335   4.595   7.704  1.8443 -1.9647 -0.5326
   11MOL   H205 2625   2.174   4.608   7.640  1.8422  2.1298  0.1805
   11MOL   C206 2626   2.055   4.377   7.531 -0.4205 -0.1144  0.0871
   11MOL   C207 2627   2.008   4.393   7.387  0.0987 -0.5072  0.7076
   11MOL   C208 2628   2.049   4.532   7.337  0.2931 -0.2917  0.3986
   11MOL   C209 2629   2.056   4.535   7.181 -0.3473 -0.3082  0.0904
   11MOL   H210 2630   2.020   4.464   7.585 -0.6430  0.4466 -0.9381
   11MOL   H211 2631   1.987   4.299   7.566 -0.2589  0.0280  0.7231
   11MOL   H212 2632   2.062   4.328   7.318 -2.0639  0.3023 -1.8476
   11MOL   H213 2633   2.151   4.548   7.372  1.1877 -1.1277 -1.7193
   11MOL   H214 2634   1.986   4.608   7.383  2.6937  4.0703 -3.1659
   11MOL   H215 2635   2.133   4.466   7.146  0.5144 -0.2361  1.8039
   11MOL   H216 2636   1.957   4.509   7.144  0.6070 -1.8470 -1.4532
   11MOL   H217 2637   2.084   4.634   7.145  0.5211 -0.2697  0.8600
   11MOL   C218 2638   1.855   4.363   7.371 -0.0283 -0.2274 -0.1725
   11MOL   C219 2639   1.834   4.217   7.360  0.0403  0.3076 -0.5208
   11MOL   C220 2640   1.859   4.169   7.212  0.2270  0.4784 -0.9881
   11MOL   C221 2641   1.930   4.036   7.195  0.6474  0.1980 -0.3933
   11MOL   H222 2642   1.831   4.407   7.274  1.2073  0.5904 -0.1238
   11MOL   H223 2643   1.786   4.412   7.440 -0.3333 -0.5279 -0.2631
   11MOL   H224 2644   1.902   4.173   7.434 -1.4235  0.1703  0.7624
   11MOL   H225 2645   1.930   4.237   7.166  0.3265 -0.1666 -1.7989
   11MOL   H226 2646   1.765   4.160   7.156  0.1699 -0.6113 -0.7342
   11MOL   H227 2647   1.877   3.942   7.213 -0.1437  1.1043  2.1495
   11MOL   H228 2648   1.950   4.013   7.090 -1.2205 -1.2459 -0.4659
   11MOL   H229 2649   2.028   4.032   7.242  0.9220 -1.3289 -1.0557
   11MOL   C230 2650   1.691   4.179   7.410 -0.4114  0.3125  0.0591
   11MOL   C231 2651   1.669   4.027   7.419  0.0101 -0.1764 -0.1339
   11MOL   C232 2652   1.535   3.996   7.496  0.1881  0.2115 -0.7828
   11MOL   C233 2653   1.407   4.015   7.416  0.1864  0.4558 -0.1022
   11MOL   H234 2654   1.624   4.229   7.340 -0.3715  0.0071 -0.2034
   11MOL   H235 2655   1.678   4.228   7.506  0.0504  0.0379  0.2666
   11MOL   H236 2656   1.657   3.977   7.323  1.0897 -0.3734 -0.1686
   11MOL   H237 2657   1.530   4.068   7.578 -0.2442 -2.0168  1.1885
   11MOL   H238 2658   1.531   3.897   7.541 -0.6366  0.2323 -0.8025
   11MOL   H239 2659   1.398   4.116   7.376  3.7162  1.5152  1.5802
   11MOL   H240 2660   1.400   3.944   7.333 -2.7236 -0.8525  1.1891
   11MOL   H241 2661   1.327   4.002   7.489  1.2717  0.5363  1.1091
   11MOL   H242 2662   1.758   3.993   7.472 -0.2564 -0.6495  0.0116
   12MOL     C1 2663   2.944   3.530   0.507  0.2750 -0.4012  0.4786
   12MOL     C2 2664   3.055   3.430   0.497  0.2227 -0.5154 -0.9214
   12MOL     C3 2665   3.153   3.464   0.380  0.3544  0.0521 -0.5174
   12MOL     C4 2666   3.246   3.580   0.405  0.0341 -0.3941 -0.1196
   12MOL     H5 2667   2.849   3.497   0.548  0.4907 -0.2233  1.1189
   12MOL     H6 2668   2.970   3.624   0.556 -1.6391  0.4911 -0.1759
   12MOL     H7 2669   3.117   3.443   0.586  0.5706  2.2443 -1.5192
   12MOL     H8 2670   3.099   3.481   0.287 -2.2977  1.6451  1.2483
   12MOL     H9 2671   3.208   3.373   0.358 -1.8142 -1.3792 -0.1603
   12MOL    H10 2672   3.324   3.592   0.329  0.0854 -3.8573 -0.6897
   12MOL    H11 2673   3.192   3.674   0.408  2.8750  1.2395  1.9491
   12MOL    H12 2674   3.296   3.565   0.501 -0.5160 -1.9718 -0.0560
   12MOL    H13 2675   2.928   3.556   0.402 -1.8517  3.8337  1.7598
   12MOL    C14 2676   3.005   3.277   0.483 -0.0934 -0.4731  0.5689
   12MOL    C15 2677   3.095   3.176   0.548 -0.4421 -0.3473 -0.8349
   12MOL    C16 2678   3.074   3.037   0.472  0.2934 -0.3332  0.2788
   12MOL    C17 2679   3.161   3.021   0.345 -0.3003 -0.0560 -0.1383
   12MOL    H18 2680   2.979   3.247   0.381 -3.1660 -1.2052  1.5182
   12MOL    H19 2681   2.910   3.278   0.537 -0.3469  0.0970  0.1212
   12MOL    H20 2682   3.199   3.211   0.552 -0.4859 -0.3932  2.5392
   12MOL    H21 2683   2.969   3.030   0.445  0.1579 -1.2445  1.0129
   12MOL    H22 2684   3.105   2.963   0.546  2.8075  1.0302  0.6636
   12MOL    H23 2685   3.269   3.015   0.359 -0.2435 -0.5280 -0.7260
   12MOL    H24 2686   3.130   2.925   0.304  0.1258 -1.6236  3.0196
   12MOL    H25 2687   3.143   3.105   0.278  0.2950  1.6993  1.8594
   12MOL    C26 2688   3.063   3.155   0.700 -0.1690 -0.2919 -0.5723
   12MOL    C27 2689   3.174   3.108   0.786 -0.3787  0.1591 -0.7384
   12MOL    C28 2690   3.143   3.060   0.928 -0.7221 -1.0589 -0.4196
   12MOL    C29 2691   3.052   2.938   0.933  0.1698 -0.6748  0.0807
   12MOL    H30 2692   2.978   3.087   0.710 -0.2277 -0.3609 -1.4336
   12MOL    H31 2693   3.029   3.255   0.727  2.8018  0.4190  0.7403
   12MOL    H32 2694   3.219   3.026   0.729 -0.5283 -0.1452 -0.4224
   12MOL    H33 2695   3.102   3.137   0.994 -0.1612  2.0699 -3.5494
   12MOL    H34 2696   3.240   3.032   0.968  0.5829  0.1106 -2.6819
   12MOL    H35 2697   3.061   2.866   0.851  0.6271  0.3417 -0.7797
   12MOL    H36 2698   3.060   2.882   1.025  0.9881  1.4908  1.3620
   12MOL    H37 2699   2.946   2.963   0.933  0.6909  1.6976  1.2439
   12MOL    C38 2700   3.284   3.215   0.799 -0.0501  0.5677  0.0049
   12MOL    C39 2701   3.428   3.172   0.786  0.1471  0.2584 -0.4269
   12MOL    C40 2702   3.524   3.272   0.859  0.5346  0.5371 -0.2639
   12MOL    C41 2703   3.500   3.426   0.835 -0.6104 -0.2493 -0.2895
   12MOL    H42 2704   3.278   3.255   0.900  0.0921  1.3751 -0.2981
   12MOL    H43 2705   3.250   3.303   0.745 -1.2486  0.1140 -0.0006
   12MOL    H44 2706   3.431   3.075   0.834  1.2180  1.0760  1.2033
   12MOL    H45 2707   3.628   3.251   0.833  1.1281  3.4447 -0.5014
   12MOL    H46 2708   3.518   3.252   0.966 -1.5096 -2.3489 -0.8766
   12MOL    H47 2709   3.587   3.475   0.879 -1.4758 -0.3470  1.5596
   12MOL    H48 2710   3.490   3.451   0.729  4.3522  0.9058 -0.6093
   12MOL    H49 2711   3.415   3.470   0.887 -1.2727  0.1846 -1.7156
   12MOL    C50 2712   3.464   3.138   0.641 -0.1682  0.5491  0.6263
   12MOL    C51 2713   3.588   3.054   0.609  0.1202  0.2657 -0.7314
   12MOL    C52 2714   3.685   3.124   0.515 -0.3328 -0.1378 -0.4319
   12MOL    C53 2715   3.638   3.161   0.373  0.2340 -0.1935 -0.4188
   12MOL    H54 2716   3.476   3.227   0.579 -0.4044  0.0732 -0.1158
   12MOL    H55 2717   3.391   3.086   0.579  0.6910  2.3533 -2.0000
   12MOL    H56 2718   3.646   3.039   0.700  0.2699 -1.3011 -1.0765
   12MOL    H57 2719   3.774   3.060   0.513  1.2121  1.8794  1.6369
   12MOL    H58 2720   3.707   3.214   0.572  0.4348  0.8384 -2.2491
   12MOL    H59 2721   3.706   3.224   0.315  1.5552  0.1772  1.4707
   12MOL    H60 2722   3.619   3.072   0.313 -3.3054  0.5085 -0.4000
   12MOL    H61 2723   3.545   3.216   0.366  1.0394  1.2013 -0.3687
   12MOL    C62 2724   3.553   2.908   0.572 -0.8909 -0.2244 -0.2292
   12MOL    C63 2725   3.465   2.822   0.665 -0.3056  0.0040 -1.0115
   12MOL    C64 2726   3.549   2.789   0.796 -0.6980  0.1147  0.0169
   12MOL    C65 2727   3.467   2.754   0.921 -0.3244 -0.6443  0.4175
   12MOL    H66 2728   3.644   2.848   0.566 -1.5245 -1.7215  3.5749
   12MOL    H67 2729   3.511   2.909   0.472  1.8489  1.5057 -1.4166
   12MOL    H68 2730   3.370   2.870   0.688  0.8147  1.8927 -0.2372
   12MOL    H69 2731   3.620   2.868   0.819  1.6817 -1.8923 -0.2479
   12MOL    H70 2732   3.607   2.698   0.786  0.6517  1.0240 -0.5120
   12MOL    H71 2733   3.514   2.764   1.019 -0.5589  1.4531  0.3515
   12MOL    H72 2734   3.377   2.814   0.935 -0.0811  0.2631 -1.5713
   12MOL    H73 2735   3.414   2.660   0.905  1.6757 -1.6876 -0.3100
   12MOL    C74 2736   3.417   2.688   0.605  0.6171 -0.2628  0.1747
   12MOL    C75 2737   3.309   2.697   0.494  0.3493  0.0925  0.2798
   12MOL    C76 2738   3.169   2.690   0.560 -0.4716 -0.4931  0.1400
   12MOL    C77 2739   3.128   2.542   0.600  0.2524 -0.3121 -0.2727
   12MOL    H78 2740   3.380   2.623   0.685 -0.3071  0.8164  0.6237
   12MOL    H79 2741   3.507   2.631   0.580 -0.3494 -0.4112 -3.3058
   12MOL    H80 2742   3.319   2.802   0.465  0.9463 -0.7338 -2.6703
   12MOL    H81 2743   3.087   2.711   0.491 -0.4066 -3.4887 -0.9168
   12MOL    H82 2744   3.170   2.769   0.635 -2.9185  0.5076 -0.8335
   12MOL    H83 2745   3.130   2.473   0.516  1.4135  0.9313 -1.2841
   12MOL    H84 2746   3.180   2.503   0.688 -0.6046  1.2496  0.9702
   12MOL    H85 2747   3.027   2.539   0.642  0.8506  0.9936  1.3672
   12MOL    C86 2748   3.334   2.604   0.370 -0.2371  0.1764  0.6583
   12MOL    C87 2749   3.452   2.647   0.269  0.5703 -0.1577 -1.2336
   12MOL    C88 2750   3.404   2.745   0.169 -0.8684  0.1983  0.0195
   12MOL    C89 2751   3.310   2.694   0.056  0.3298  0.5896  0.2839
   12MOL    H90 2752   3.247   2.588   0.306  0.8499 -2.0909 -0.3102
   12MOL    H91 2753   3.352   2.504   0.410 -0.6265  0.4600  1.5605
   12MOL    H92 2754   3.533   2.683   0.333  1.4709  0.3494 -2.6264
   12MOL    H93 2755   3.494   2.787   0.124 -1.4300  1.3217 -0.0824
   12MOL    H94 2756   3.357   2.828   0.222  0.4966  1.7342 -1.1245
   12MOL    H95 2757   3.258   2.780   0.014  1.6217  1.0041 -0.4708
   12MOL    H96 2758   3.355   2.627   7.689 -0.2827 -0.1281  0.5522
   12MOL    H97 2759   3.225   2.635   0.092  0.2938 -0.4482 -1.4637
   12MOL    C98 2760   3.518   2.529   0.196  0.1357 -0.5325  0.3831
   12MOL    C99 2761   3.647   2.473   0.264  0.3434 -1.0046 -0.1298
   12MOL   C100 2762   3.758   2.582   0.255  0.2377  0.0577 -0.8361
   12MOL   C101 2763   3.868   2.552   0.360  0.3255 -0.6719  0.7180
   12MOL   H102 2764   3.553   2.565   0.099  0.9107  0.4780  1.0266
   12MOL   H103 2765   3.448   2.448   0.177  1.8977 -1.2923 -3.4036
   12MOL   H104 2766   3.623   2.461   0.370 -1.7368  1.8319 -0.2112
   12MOL   H105 2767   3.724   2.683   0.277  0.4678  0.0974 -0.6547
   12MOL   H106 2768   3.795   2.595   0.154  0.2853  0.1449 -0.8079
   12MOL   H107 2769   3.945   2.629   0.357 -0.5248  0.1711  0.2260
   12MOL   H108 2770   3.822   2.552   0.459  1.6443 -1.0285  1.3497
   12MOL   H109 2771   3.911   2.452   0.353  1.2388 -0.1653 -1.2859
   12MOL   C110 2772   3.694   2.335   0.208 -0.1444  0.5421 -0.1653
   12MOL   C111 2773   3.620   2.207   0.245 -0.0427  0.3641 -0.8591
   12MOL   C112 2774   3.660   2.160   0.393  0.2598 -0.1243  0.0237
   12MOL   C113 2775   3.801   2.097   0.412  0.5100  0.2124 -0.5199
   12MOL   H114 2776   3.798   2.323   0.237  0.4625 -0.8170 -2.7157
   12MOL   H115 2777   3.705   2.347   0.100  1.1297  0.4314 -0.0509
   12MOL   H116 2778   3.515   2.235   0.239 -0.8328 -1.7212  2.0231
   12MOL   H117 2779   3.586   2.087   0.424 -1.5981  0.9353 -1.8389
   12MOL   H118 2780   3.655   2.248   0.457 -1.2427  0.4762 -0.9059
   12MOL   H119 2781   3.810   1.998   0.368  0.4289 -1.4649  3.1200
   12MOL   H120 2782   3.878   2.164   0.372 -0.2855  1.5965  0.2226
   12MOL   H121 2783   3.822   2.076   0.517  0.5069 -0.5792 -0.6784
   12MOL   C122 2784   3.635   2.080   0.155 -0.1233  0.2748  1.1452
   12MOL   C123 2785   3.541   2.076   0.031  0.3814  0.4065  0.0864
   12MOL   C124 2786   3.390   2.063   0.074  0.0571 -0.1537  0.1872
   12MOL   C125 2787   3.287   2.094   7.675 -0.1356  1.4687 -0.1417
   12MOL   H126 2788   3.615   1.989   0.211 -0.7309 -0.2025  0.1578
   12MOL   H127 2789   3.741   2.073   0.132 -0.3157  0.4521  0.1996
   12MOL   H128 2790   3.540   2.167   7.678 -1.1698  0.7720  0.6651
   12MOL   H129 2791   3.379   2.123   0.164  0.3143  0.6616 -0.3161
   12MOL   H130 2792   3.385   1.960   0.108  0.6054  0.1494  1.2161
   12MOL   H131 2793   3.298   2.187   7.620 -0.9681 -0.4158 -3.6350
   12MOL   H132 2794   3.294   2.023   7.593  1.9183 -1.7256  2.6277
   12MOL   H133 2795   3.194   2.097   0.026  0.2469  1.4312  0.4903
   12MOL   C134 2796   3.590   1.957   7.649 -0.1580  0.7063 -0.7384
   12MOL   C135 2797   3.719   1.986   7.572 -0.6974 -0.2217 -0.1152
   12MOL   C136 2798   3.692   2.054   7.433 -0.0049 -1.0547  0.3395
   12MOL   C137 2799   3.777   2.178   7.397  0.1402 -0.1362  0.0277
   12MOL   H138 2800   3.510   1.928   7.580  1.1308 -0.7345 -1.6662
   12MOL   H139 2801   3.607   1.875   0.012  2.8509  2.0966  0.2693
   12MOL   H140 2802   3.783   2.057   7.625  1.1987 -1.1681 -1.0923
   12MOL   H141 2803   3.591   2.095   7.432 -0.0366 -1.1288  0.4327
   12MOL   H142 2804   3.696   1.991   7.344  1.0127  1.2672 -1.2989
   12MOL   H143 2805   3.785   2.183   7.288 -1.4310 -2.3320 -0.2203
   12MOL   H144 2806   3.726   2.269   7.428  0.6920  0.1331  0.1374
   12MOL   H145 2807   3.877   2.181   7.438 -0.6349 -1.7987  2.0923
   12MOL   C146 2808   3.812   1.866   7.545 -0.3408  0.4720  0.3725
   12MOL   C147 2809   3.901   1.801   7.657 -0.1068  0.2403  0.1384
   12MOL   C148 2810   4.048   1.847   7.660 -0.8582 -0.3806  0.2273
   12MOL   C149 2811   4.066   1.999   7.668 -0.7492  1.1209  0.1810
   12MOL   H150 2812   3.876   1.891   7.460 -0.6103 -1.5272 -0.4487
   12MOL   H151 2813   3.746   1.792   7.499 -0.2952  1.0465 -0.6409
   12MOL   H152 2814   3.860   1.827   0.048  1.2183 -0.8694  1.0189
   12MOL   H153 2815   4.108   1.805   7.579  1.1712  3.2962 -0.2737
   12MOL   H154 2816   4.099   1.806   0.041 -2.1242 -1.7464  0.3464
   12MOL   H155 2817   4.169   2.018   7.700 -0.0423  1.2197 -2.0464
   12MOL   H156 2818   4.048   2.052   7.574 -2.1676 -1.9110 -1.3445
   12MOL   H157 2819   4.001   2.055   0.029 -0.2578 -0.6499  2.1718
   12MOL   C158 2820   3.901   1.649   7.646  0.0175 -0.5509 -0.4383
   12MOL   C159 2821   3.762   1.573   7.670  0.0582 -0.7870  0.4280
   12MOL   C160 2822   3.730   1.573   0.113 -0.7405 -0.1021 -0.4220
   12MOL   C161 2823   3.579   1.550   0.133  0.6429  0.1174 -0.5459
   12MOL   H162 2824   3.976   1.604   0.005 -0.6391 -2.3378 -0.9058
   12MOL   H163 2825   3.946   1.631   7.548 -1.2673 -1.0115 -0.9494
   12MOL   H164 2826   3.690   1.638   7.620 -0.2580 -0.1704  1.6634
   12MOL   H165 2827   3.750   1.667   0.164 -0.1186 -0.3019 -0.2815
   12MOL   H166 2828   3.794   1.504   0.168 -0.3971  0.4892 -0.0745
   12MOL   H167 2829   3.541   1.588   0.228  0.3160 -1.0646 -0.1959
   12MOL   H168 2830   3.516   1.611   0.068  0.6145 -0.4096 -1.0166
   12MOL   H169 2831   3.563   1.442   0.134 -0.8391  0.3379  0.9909
   12MOL   C170 2832   3.754   1.437   7.601  0.0771 -0.3853  0.6291
   12MOL   C171 2833   3.656   1.431   7.482  0.5570  0.4551 -0.6111
   12MOL   C172 2834   3.629   1.284   7.436 -0.2529 -0.1454  0.2813
   12MOL   C173 2835   3.602   1.175   7.544  0.4955  0.5680  0.2925
   12MOL   H174 2836   3.729   1.360   7.674  2.4617 -0.7158  1.1441
   12MOL   H175 2837   3.855   1.411   7.571  0.5807  0.5713  1.4682
   12MOL   H176 2838   3.568   1.478   7.526  0.4975  1.1562 -1.4682
   12MOL   H177 2839   3.709   1.251   7.370 -0.1466 -1.6514  1.1240
   12MOL   H178 2840   3.533   1.294   7.385 -1.1792 -0.5885  1.9092
   12MOL   H179 2841   3.692   1.156   7.603  1.9225  1.5954 -1.4851
   12MOL   H180 2842   3.528   1.221   7.610  0.7739  0.7503  0.4786
   12MOL   H181 2843   3.579   1.075   7.510  1.3930  0.6966 -0.7042
   12MOL   C182 2844   3.702   1.520   7.361  0.5501 -0.1072  0.0584
   12MOL   C183 2845   3.600   1.584   7.264  0.6467  0.8436  0.3383
   12MOL   C184 2846   3.668   1.625   7.137 -0.9161 -0.3992 -0.7043
   12MOL   C185 2847   3.715   1.518   7.052  0.1459 -0.1561 -0.2632
   12MOL   H186 2848   3.776   1.464   7.304  2.8720  3.1366 -0.2462
   12MOL   H187 2849   3.760   1.600   7.408 -1.0533  1.6938 -0.9606
   12MOL   H188 2850   3.526   1.507   7.241  0.9472  0.5845  0.2330
   12MOL   H189 2851   3.748   1.698   7.153 -0.4247 -0.3638 -3.0809
   12MOL   H190 2852   3.594   1.680   7.078 -2.7064 -1.7824  0.2256
   12MOL   H191 2853   3.805   1.472   7.094  0.6881  2.5468  1.7044
   12MOL   H192 2854   3.649   1.432   7.046  1.3749 -1.1386  0.0808
   12MOL   H193 2855   3.744   1.564   6.958 -1.0853  1.7146  0.2346
   12MOL   C194 2856   3.521   1.695   7.335  0.2789 -0.1123 -0.2549
   12MOL   C195 2857   3.396   1.746   7.265 -0.7546 -0.3199  0.1676
   12MOL   C196 2858   3.348   1.871   7.327  0.2087 -0.3817  0.0479
   12MOL   C197 2859   3.251   1.955   7.241 -0.3179 -0.3029 -0.0957
   12MOL   H198 2860   3.581   1.782   7.359  1.2311 -1.0802  0.9020
   12MOL   H199 2861   3.479   1.644   7.422  2.0969 -0.1509  0.6063
   12MOL   H200 2862   3.427   1.776   7.165  1.2297  0.7536  1.0579
   12MOL   H201 2863   3.432   1.932   7.360  0.1847  1.0991 -2.5225
   12MOL   H202 2864   3.278   1.856   7.409  0.2057  0.4266  0.1908
   12MOL   H203 2865   3.242   2.055   7.282  0.1832 -0.3101  0.0274
   12MOL   H204 2866   3.279   1.965   7.136 -0.4475  0.7763 -0.0287
   12MOL   H205 2867   3.147   1.921   7.244 -0.3636 -0.3141 -1.2696
   12MOL   C206 2868   3.290   1.638   7.257  0.2151  0.1395 -0.4570
   12MOL   C207 2869   3.276   1.559   7.125  0.3785 -0.0631 -0.2737
   12MOL   C208 2870   3.204   1.652   7.028 -0.2738  0.5659 -0.0875
   12MOL   C209 2871   3.236   1.605   6.881  0.7679 -0.1753 -0.4512
   12MOL   H210 2872   3.188   1.673   7.276  0.1242  0.1297 -0.9092
   12MOL   H211 2873   3.312   1.568   7.337  0.8210  1.1114  0.2287
   12MOL   H212 2874   3.377   1.527   7.101  0.8174 -0.1967  1.6560
   12MOL   H213 2875   3.230   1.756   7.050  1.2010 -0.0085  0.8962
   12MOL   H214 2876   3.095   1.651   7.040 -0.5884  0.4138 -2.6716
   12MOL   H215 2877   3.183   1.675   6.816  0.7730  0.2670  0.0158
   12MOL   H216 2878   3.342   1.591   6.859  0.8551 -1.4387  0.6730
   12MOL   H217 2879   3.195   1.507   6.855 -1.7249  0.9003 -0.7565
   12MOL   C218 2880   3.186   1.439   7.149 -0.0298  0.7443  0.3055
   12MOL   C219 2881   3.243   1.324   7.235 -0.4638  0.3733 -0.8776
   12MOL   C220 2882   3.312   1.221   7.137  0.0239 -0.1124 -0.0471
   12MOL   C221 2883   3.227   1.148   7.038  0.4331  0.4576 -0.0040
   12MOL   H222 2884   3.173   1.396   7.050 -0.1338  0.4966  0.4266
   12MOL   H223 2885   3.087   1.472   7.182 -1.2252 -2.4271  0.0353
   12MOL   H224 2886   3.317   1.369   7.302 -1.2856  2.0597 -1.0905
   12MOL   H225 2887   3.359   1.141   7.195 -0.7420 -0.5817 -0.0625
   12MOL   H226 2888   3.392   1.270   7.081  0.6179 -1.9000 -0.7966
   12MOL   H227 2889   3.122   1.141   7.064  0.3535 -2.4007 -0.9117
   12MOL   H228 2890   3.226   1.198   6.941 -1.7290  4.1102  1.8181
   12MOL   H229 2891   3.278   1.054   7.015  1.3142  1.0786 -0.6310
   12MOL   C230 2892   3.137   1.252   7.322 -0.4204 -0.0905  0.0576
   12MOL   C231 2893   3.080   1.334   7.446 -0.2128 -1.1080  0.0636
   12MOL   C232 2894   3.023   1.244   7.551  0.6819  0.3146 -2.0227
   12MOL   C233 2895   3.130   1.201   7.656  0.3583 -0.1069  0.0575
   12MOL   H234 2896   3.179   1.158   7.357 -0.1567 -0.2097 -0.5886
   12MOL   H235 2897   3.063   1.217   7.251 -0.3988  3.1791 -1.6866
   12MOL   H236 2898   3.149   1.403   7.495  0.0240 -0.3932 -1.2504
   12MOL   H237 2899   2.987   1.156   7.499 -0.9359 -0.4012  0.2349
   12MOL   H238 2900   2.930   1.281   7.595  2.2112  2.0916 -0.1780
   12MOL   H239 2901   3.102   1.133   0.031 -0.8121  1.7097  1.2239
   12MOL   H240 2902   3.209   1.153   7.598  0.9785 -0.1670  0.9356
   12MOL   H241 2903   3.174   1.289   7.705  1.2235 -1.1330  1.1574
   12MOL   H242 2904   2.998   1.398   7.412  0.2070 -0.2115  0.7127
   13MOL     C1 2905   3.972   1.269   6.901 -0.0374 -0.4999  0.2282
   13MOL     C2 2906   3.961   1.150   7.005  0.4854  0.0398  0.5023
   13MOL     C3 2907   3.828   1.163   7.090 -0.1388 -0.1453  0.0933
   13MOL     C4 2908   3.697   1.128   7.011  0.8947 -0.2055 -0.2409
   13MOL     H5 2909   4.050   1.249   6.827 -1.6930 -0.8672 -1.4569
   13MOL     H6 2910   3.876   1.280   6.850  0.1001 -0.1718  0.0390
   13MOL     H7 2911   3.955   1.066   6.935  0.5769 -0.8348  1.5259
   13MOL     H8 2912   3.821   1.266   7.127 -0.0068  0.1495 -0.7059
   13MOL     H9 2913   3.850   1.102   7.178  1.9318 -0.9157 -0.9330
   13MOL    H10 2914   3.665   1.208   6.945  1.5599 -0.0974 -0.4375
   13MOL    H11 2915   3.703   1.036   6.952 -2.7798 -0.1593 -0.7996
   13MOL    H12 2916   3.620   1.107   7.085 -1.0474  0.7551 -1.9247
   13MOL    H13 2917   4.006   1.361   6.948  0.5902 -1.7549  2.3207
   13MOL    C14 2918   4.088   1.148   7.101 -0.4828  0.4125  0.1660
   13MOL    C15 2919   4.116   1.002   7.155  0.4183 -0.1622  0.0717
   13MOL    C16 2920   4.172   0.981   7.297  0.2217  0.3346 -0.1345
   13MOL    C17 2921   4.080   1.026   7.409 -0.3910 -0.7975  0.5044
   13MOL    H18 2922   4.083   1.212   7.189 -0.7161  0.1714  0.3313
   13MOL    H19 2923   4.172   1.183   7.041 -0.8859 -1.0638 -1.3249
   13MOL    H20 2924   4.026   0.941   7.163 -0.5805  0.9465 -2.2780
   13MOL    H21 2925   4.265   1.038   7.307  0.3225  0.0821  0.3909
   13MOL    H22 2926   4.214   0.882   7.313  1.2239  0.6792 -0.5777
   13MOL    H23 2927   4.049   1.128   7.386  3.2189 -0.1037 -1.5760
   13MOL    H24 2928   3.985   0.973   7.416 -0.4549 -1.3254 -3.3201
   13MOL    H25 2929   4.140   1.013   7.499 -0.6318  0.4797  0.8690
   13MOL    C26 2930   4.209   0.924   7.052 -0.0955 -1.1626 -0.2702
   13MOL    C27 2931   4.173   0.772   7.029 -0.4964  0.6952  0.3549
   13MOL    C28 2932   4.296   0.697   6.977  0.4542 -0.6719 -0.5843
   13MOL    C29 2933   4.350   0.749   6.836  0.1813  0.0732  0.0771
   13MOL    H30 2934   4.315   0.937   7.076 -0.1398 -0.5101 -0.4309
   13MOL    H31 2935   4.193   0.970   6.955 -0.1157 -2.0363 -0.6851
   13MOL    H32 2936   4.143   0.733   7.126 -0.5929  3.0462  1.3110
   13MOL    H33 2937   4.287   0.590   6.961  1.9434 -0.8439 -0.3309
   13MOL    H34 2938   4.380   0.711   7.044 -0.8302 -0.4203  0.9942
   13MOL    H35 2939   4.268   0.767   6.767 -0.8487  1.0396  1.4956
   13MOL    H36 2940   4.410   0.840   6.827 -0.2372  0.5105  1.5811
   13MOL    H37 2941   4.407   0.666   6.796  0.0286  0.4176 -0.8619
   13MOL    C38 2942   4.052   0.762   6.934 -0.1229 -0.3954  0.1676
   13MOL    C39 2943   4.004   0.615   6.892 -0.8741  0.1879 -0.1097
   13MOL    C40 2944   3.936   0.624   6.750  0.4314 -0.1549  0.5869
   13MOL    C41 2945   3.802   0.695   6.757  0.1463 -0.4859 -0.2038
   13MOL    H42 2946   4.067   0.814   6.839 -0.3032  0.4727  0.6095
   13MOL    H43 2947   3.968   0.809   6.983  0.4373  1.6534 -0.7549
   13MOL    H44 2948   4.084   0.544   6.872 -0.3274  1.5204 -2.9304
   13MOL    H45 2949   3.912   0.523   6.716 -0.8666  0.6774 -1.0750
   13MOL    H46 2950   4.001   0.674   6.678  0.9242 -0.0692  1.0891
   13MOL    H47 2951   3.722   0.645   6.811 -0.5326  0.5264 -0.2584
   13MOL    H48 2952   3.818   0.795   6.795  1.0542 -1.1330  1.1442
   13MOL    H49 2953   3.771   0.717   6.654  0.0666  1.2671  0.1852
   13MOL    C50 2954   3.925   0.534   6.996  0.3725 -0.4149 -0.0207
   13MOL    C51 2955   3.938   0.381   7.000 -0.1828  0.6651  0.0907
   13MOL    C52 2956   3.806   0.298   7.009  1.3907 -0.0658  0.6144
   13MOL    C53 2957   3.694   0.340   6.905 -0.9088  0.5292 -0.0896
   13MOL    H54 2958   3.817   0.550   6.996  0.5399  0.8072  0.8137
   13MOL    H55 2959   3.960   0.574   7.091  0.7757 -0.1205 -0.2898
   13MOL    H56 2960   3.976   0.353   6.902  3.6721  4.1506  0.4631
   13MOL    H57 2961   3.758   0.298   7.108  0.4526  1.0682  0.1751
   13MOL    H58 2962   3.833   0.194   6.993  1.8747  0.2101 -0.3950
   13MOL    H59 2963   3.643   0.246   6.883  0.7427 -0.5873  0.7625
   13MOL    H60 2964   3.629   0.415   6.951 -0.5273 -0.2725  1.7820
   13MOL    H61 2965   3.731   0.360   6.805  1.9086  1.7676  1.1644
   13MOL    C62 2966   4.036   0.329   7.109 -1.2683  0.2652 -0.6680
   13MOL    C63 2967   4.101   0.184   7.089  0.1337 -0.1428  0.4345
   13MOL    C64 2968   4.031   0.087   7.202 -0.0674  0.0926 -0.0105
   13MOL    C65 2969   4.023   7.645   7.156  0.5874  0.3957  0.3948
   13MOL    H66 2970   3.981   0.339   7.202 -0.1732 -0.9266  0.1288
   13MOL    H67 2971   4.119   0.399   7.111 -0.6690 -0.4825  1.1171
   13MOL    H68 2972   4.064   0.161   6.989  0.9348  0.4201  0.0038
   13MOL    H69 2973   3.929   0.115   7.230 -0.1399 -0.3543  0.1667
   13MOL    H70 2974   4.095   0.098   7.289 -0.3988  0.4532  0.1900
   13MOL    H71 2975   3.990   7.646   7.052 -0.7425  1.3763  0.8146
   13MOL    H72 2976   4.123   7.601   7.164  0.2345 -0.3337  0.8045
   13MOL    H73 2977   3.953   7.589   7.218 -1.3586  1.4796 -0.7865
   13MOL    C74 2978   4.254   0.167   7.084  0.0089 -0.7102 -0.4454
   13MOL    C75 2979   4.347   0.244   6.978  0.1101  0.4321 -0.4791
   13MOL    C76 2980   4.274   0.225   6.835 -0.2820 -0.1691 -0.0869
   13MOL    C77 2981   4.356   0.295   6.724  0.1461  0.3452 -0.0286
   13MOL    H78 2982   4.268   0.060   7.067  0.1919 -0.7639  0.0284
   13MOL    H79 2983   4.279   0.188   7.188 -0.6419  0.0430 -0.4367
   13MOL    H80 2984   4.355   0.348   7.008  0.2750  0.3559 -0.2504
   13MOL    H81 2985   4.178   0.275   6.851  0.0957  0.9022 -1.1664
   13MOL    H82 2986   4.253   0.119   6.818 -4.4576  0.6106 -0.5326
   13MOL    H83 2987   4.386   0.397   6.747 -2.6534  1.0029  0.8881
   13MOL    H84 2988   4.441   0.229   6.708  1.3482  1.6397  0.8128
   13MOL    H85 2989   4.306   0.287   6.628 -0.0569  0.9409  0.0263
   13MOL    C86 2990   4.490   0.190   6.969  0.2247  0.4042 -0.4177
   13MOL    C87 2991   4.570   0.206   7.112 -0.0300  0.4043  0.7878
   13MOL    C88 2992   4.563   0.341   7.175 -0.1953 -0.3312 -0.1643
   13MOL    C89 2993   4.608   0.461   7.088  0.2151  0.3717 -0.4269
   13MOL    H90 2994   4.554   0.243   6.899  1.1081  1.8522  1.4634
   13MOL    H91 2995   4.494   0.087   6.933 -1.1104  0.1849  0.0283
   13MOL    H92 2996   4.521   0.138   7.182  0.1449 -0.3641  0.1702
   13MOL    H93 2997   4.618   0.327   7.268  0.7413  0.6433 -0.5644
   13MOL    H94 2998   4.459   0.357   7.203  0.0823  0.3794  0.4565
   13MOL    H95 2999   4.716   0.454   7.079  0.1219 -2.8583  0.4703
   13MOL    H96 3000   4.566   0.474   6.988 -1.6781 -1.2541  0.1329
   13MOL    H97 3001   4.583   0.550   7.146  2.4074  0.5791  0.2419
   13MOL    C98 3002   4.712   0.143   7.105  0.5673  0.0778 -0.1278
   13MOL    C99 3003   4.742   0.008   7.023  0.2663 -0.3311 -0.0040
   13MOL   C100 3004   4.679   7.589   7.100  0.1266 -0.0516  0.4813
   13MOL   C101 3005   4.598   7.493   7.015 -0.0558 -0.1227  0.3393
   13MOL   H102 3006   4.734   0.125   7.210 -0.7039  0.7946  0.2765
   13MOL   H103 3007   4.787   0.217   7.077  1.9090 -1.6384 -1.2056
   13MOL   H104 3008   4.692   0.007   6.926 -0.5041  0.9843  0.3707
   13MOL   H105 3009   4.615   7.629   7.178  0.0897  0.9231 -0.0485
   13MOL   H106 3010   4.759   7.524   7.135  0.4037  1.7069  3.2404
   13MOL   H107 3011   4.575   7.404   7.074  0.9253 -0.8232 -0.3089
   13MOL   H108 3012   4.502   7.528   6.977  1.5870  1.5978 -2.4190
   13MOL   H109 3013   4.662   7.441   6.943 -1.1126 -0.8211 -0.1041
   13MOL   C110 3014   4.892   7.690   6.996  0.7818  0.1575 -0.9772
   13MOL   C111 3015   4.970   0.093   6.915 -0.0308 -0.2595  0.3056
   13MOL   C112 3016   4.898   0.138   6.789  0.4211 -0.3402 -0.4137
   13MOL   C113 3017   4.867   0.027   6.690  0.0582 -0.2324  0.3464
   13MOL   H114 3018   4.896   7.591   6.950  0.7125 -1.9276  3.2387
   13MOL   H115 3019   4.942   7.687   7.093 -1.2441  1.2321  0.1473
   13MOL   H116 3020   4.977   0.166   6.996 -0.4566 -1.4678  1.4568
   13MOL   H117 3021   4.952   0.225   6.751 -0.5761  0.5299  0.1351
   13MOL   H118 3022   4.810   0.189   6.825 -0.4644 -3.0622  1.4347
   13MOL   H119 3023   4.804   7.653   6.730  0.5631 -0.0162  1.6184
   13MOL   H120 3024   4.811   0.063   6.604  0.3247 -3.1359 -1.1039
   13MOL   H121 3025   4.952   7.673   6.656  0.7806 -0.0164  1.7264
   13MOL   C122 3026   5.116   0.043   6.907  0.1503  0.4969  0.7274
   13MOL   C123 3027   5.221   0.140   6.841  0.0184 -0.4706 -0.4640
   13MOL   C124 3028   5.366   0.094   6.853  0.3028 -0.2329  0.0732
   13MOL   C125 3029   5.406   7.697   6.737 -0.5732  0.4215 -0.2920
   13MOL   H126 3030   5.122   7.658   6.848  0.9269  1.1475 -0.2264
   13MOL   H127 3031   5.141   0.018   7.010  0.1000 -0.2565  0.5602
   13MOL   H128 3032   5.196   0.158   6.737  1.9360 -0.7898 -1.0056
   13MOL   H129 3033   5.368   0.036   6.945  2.0061  0.4542  0.4850
   13MOL   H130 3034   5.437   0.178   6.858  2.8504 -2.3014 -0.1013
   13MOL   H131 3035   5.507   7.659   6.748  0.3626  2.2734 -2.0706
   13MOL   H132 3036   5.333   7.617   6.725 -0.4069  0.0948  0.8110
   13MOL   H133 3037   5.406   0.034   6.636 -0.5885 -1.3211 -1.0572
   13MOL   C134 3038   5.210   0.277   6.911 -1.0455 -0.0474 -0.2351
   13MOL   C135 3039   5.194   0.397   6.815 -1.1076 -0.4028  0.4383
   13MOL   C136 3040   5.315   0.416   6.716  0.0751  0.0282 -0.3121
   13MOL   C137 3041   5.288   0.523   6.603 -0.7954 -0.5171 -0.3505
   13MOL   H138 3042   5.298   0.292   6.973 -1.3930 -0.1103  0.2778
   13MOL   H139 3043   5.132   0.290   6.985 -0.1717 -1.2092  0.8978
   13MOL   H140 3044   5.108   0.386   6.749  0.1396  0.1704 -1.3347
   13MOL   H141 3045   5.346   0.325   6.665  2.2392  1.6988 -2.1363
   13MOL   H142 3046   5.402   0.450   6.773 -0.7351 -1.3539  1.7914
   13MOL   H143 3047   5.377   0.576   6.570 -1.1119 -0.2908 -0.8694
   13MOL   H144 3048   5.237   0.489   6.512  1.5947  0.6560 -2.1846
   13MOL   H145 3049   5.230   0.604   6.646  0.0233 -0.9000  1.4942
   13MOL   C146 3050   5.160   0.517   6.898  0.4884 -0.4378  0.2489
   13MOL   C147 3051   5.019   0.528   6.957  0.8205 -0.2049 -0.5422
   13MOL   C148 3052   4.925   0.616   6.871 -0.5949  0.5564 -0.0332
   13MOL   C149 3053   4.884   0.567   6.736 -0.2671  0.5157  0.5463
   13MOL   H150 3054   5.169   0.610   6.843 -1.3994 -0.8093 -0.7345
   13MOL   H151 3055   5.227   0.528   6.983  0.0522  2.1137  0.2867
   13MOL   H152 3056   4.966   0.434   6.975 -1.5687  1.4568  1.4348
   13MOL   H153 3057   4.954   0.720   6.857  0.5199  0.2388 -0.0902
   13MOL   H154 3058   4.839   0.624   6.937 -1.1798  0.4809 -0.7748
   13MOL   H155 3059   4.854   0.463   6.747  1.7246 -0.3829 -2.1926
   13MOL   H156 3060   4.798   0.619   6.693 -1.4746  0.0597  2.3489
   13MOL   H157 3061   4.970   0.553   6.671  1.2711 -0.1039  2.6688
   13MOL   C158 3062   5.022   0.584   7.100  0.3422 -0.7757 -0.3862
   13MOL   C159 3063   5.075   0.486   7.206 -0.0612  0.4584  0.3226
   13MOL   C160 3064   4.959   0.407   7.273 -0.2016 -0.7259  1.1406
   13MOL   C161 3065   4.996   0.293   7.375  0.1656 -0.0318  0.5287
   13MOL   H162 3066   4.922   0.612   7.134  0.4477 -1.2553  0.3369
   13MOL   H163 3067   5.080   0.676   7.105  0.7026 -0.9853 -0.6212
   13MOL   H164 3068   5.139   0.410   7.160 -1.7478 -0.8697  0.1110
   13MOL   H165 3069   4.889   0.358   7.206  0.5521 -1.8298  1.1441
   13MOL   H166 3070   4.895   0.474   7.330  0.9078 -1.4018  3.2510
   13MOL   H167 3071   4.909   0.255   7.429  0.0005 -1.0975 -0.4640
   13MOL   H168 3072   5.034   0.212   7.313 -1.2847  2.1810 -3.4368
   13MOL   H169 3073   5.079   0.322   7.439 -0.5068  1.4025  0.7837
   13MOL   C170 3074   5.163   0.550   7.301 -0.0572 -0.9838 -0.9302
   13MOL   C171 3075   5.312   0.570   7.254  0.2790 -0.3530 -0.2970
   13MOL   C172 3076   5.407   0.446   7.254 -0.1811 -0.3665  0.4879
   13MOL   C173 3077   5.416   0.376   7.384  0.2165  0.4725  0.1090
   13MOL   H174 3078   5.158   0.497   7.397  0.8859 -0.4179 -0.5664
   13MOL   H175 3079   5.119   0.647   7.324 -1.2275 -1.3955 -1.4006
   13MOL   H176 3080   5.300   0.598   7.150 -0.3407 -1.9215 -0.6592
   13MOL   H177 3081   5.505   0.488   7.231 -0.6528  0.8848  0.6887
   13MOL   H178 3082   5.378   0.364   7.189  1.2765 -0.7324  0.3000
   13MOL   H179 3083   5.324   0.332   7.421  0.6801 -0.9522 -0.3578
   13MOL   H180 3084   5.490   0.296   7.375  0.0999  0.4973 -1.1694
   13MOL   H181 3085   5.447   0.446   7.461  0.5046 -0.0498  0.4751
   13MOL   C182 3086   5.377   0.689   7.332 -0.0076  0.2593 -0.0633
   13MOL   C183 3087   5.401   0.822   7.257  0.3742  0.1558 -0.1527
   13MOL   C184 3088   5.521   0.905   7.311  0.5894 -0.1697  0.4902
   13MOL   C185 3089   5.655   0.826   7.319  0.2413  0.5147 -0.4206
   13MOL   H186 3090   5.468   0.657   7.383  1.4413  1.1167 -2.0310
   13MOL   H187 3091   5.324   0.718   7.423 -0.5272 -2.4613  0.5169
   13MOL   H188 3092   5.430   0.798   7.154 -1.2354 -2.9235  0.0484
   13MOL   H189 3093   5.505   0.953   7.407 -0.8794  0.8036 -0.2255
   13MOL   H190 3094   5.540   0.988   7.243  0.4561  0.7202  1.5254
   13MOL   H191 3095   5.654   0.744   7.390  1.9733 -0.0915 -1.0629
   13MOL   H192 3096   5.684   0.786   7.222 -0.3517  1.1356 -0.8620
   13MOL   H193 3097   5.739   0.890   7.346 -0.1417  1.2826 -1.0204
   13MOL   C194 3098   5.276   0.908   7.247  0.0699 -0.5654  0.1457
   13MOL   C195 3099   5.274   1.005   7.127  0.8308 -0.3776 -0.3191
   13MOL   C196 3100   5.188   1.129   7.161  0.2175  0.2546 -0.0105
   13MOL   C197 3101   5.268   1.225   7.255  0.3626  0.3209  0.0277
   13MOL   H198 3102   5.248   0.965   7.335 -0.8303 -1.4645  0.4386
   13MOL   H199 3103   5.193   0.839   7.234 -0.8541  0.7910 -1.4631
   13MOL   H200 3104   5.375   1.038   7.101  0.8252  0.5534  0.7711
   13MOL   H201 3105   5.096   1.092   7.206  1.0552 -0.9394  0.7719
   13MOL   H202 3106   5.164   1.192   7.076 -0.0218  0.5639  0.2877
   13MOL   H203 3107   5.208   1.298   7.309 -0.5666 -1.1074  0.9590
   13MOL   H204 3108   5.321   1.177   7.338  0.5000  0.7487  0.1877
   13MOL   H205 3109   5.334   1.286   7.193  0.7577  1.1459  1.2257
   13MOL   C206 3110   5.221   0.925   7.001 -0.4556  0.9463 -0.1127
   13MOL   C207 3111   5.250   0.985   6.858 -0.5373  0.5163  0.3705
   13MOL   C208 3112   5.156   0.925   6.750  0.3838 -0.5035 -0.1293
   13MOL   C209 3113   5.184   0.980   6.607 -0.5343  0.3760 -0.4096
   13MOL   H210 3114   5.114   0.907   7.014  0.1749 -2.0348  1.5377
   13MOL   H211 3115   5.264   0.825   7.005 -0.7412  0.8873  2.0557
   13MOL   H212 3116   5.207   1.084   6.872  2.0696  1.4226  2.4707
   13MOL   H213 3117   5.053   0.944   6.781  1.1350  3.8741 -0.0602
   13MOL   H214 3118   5.163   0.816   6.742 -2.1519 -0.8254  1.5038
   13MOL   H215 3119   5.133   0.945   6.518  0.7864 -1.5620 -0.4490
   13MOL   H216 3120   5.189   1.088   6.603  0.7516  0.2660 -2.5813
   13MOL   H217 3121   5.284   0.948   6.576 -0.5454 -2.1997  1.9816
   13MOL   C218 3122   5.403   1.005   6.821  0.0918 -0.3895  0.3154
   13MOL   C219 3123   5.447   1.152   6.786  0.2143  0.0828 -0.8290
   13MOL   C220 3124   5.587   1.155   6.716  0.7310  0.0892  0.8948
   13MOL   C221 3125   5.597   1.115   6.576  0.1643 -0.5484  0.1593
   13MOL   H222 3126   5.443   0.933   6.750  1.4141 -2.4331  2.9937
   13MOL   H223 3127   5.455   0.976   6.913  1.0002  0.6541  0.1385
   13MOL   H224 3128   5.366   1.199   6.729  0.4600  0.1711 -1.1059
   13MOL   H225 3129   5.664   1.104   6.774  0.3465 -0.4935  0.8935
   13MOL   H226 3130   5.624   1.258   6.720 -1.1667  0.8904 -1.0414
   13MOL   H227 3131   5.508   1.147   6.522  1.0432  0.0713 -0.9435
   13MOL   H228 3132   5.688   1.152   6.529 -0.2488 -0.2664 -0.4091
   13MOL   H229 3133   5.598   1.006   6.568 -0.9833 -0.6224  0.7946
   13MOL   C230 3134   5.449   1.232   6.910 -0.0306  0.4722 -0.5664
   13MOL   C231 3135   5.501   1.377   6.897  0.5425 -0.1396  0.4631
   13MOL   C232 3136   5.444   1.466   7.012 -0.0782  0.1158 -0.0956
   13MOL   C233 3137   5.499   1.609   7.015  0.8505  0.0395  0.4484
   13MOL   H234 3138   5.512   1.181   6.984 -1.0254 -0.4394 -0.3219
   13MOL   H235 3139   5.350   1.234   6.955  1.1175  1.0291  2.0255
   13MOL   H236 3140   5.608   1.364   6.908  0.8724  1.6467 -0.4014
   13MOL   H237 3141   5.469   1.427   7.110 -2.4231 -0.4942  0.3064
   13MOL   H238 3142   5.335   1.476   7.013 -0.1253 -0.3931  2.1301
   13MOL   H239 3143   5.608   1.604   7.023  0.7708 -0.8361  1.2017
   13MOL   H240 3144   5.455   1.669   6.936 -0.9672 -0.5797  0.9555
   13MOL   H241 3145   5.463   1.656   7.106  0.8758  0.6094  0.1624
   13MOL   H242 3146   5.479   1.422   6.800  0.5523 -1.0067  0.0583
   14MOL     C1 3147   4.728   3.167   5.183 -0.2502 -0.2158 -0.4684
   14MOL     C2 3148   4.786   3.285   5.105 -0.4605 -0.6995  0.0737
   14MOL     C3 3149   4.837   3.225   4.975 -0.3116 -0.5273  0.1496
   14MOL     C4 3150   4.882   3.330   4.875  0.0397  0.2821  0.3556
   14MOL     H5 3151   4.654   3.106   5.132 -0.4846  1.2483 -1.9273
   14MOL     H6 3152   4.804   3.101   5.224  0.4482  0.9499  0.1240
   14MOL     H7 3153   4.704   3.348   5.071  2.7374  3.7517  0.1169
   14MOL     H8 3154   4.747   3.172   4.943 -0.6025  0.2608 -0.3608
   14MOL     H9 3155   4.910   3.145   4.990 -0.5551 -0.7055  0.4047
   14MOL    H10 3156   4.803   3.403   4.857 -1.3800 -1.4701 -0.7994
   14MOL    H11 3157   4.954   3.392   4.928  1.0215 -1.2564  0.8421
   14MOL    H12 3158   4.921   3.287   4.783 -0.9733  0.1518 -0.0197
   14MOL    H13 3159   4.668   3.204   5.265  0.4789 -0.5261  0.2141
   14MOL    C14 3160   4.892   3.364   5.191  0.0424  0.2237 -0.2927
   14MOL    C15 3161   4.845   3.426   5.325 -0.1201 -0.1755 -0.5127
   14MOL    C16 3162   4.893   3.572   5.338 -0.4524  0.0819  0.4199
   14MOL    C17 3163   4.834   3.666   5.223 -0.1062  0.2080  0.4307
   14MOL    H18 3164   4.924   3.442   5.122  0.1353  0.7023  0.2849
   14MOL    H19 3165   4.981   3.306   5.214 -0.5295 -0.2947  0.6522
   14MOL    H20 3166   4.736   3.419   5.324 -0.0870 -0.6512 -1.2862
   14MOL    H21 3167   5.002   3.566   5.336 -0.3250  1.6576  1.3990
   14MOL    H22 3168   4.868   3.622   5.431 -0.6512  1.0694 -0.1564
   14MOL    H23 3169   4.895   3.756   5.220 -0.9379  0.8348  1.8905
   14MOL    H24 3170   4.828   3.624   5.123  0.0188  1.1946  0.0058
   14MOL    H25 3171   4.731   3.698   5.237  0.9662  2.8915  2.7924
   14MOL    C26 3172   4.898   3.338   5.429  0.6642  0.0019 -0.5281
   14MOL    C27 3173   4.856   3.370   5.572 -0.0480 -0.5346 -0.7631
   14MOL    C28 3174   4.950   3.315   5.681 -0.1427 -0.1765 -0.1803
   14MOL    C29 3175   5.091   3.380   5.679  1.0553 -0.0187  0.1259
   14MOL    H30 3176   5.006   3.349   5.422  0.8119 -2.5994 -3.4551
   14MOL    H31 3177   4.881   3.231   5.413 -0.0690 -0.5043  3.1639
   14MOL    H32 3178   4.862   3.475   5.598 -1.2936 -0.5001 -0.5844
   14MOL    H33 3179   4.962   3.208   5.662  0.7457 -0.0716 -0.2344
   14MOL    H34 3180   4.904   3.340   5.776  1.9984  1.9496  0.3517
   14MOL    H35 3181   5.142   3.340   5.591  0.4726  0.7231 -0.5596
   14MOL    H36 3182   5.089   3.486   5.655 -2.5399 -0.0854 -0.1381
   14MOL    H37 3183   5.155   3.364   5.766  0.4277 -0.2603  0.5472
   14MOL    C38 3184   4.713   3.313   5.607  0.7321  0.3648  0.1928
   14MOL    C39 3185   4.633   3.375   5.721  0.9797 -0.2660 -0.3937
   14MOL    C40 3186   4.631   3.287   5.852  0.3494 -0.2456 -0.2679
   14MOL    C41 3187   4.581   3.346   5.983 -0.7685 -0.1040 -0.1093
   14MOL    H42 3188   4.716   3.204   5.614  0.1363  0.4287  1.6370
   14MOL    H43 3189   4.657   3.327   5.514  0.3645 -0.3753  0.2990
   14MOL    H44 3190   4.676   3.471   5.752  2.0028 -1.3420  1.6152
   14MOL    H45 3191   4.733   3.251   5.861  0.9000  0.5662 -2.7935
   14MOL    H46 3192   4.568   3.201   5.832 -0.3105 -0.0190  0.8335
   14MOL    H47 3193   4.474   3.368   5.990 -0.8964 -0.9324  0.5930
   14MOL    H48 3194   4.608   3.270   6.055 -1.5756  0.0895  0.4150
   14MOL    H49 3195   4.631   3.440   6.006 -1.7829  0.4309 -0.0241
   14MOL    C50 3196   4.496   3.419   5.681 -0.5301  0.5360 -0.3380
   14MOL    C51 3197   4.474   3.534   5.580 -0.1629  0.2168 -0.0378
   14MOL    C52 3198   4.511   3.668   5.651  0.4825  0.9504 -0.1158
   14MOL    C53 3199   4.596   3.764   5.570 -0.3247  0.0494 -0.5751
   14MOL    H54 3200   4.433   3.443   5.767  2.4851  0.8185  1.8445
   14MOL    H55 3201   4.448   3.330   5.641 -1.2292  0.9056 -0.3346
   14MOL    H56 3202   4.555   3.515   5.510  1.0788 -0.6929  1.6144
   14MOL    H57 3203   4.558   3.635   5.743 -0.9110 -2.0581 -0.4364
   14MOL    H58 3204   4.420   3.725   5.670  1.7111  2.8244  0.2798
   14MOL    H59 3205   4.591   3.863   5.613  1.3364  0.4796 -1.3174
   14MOL    H60 3206   4.700   3.734   5.553  0.3663  1.4693  1.0607
   14MOL    H61 3207   4.547   3.772   5.472  0.0033 -1.9075 -0.9337
   14MOL    C62 3208   4.333   3.533   5.509  0.5387  0.3362  0.3042
   14MOL    C63 3209   4.312   3.415   5.411 -1.1589  0.8440  0.9743
   14MOL    C64 3210   4.403   3.420   5.290 -0.1521  0.3183 -0.0203
   14MOL    C65 3211   4.437   3.552   5.223 -0.6594 -0.3508 -0.1995
   14MOL    H66 3212   4.329   3.629   5.456  0.2350 -0.5129 -1.2304
   14MOL    H67 3213   4.268   3.535   5.596 -0.9222 -1.2762 -0.7309
   14MOL    H68 3214   4.328   3.319   5.460 -0.9094  0.7842  0.7749
   14MOL    H69 3215   4.364   3.356   5.211  1.2822 -1.5200  0.7498
   14MOL    H70 3216   4.499   3.378   5.318 -1.3560 -1.7300  1.1627
   14MOL    H71 3217   4.498   3.611   5.291  2.2196 -1.9977 -1.2410
   14MOL    H72 3218   4.499   3.535   5.134 -0.7539  0.3560 -0.4053
   14MOL    H73 3219   4.344   3.604   5.200 -1.0099 -0.2547  1.4170
   14MOL    C74 3220   4.168   3.419   5.352  0.2689 -0.6580 -0.4183
   14MOL    C75 3221   4.047   3.416   5.446  0.0285  0.3579  0.5642
   14MOL    C76 3222   4.050   3.300   5.544  0.0447 -0.8871 -0.3302
   14MOL    C77 3223   4.071   3.155   5.504  0.0721  0.5334 -0.0326
   14MOL    H78 3224   4.155   3.334   5.286  0.1372 -0.3567 -0.7852
   14MOL    H79 3225   4.158   3.506   5.286  2.2817  0.3341  0.5508
   14MOL    H80 3226   4.041   3.509   5.503 -1.0898 -0.1280  1.2638
   14MOL    H81 3227   3.963   3.303   5.610  0.7350 -3.5223  0.7946
   14MOL    H82 3228   4.136   3.316   5.609 -0.1437 -0.6321 -0.1445
   14MOL    H83 3229   4.082   3.087   5.588  2.4545  1.2828  0.3078
   14MOL    H84 3230   3.991   3.116   5.441  0.3192  0.8437 -0.5355
   14MOL    H85 3231   4.170   3.154   5.458 -0.2196 -2.4791 -0.7207
   14MOL    C86 3232   3.912   3.416   5.353  0.8042  0.3104 -0.9473
   14MOL    C87 3233   3.778   3.455   5.423 -0.4318  0.5262 -0.4007
   14MOL    C88 3234   3.674   3.346   5.412 -0.6165 -0.0642 -0.2124
   14MOL    C89 3235   3.707   3.226   5.500  0.4985 -0.6832 -0.6762
   14MOL    H90 3236   3.897   3.330   5.289 -0.5075 -0.6549  0.6236
   14MOL    H91 3237   3.927   3.483   5.268 -0.9350 -0.4745 -1.8986
   14MOL    H92 3238   3.784   3.474   5.531 -0.9889  2.1281 -0.6330
   14MOL    H93 3239   3.661   3.324   5.306 -1.3142 -0.0440 -0.1368
   14MOL    H94 3240   3.576   3.382   5.445 -1.2389  0.5562 -2.6098
   14MOL    H95 3241   3.717   3.238   5.608 -0.7820  0.5896 -0.6789
   14MOL    H96 3242   3.614   3.170   5.485 -0.5741  0.4960  1.3533
   14MOL    H97 3243   3.794   3.172   5.461 -0.1767 -1.9020 -0.5479
   14MOL    C98 3244   3.718   3.578   5.359  0.0573 -0.2456 -0.4020
   14MOL    C99 3245   3.610   3.648   5.441 -0.3377  0.2959  0.5945
   14MOL   C100 3246   3.477   3.670   5.360  0.4469 -0.1157  0.0460
   14MOL   C101 3247   3.470   3.777   5.250  0.2002  0.7122  0.1836
   14MOL   H102 3248   3.670   3.554   5.264 -1.1786  1.2828 -0.1880
   14MOL   H103 3249   3.793   3.653   5.333 -0.5771 -0.3882 -2.7542
   14MOL   H104 3250   3.569   3.598   5.529 -2.3461 -1.4635 -1.3001
   14MOL   H105 3251   3.391   3.679   5.425  1.8018 -1.7241  2.1430
   14MOL   H106 3252   3.451   3.578   5.309 -3.8562  0.8035  0.4402
   14MOL   H107 3253   3.378   3.771   5.192 -0.2010  0.6885  0.8200
   14MOL   H108 3254   3.478   3.880   5.286 -0.7436  0.4856  1.0730
   14MOL   H109 3255   3.555   3.769   5.182  1.7230  0.2430  2.1177
   14MOL   C110 3256   3.653   3.785   5.486  0.3916 -0.3714  0.4948
   14MOL   C111 3257   3.775   3.771   5.581 -0.1319 -0.9570  0.0522
   14MOL   C112 3258   3.728   3.743   5.723 -0.1425  0.0548 -0.6006
   14MOL   C113 3259   3.844   3.695   5.810 -0.3531  0.6748 -0.5056
   14MOL   H114 3260   3.573   3.838   5.538  1.9836 -0.7212  3.3777
   14MOL   H115 3261   3.674   3.848   5.400  2.2381  0.2336  1.3695
   14MOL   H116 3262   3.843   3.687   5.562  1.7431  0.7644 -1.0167
   14MOL   H117 3263   3.662   3.656   5.725  1.3890 -1.1035  1.9648
   14MOL   H118 3264   3.664   3.823   5.760 -0.6755  0.3514 -2.0969
   14MOL   H119 3265   3.811   3.692   5.914 -1.6983  0.2110 -0.9429
   14MOL   H120 3266   3.884   3.603   5.768 -2.1992  0.7069 -2.3972
   14MOL   H121 3267   3.924   3.767   5.832 -1.0589  1.4175 -0.3271
   14MOL   C122 3268   3.856   3.910   5.581  0.0749 -0.1503  0.1888
   14MOL   C123 3269   3.947   3.924   5.450 -0.3886  0.3704  0.5280
   14MOL   C124 3270   4.065   3.824   5.449 -0.2945  0.0479 -0.6040
   14MOL   C125 3271   4.115   3.792   5.314  0.9256  0.2894 -0.3724
   14MOL   H126 3272   3.915   3.922   5.672 -1.6431 -2.6204  1.6949
   14MOL   H127 3273   3.785   3.992   5.581  0.0776 -0.1434  1.3133
   14MOL   H128 3274   3.877   3.888   5.373  0.8315  1.3809 -1.0776
   14MOL   H129 3275   4.028   3.729   5.487  1.1548 -0.1780  0.2619
   14MOL   H130 3276   4.149   3.846   5.514  0.0741 -0.2868 -0.9654
   14MOL   H131 3277   4.202   3.728   5.331 -0.9832 -1.7710  2.1892
   14MOL   H132 3278   4.048   3.741   5.244  2.6686 -0.4495 -1.5328
   14MOL   H133 3279   4.151   3.879   5.260  0.0216  2.1824  1.9782
   14MOL   C134 3280   3.993   4.069   5.411  0.0137 -0.1724  0.5081
   14MOL   C135 3281   3.883   4.175   5.370  0.0571  0.0370 -0.9072
   14MOL   C136 3282   3.819   4.130   5.235  0.7141  0.1690  0.2801
   14MOL   C137 3283   3.666   4.139   5.238  0.5999  0.0975  0.2466
   14MOL   H138 3284   4.058   4.057   5.324  0.4929  0.4111  0.7809
   14MOL   H139 3285   4.056   4.117   5.485 -0.2828  0.7880  0.1462
   14MOL   H140 3286   3.804   4.180   5.445  1.5134  0.5428  0.6597
   14MOL   H141 3287   3.838   4.025   5.214 -2.4348 -0.7500  1.7660
   14MOL   H142 3288   3.859   4.196   5.158  2.7653 -1.6184 -0.2247
   14MOL   H143 3289   3.643   4.093   5.142 -0.4921  1.6434 -0.2544
   14MOL   H144 3290   3.629   4.081   5.323 -1.2484  1.3508  0.3168
   14MOL   H145 3291   3.619   4.237   5.246  0.8183  0.1132  1.3369
   14MOL   C146 3292   3.945   4.318   5.374 -0.1126 -0.0272 -0.1447
   14MOL   C147 3293   3.849   4.440   5.350 -0.4728 -0.7775  0.3860
   14MOL   C148 3294   3.930   4.575   5.308  0.1088  0.0695 -0.5346
   14MOL   C149 3295   4.013   4.562   5.174 -0.2279 -1.1435  0.0406
   14MOL   H150 3296   4.025   4.319   5.299  0.1657  1.1485  0.1578
   14MOL   H151 3297   3.996   4.332   5.469 -0.3094  0.8394 -0.1625
   14MOL   H152 3298   3.779   4.417   5.269 -0.1399 -0.2740 -0.0528
   14MOL   H153 3299   4.002   4.612   5.381  0.8118 -1.6517 -0.3414
   14MOL   H154 3300   3.860   4.658   5.298 -1.7740 -1.5800 -1.2520
   14MOL   H155 3301   4.101   4.498   5.181  0.7101  0.4197  3.2168
   14MOL   H156 3302   3.966   4.547   5.077  2.0473 -0.0855 -1.2612
   14MOL   H157 3303   4.052   4.663   5.168 -0.0584 -1.0376  2.4988
   14MOL   C158 3304   3.751   4.473   5.466 -0.2024 -0.2855  0.0863
   14MOL   C159 3305   3.653   4.591   5.458 -0.4848  0.5956  1.1146
   14MOL   C160 3306   3.566   4.591   5.584 -0.0325 -0.1338  0.2929
   14MOL   C161 3307   3.645   4.596   5.717  0.3720  0.2280  0.0085
   14MOL   H162 3308   3.810   4.469   5.557  0.7255 -0.1672 -0.5051
   14MOL   H163 3309   3.683   4.389   5.477 -1.6340  1.0865  2.2036
   14MOL   H164 3310   3.705   4.686   5.468  0.2678  0.3408 -0.2842
   14MOL   H165 3311   3.498   4.505   5.579  0.4609 -0.4160 -1.6978
   14MOL   H166 3312   3.490   4.667   5.599  1.2333  1.0665  0.6821
   14MOL   H167 3313   3.712   4.681   5.723 -0.8929  1.1834  0.6737
   14MOL   H168 3314   3.569   4.609   5.794 -0.2807  0.5776 -0.6800
   14MOL   H169 3315   3.692   4.506   5.758  1.3018  1.8762  2.6443
   14MOL   C170 3316   3.563   4.603   5.330  0.0137 -0.2712 -0.7414
   14MOL   C171 3317   3.484   4.735   5.316 -0.6690  0.5746 -0.3343
   14MOL   C172 3318   3.374   4.722   5.207 -0.3846 -0.6592 -0.1353
   14MOL   C173 3319   3.268   4.614   5.241  0.3178  0.0543  0.0957
   14MOL   H174 3320   3.492   4.521   5.336 -2.4312  1.7144 -1.8121
   14MOL   H175 3321   3.631   4.584   5.246  2.3481 -2.3752  1.5270
   14MOL   H176 3322   3.431   4.755   5.409 -0.5322  0.2263 -0.1832
   14MOL   H177 3323   3.414   4.683   5.113 -2.5665  1.1458 -1.8903
   14MOL   H178 3324   3.327   4.819   5.189  2.9149  0.7471 -1.6358
   14MOL   H179 3325   3.255   4.613   5.349 -1.3834  2.3427 -0.0644
   14MOL   H180 3326   3.178   4.625   5.182  0.7481  1.9750 -0.2289
   14MOL   H181 3327   3.317   4.518   5.222  0.2508  0.0780 -0.1982
   14MOL   C182 3328   3.580   4.854   5.290 -0.0582 -0.7125  0.0944
   14MOL   C183 3329   3.624   4.949   5.404 -0.2870 -0.0608 -0.3376
   14MOL   C184 3330   3.515   4.994   5.494  0.0977 -0.1400  0.5550
   14MOL   C185 3331   3.390   5.068   5.435  0.3553  0.3941  0.3736
   14MOL   H186 3332   3.529   4.912   5.213 -0.9970  0.3235  1.4704
   14MOL   H187 3333   3.674   4.816   5.250  0.5970  0.7676  0.2053
   14MOL   H188 3334   3.694   4.901   5.472 -1.9146 -0.5521  1.0434
   14MOL   H189 3335   3.564   5.060   5.567 -0.0852  0.2178  0.3564
   14MOL   H190 3336   3.482   4.912   5.558  0.3733 -1.2856 -0.7560
   14MOL   H191 3337   3.315   5.003   5.392  0.3205  1.1493 -0.7364
   14MOL   H192 3338   3.342   5.128   5.512 -0.2466 -0.4425  0.6519
   14MOL   H193 3339   3.420   5.133   5.353  2.3565 -0.5786  0.2917
   14MOL   C194 3340   3.715   5.055   5.326  1.0706 -0.0625 -0.2563
   14MOL   C195 3341   3.780   5.164   5.424  0.3524  0.0774  0.8243
   14MOL   C196 3342   3.701   5.301   5.414  0.1991 -0.8747  0.2204
   14MOL   C197 3343   3.757   5.422   5.491  0.0392 -0.2974 -0.2524
   14MOL   H198 3344   3.663   5.109   5.247 -0.3637  0.2002  0.8631
   14MOL   H199 3345   3.793   5.002   5.271  0.4326  1.0683 -2.2995
   14MOL   H200 3346   3.768   5.117   5.522  1.1341 -4.3299 -1.0644
   14MOL   H201 3347   3.602   5.282   5.455  0.2162  1.2345  1.2966
   14MOL   H202 3348   3.676   5.345   5.317 -2.5099  1.4548  1.9150
   14MOL   H203 3349   3.787   5.397   5.593 -2.5338  0.1919  0.6597
   14MOL   H204 3350   3.837   5.480   5.447 -0.4572  0.5543 -0.0513
   14MOL   H205 3351   3.679   5.497   5.503  0.4707  0.0141  0.6850
   14MOL   C206 3352   3.926   5.177   5.389 -0.1774 -0.2098 -0.5428
   14MOL   C207 3353   4.029   5.064   5.436  0.0436 -0.2096 -0.2496
   14MOL   C208 3354   4.004   5.020   5.582  1.0662  0.1735  0.2623
   14MOL   C209 3355   4.017   5.134   5.689 -0.1855  0.1761 -0.2665
   14MOL   H210 3356   3.969   5.265   5.437  2.2226 -1.6475  0.0551
   14MOL   H211 3357   3.938   5.185   5.280  1.9570  1.4232 -0.2345
   14MOL   H212 3358   4.016   4.980   5.368 -1.2226  1.0890 -1.6481
   14MOL   H213 3359   4.082   4.946   5.596 -0.8727 -2.0082 -0.2346
   14MOL   H214 3360   3.909   4.969   5.600  1.4073  0.1636  2.1424
   14MOL   H215 3361   4.118   5.175   5.696  0.3164 -1.2362  1.1338
   14MOL   H216 3362   3.953   5.216   5.658  0.7097  0.6756 -0.8195
   14MOL   H217 3363   3.990   5.094   5.787 -2.3683 -0.2211 -1.0014
   14MOL   C218 3364   4.182   5.102   5.415  0.4765 -0.1229  0.7776
   14MOL   C219 3365   4.234   5.080   5.267 -0.0396 -0.0038 -0.8411
   14MOL   C220 3366   4.261   4.936   5.217  0.6657  0.6636  0.3822
   14MOL   C221 3367   4.188   4.910   5.087  0.1190 -0.0916  0.9084
   14MOL   H222 3368   4.237   5.029   5.475  0.6524 -0.0139  0.7494
   14MOL   H223 3369   4.199   5.205   5.446 -0.0247  0.6320 -1.3943
   14MOL   H224 3370   4.164   5.130   5.201 -2.8541 -0.0789  1.9843
   14MOL   H225 3371   4.206   4.862   5.276  0.8813  0.7624  0.7095
   14MOL   H226 3372   4.366   4.909   5.213  0.2403 -1.2215  1.2892
   14MOL   H227 3373   4.079   4.919   5.088  0.1209  0.8618 -2.1670
   14MOL   H228 3374   4.233   4.956   4.999 -2.1278  0.9032  0.2498
   14MOL   H229 3375   4.211   4.807   5.061  1.1761  0.2169  0.5655
   14MOL   C230 3376   4.362   5.158   5.240  0.7225  0.4849  0.2208
   14MOL   C231 3377   4.384   5.197   5.086  0.1150  0.3723 -0.4952
   14MOL   C232 3378   4.469   5.319   5.058 -0.8387 -0.1379 -0.4098
   14MOL   C233 3379   4.483   5.338   4.912 -0.7939 -0.5390 -0.2965
   14MOL   H234 3380   4.451   5.106   5.276  0.1678 -1.2019 -0.7264
   14MOL   H235 3381   4.357   5.247   5.302  0.2257  0.9169 -0.4291
   14MOL   H236 3382   4.424   5.110   5.034 -2.3662  0.9128 -3.4580
   14MOL   H237 3383   4.568   5.297   5.099 -0.0182  0.5960 -1.9603
   14MOL   H238 3384   4.445   5.411   5.110  2.6182  0.8147 -0.3734
   14MOL   H239 3385   4.395   5.374   4.859 -0.7296  0.3611  0.1940
   14MOL   H240 3386   4.555   5.416   4.884 -2.4478  0.4649 -1.8727
   14MOL   H241 3387   4.520   5.242   4.875  0.9581  0.3515 -0.9134
   14MOL   H242 3388   4.287   5.215   5.040 -0.8938 -3.4307 -0.0011
   15MOL     C1 3389   0.295   0.011   7.218 -0.2909 -0.5481  0.7107
   15MOL     C2 3390   0.329   7.605   7.323 -0.1961  0.3488  0.9731
   15MOL     C3 3391   0.397   7.478   7.262  0.5382 -0.4928 -0.5117
   15MOL     C4 3392   0.312   7.372   7.190  0.0792 -0.5068  0.1163
   15MOL     H5 3393   0.190   7.706   7.193  0.1939  1.4656 -2.5183
   15MOL     H6 3394   0.308   0.115   7.249 -0.0499 -0.6632  1.0002
   15MOL     H7 3395   0.413   7.647   7.377  0.2626  0.3935  0.2349
   15MOL     H8 3396   0.445   7.430   7.348 -0.1607 -1.2505 -0.5501
   15MOL     H9 3397   0.483   7.500   7.199  2.0236 -1.9450  0.9441
   15MOL    H10 3398   0.377   7.285   7.181  0.7706  0.1167 -0.9955
   15MOL    H11 3399   0.231   7.331   7.251 -0.6809  0.3516 -0.2869
   15MOL    H12 3400   0.267   7.404   7.096 -1.2872  0.7571  1.1622
   15MOL    H13 3401   0.344   7.698   7.123 -0.2778 -0.2612  0.6598
   15MOL    C14 3402   0.213   7.570   7.423 -0.0103 -0.1791  0.0983
   15MOL    C15 3403   0.156   7.677   7.512 -0.1778 -0.5763  0.4245
   15MOL    C16 3404   0.265   0.041   7.600  0.8297 -0.6489 -0.2189
   15MOL    C17 3405   0.316   7.664   0.010 -0.0632  0.3763  0.0060
   15MOL    H18 3406   0.247   7.483   7.478 -0.1274 -2.2307 -2.9126
   15MOL    H19 3407   0.134   7.529   7.360 -2.0746 -1.1975  3.2443
   15MOL    H20 3408   0.116   0.047   7.444 -2.5847 -0.2306  2.1585
   15MOL    H21 3409   0.226   0.138   7.632 -2.2823 -1.6178 -0.9184
   15MOL    H22 3410   0.347   0.078   7.539  0.8032  0.7755  0.5767
   15MOL    H23 3411   0.236   7.629   0.075  1.4071 -1.6259  0.7894
   15MOL    H24 3412   0.376   7.579   7.685 -1.8658 -1.0639  0.3920
   15MOL    H25 3413   0.394   0.013   0.063  0.8431 -0.3658 -0.5437
   15MOL    C26 3414   0.046   7.619   7.602 -0.0226 -0.7095  0.6147
   15MOL    C27 3415   7.617   7.567   7.529  0.1088  0.6200 -0.4309
   15MOL    C28 3416   7.511   7.685   7.505 -0.7100 -0.2940 -0.0400
   15MOL    C29 3417   7.416   7.651   7.396  0.3081 -0.2320 -0.4280
   15MOL    H30 3418   0.030   7.693   7.680 -1.4656  2.0618 -2.1778
   15MOL    H31 3419   0.079   7.533   7.660 -2.2612 -1.3832  0.9557
   15MOL    H32 3420   7.640   7.534   7.428 -0.9328 -0.1768 -0.4112
   15MOL    H33 3421   7.567   0.067   7.474 -1.8800  0.6596  0.5121
   15MOL    H34 3422   7.464   0.017   7.596 -0.3268 -3.0561  1.3814
   15MOL    H35 3423   7.353   7.568   7.427 -1.0221  0.6333 -0.7955
   15MOL    H36 3424   7.362   0.029   7.354 -0.4807 -1.4181 -1.8262
   15MOL    H37 3425   7.470   7.619   7.307  0.4735  0.3209 -0.5290
   15MOL    C38 3426   7.551   7.447   7.603 -0.3003  0.9438 -0.2945
   15MOL    C39 3427   7.605   7.310   7.566  0.4213  0.2931 -0.7671
   15MOL    C40 3428   7.561   7.257   7.422 -0.0500  0.5569 -0.6571
   15MOL    C41 3429   7.411   7.239   7.394  0.4489 -0.3278  0.6699
   15MOL    H42 3430   7.443   7.445   7.587 -0.3769 -0.6101  0.3676
   15MOL    H43 3431   7.565   7.459   0.005 -0.5783 -0.5415 -0.0784
   15MOL    H44 3432   0.008   7.314   7.573  0.4274 -0.4397 -0.3907
   15MOL    H45 3433   7.611   7.166   7.390 -1.0894 -0.9490  1.8184
   15MOL    H46 3434   7.590   7.327   7.343 -1.2771 -0.3458 -1.9296
   15MOL    H47 3435   7.361   7.335   7.381  2.9637  0.8083 -0.9270
   15MOL    H48 3436   7.391   7.199   7.295 -1.1548 -0.1595  0.9042
   15MOL    H49 3437   7.371   7.174   7.473  0.6855  0.4373  1.4347
   15MOL    C50 3438   7.571   7.206   7.673  0.2988  0.4137 -0.8334
   15MOL    C51 3439   7.627   7.063   7.662  0.7776 -0.1713 -0.2925
   15MOL    C52 3440   7.560   6.968   0.060  0.9994 -0.2977  0.0133
   15MOL    C53 3441   7.414   6.929   0.028 -0.2055  0.1822 -0.1426
   15MOL    H54 3442   7.463   7.194   7.675  0.2384  1.1300  0.9232
   15MOL    H55 3443   7.593   7.234   0.070 -0.9401 -0.4463 -0.3348
   15MOL    H56 3444   7.600   7.027   7.563 -1.6416 -1.7308  0.8713
   15MOL    H57 3445   7.558   7.010   0.160 -1.8356 -0.8744  0.2470
   15MOL    H58 3446   7.615   6.874   0.061 -0.4737 -1.1657  0.7671
   15MOL    H59 3447   7.372   6.851   0.092 -1.4006  1.6958  0.9733
   15MOL    H60 3448   7.352   7.016   0.049  1.6290  1.1376  1.4994
   15MOL    H61 3449   7.407   6.897   7.630 -2.4959 -0.2337  0.1189
   15MOL    C62 3450   0.070   7.056   7.669  0.2970 -0.2442  0.1690
   15MOL    C63 3451   0.139   7.090   0.093  0.1972 -0.6082  0.3390
   15MOL    C64 3452   0.193   7.240   0.097 -0.2710  1.1062 -0.1875
   15MOL    C65 3453   0.237   7.293   0.233  0.2026 -0.4666 -0.9461
   15MOL    H66 3454   0.120   7.117   7.593  0.8140 -0.5200  0.2833
   15MOL    H67 3455   0.089   6.955   7.634 -1.0186 -0.1809 -0.7627
   15MOL    H68 3456   0.059   7.077   0.166 -2.0554  1.6371 -1.6278
   15MOL    H69 3457   0.114   7.309   0.065 -1.4806 -1.6279 -3.3793
   15MOL    H70 3458   0.279   7.256   0.033  0.6342 -0.8310  0.5362
   15MOL    H71 3459   0.344   7.275   0.243  0.3098  1.2507  1.2688
   15MOL    H72 3460   0.226   7.402   0.235  0.0477 -0.4877 -0.6124
   15MOL    H73 3461   0.181   7.256   0.318 -0.0352 -1.8405 -1.6757
   15MOL    C74 3462   0.246   6.986   0.140  0.3158  0.0135 -0.1137
   15MOL    C75 3463   0.392   7.004   0.102  0.7047 -0.1442  0.8714
   15MOL    C76 3464   0.408   7.005   7.653 -0.1574 -1.2208  0.5165
   15MOL    C77 3465   0.524   7.100   7.615 -0.2371 -1.0659 -0.2055
   15MOL    H78 3466   0.208   6.886   0.119 -1.8287  1.2903 -2.4847
   15MOL    H79 3467   0.243   6.980   0.249 -0.2402 -1.6737 -0.2034
   15MOL    H80 3468   0.418   7.103   0.139  0.0829 -0.6035  2.5792
   15MOL    H81 3469   0.320   7.048   7.605  0.2273 -2.5863 -1.4667
   15MOL    H82 3470   0.421   6.903   7.617  0.6481 -0.4980 -1.3111
   15MOL    H83 3471   0.504   7.118   7.510  0.5788  0.9854 -0.0196
   15MOL    H84 3472   0.513   7.196   7.665  0.0417  0.8205 -3.6243
   15MOL    H85 3473   0.625   7.062   7.629  2.0470  3.9545 -2.1623
   15MOL    C86 3474   0.486   6.898   0.172 -0.0087  0.1253 -0.0310
   15MOL    C87 3475   0.599   6.943   0.269  0.7395  0.4010 -0.4175
   15MOL    C88 3476   0.679   7.069   0.214 -0.2476  0.0750 -0.4828
   15MOL    C89 3477   0.779   7.126   0.304 -0.6721 -0.0727  0.2033
   15MOL    H90 3478   0.541   6.855   0.089  0.0194 -0.4007  0.2588
   15MOL    H91 3479   0.424   6.817   0.210  0.6989 -0.8222 -0.8477
   15MOL    H92 3480   0.543   6.978   0.355 -2.0484 -1.7899 -1.2537
   15MOL    H93 3481   0.603   7.143   0.189 -0.5936  0.2195  0.9099
   15MOL    H94 3482   0.725   7.033   0.122  2.8325  2.0882  0.1909
   15MOL    H95 3483   0.746   7.158   0.403 -2.4769 -1.4027  0.0582
   15MOL    H96 3484   0.868   7.063   0.315  1.1369  2.5545  0.9864
   15MOL    H97 3485   0.817   7.211   0.249  0.8631 -0.1689  1.0918
   15MOL    C98 3486   0.694   6.822   0.318  0.1650  0.7844  0.3416
   15MOL    C99 3487   0.649   6.727   0.431 -0.0039  0.8966  0.3355
   15MOL   C100 3488   0.568   6.791   0.545  0.0815  0.1356  0.2199
   15MOL   C101 3489   0.651   6.899   0.625  0.1543  0.2510 -0.8894
   15MOL   H102 3490   0.795   6.860   0.332 -0.1821  1.7570  0.2420
   15MOL   H103 3491   0.716   6.767   0.226  0.4822  1.7844 -0.1921
   15MOL   H104 3492   0.576   6.658   0.389 -2.4102  1.8716  2.7994
   15MOL   H105 3493   0.529   6.708   0.603  0.7928 -1.2188 -1.1968
   15MOL   H106 3494   0.485   6.843   0.499  0.2713 -0.0601 -0.3465
   15MOL   H107 3495   0.741   6.864   0.674 -1.0060 -1.2047  0.2396
   15MOL   H108 3496   0.685   6.978   0.558 -1.5495  1.3197 -0.5400
   15MOL   H109 3497   0.586   6.952   0.695  0.8427 -2.4797  1.9027
   15MOL   C110 3498   0.769   6.641   0.478 -0.3378  0.0382 -0.1925
   15MOL   C111 3499   0.735   6.506   0.542 -0.3193  0.0792 -0.0711
   15MOL   C112 3500   0.743   6.509   0.694  0.2145 -0.7113 -0.8361
   15MOL   C113 3501   0.881   6.517   0.752 -0.3934 -0.8158  0.3981
   15MOL   H114 3502   0.847   6.691   0.536 -2.0281  1.2520  1.0928
   15MOL   H115 3503   0.828   6.616   0.390  0.7968  1.5835  0.1292
   15MOL   H116 3504   0.632   6.484   0.518 -0.6791 -1.9051  2.9886
   15MOL   H117 3505   0.692   6.422   0.734 -0.6183 -0.2182 -0.8119
   15MOL   H118 3506   0.689   6.597   0.728 -0.6960 -0.9313 -1.6815
   15MOL   H119 3507   0.878   6.507   0.861 -1.5659  0.7932  0.5338
   15MOL   H120 3508   0.949   6.453   0.697  0.0238  0.7196 -0.8934
   15MOL   H121 3509   0.913   6.620   0.737 -0.6120 -0.9344 -0.8748
   15MOL   C122 3510   0.805   6.374   0.485  0.2634  0.2732 -0.0750
   15MOL   C123 3511   0.766   6.355   0.339 -0.6149  0.2962 -0.3868
   15MOL   C124 3512   0.611   6.317   0.319 -0.2314  0.1755 -0.2763
   15MOL   C125 3513   0.568   6.189   0.392  0.7892  0.1920 -0.0280
   15MOL   H126 3514   0.779   6.286   0.544  2.1375 -0.3786 -0.1867
   15MOL   H127 3515   0.914   6.374   0.479  0.2051 -1.3091 -1.4421
   15MOL   H128 3516   0.781   6.442   0.276 -0.3560  0.6616  0.1713
   15MOL   H129 3517   0.581   6.295   0.217 -3.4765  0.1786  0.5965
   15MOL   H130 3518   0.542   6.400   0.334 -0.4631 -0.0673  0.0131
   15MOL   H131 3519   0.460   6.179   0.390  0.2660  4.9793 -1.4584
   15MOL   H132 3520   0.615   6.102   0.347  0.8448  1.2377 -2.0198
   15MOL   H133 3521   0.603   6.184   0.496  2.0754 -0.7429 -0.4954
   15MOL   C134 3522   0.841   6.233   0.276  0.0997 -0.3422  0.6762
   15MOL   C135 3523   0.979   6.258   0.208 -0.0511 -0.5847 -0.1149
   15MOL   C136 3524   0.957   6.339   0.076 -0.0826 -0.9552 -0.2498
   15MOL   C137 3525   1.089   6.397   0.032 -0.7426  0.7481  0.1068
   15MOL   H138 3526   0.789   6.201   0.185 -1.7772  1.2579  1.1693
   15MOL   H139 3527   0.839   6.166   0.362  0.3773 -0.5505  0.5229
   15MOL   H140 3528   1.038   6.323   0.272  0.6254 -2.2782  1.0303
   15MOL   H141 3529   0.892   6.424   0.100  1.5080 -0.2795  1.8869
   15MOL   H142 3530   0.916   6.269   0.003 -3.8696  0.2273  0.6220
   15MOL   H143 3531   1.156   6.314   0.007  0.6862  2.2196 -1.0862
   15MOL   H144 3532   1.073   6.461   7.651 -0.6798  0.5099 -0.0817
   15MOL   H145 3533   1.131   6.462   0.109 -1.4420  1.7131 -0.3306
   15MOL   C146 3534   1.056   6.122   0.198  0.0732 -0.0561  0.7531
   15MOL   C147 3535   1.105   6.050   0.322  0.2614 -0.4155  0.4763
   15MOL   C148 3536   1.246   6.099   0.364 -0.5353  0.4151  0.1415
   15MOL   C149 3537   1.279   6.058   0.508 -0.0326  0.4953  0.3846
   15MOL   H150 3538   1.140   6.141   0.132 -0.0448  1.2372  0.9566
   15MOL   H151 3539   0.991   6.052   0.146  2.7247 -0.1478 -2.6272
   15MOL   H152 3540   1.037   6.085   0.400 -0.6133 -1.4067  0.1710
   15MOL   H153 3541   1.257   6.206   0.349  3.0051 -0.0144 -0.6987
   15MOL   H154 3542   1.325   6.059   0.301 -0.0066  0.8209  0.5352
   15MOL   H155 3543   1.373   6.097   0.545  0.2310  1.4479 -1.2244
   15MOL   H156 3544   1.211   6.113   0.572  1.0961  1.5234  0.7147
   15MOL   H157 3545   1.271   5.950   0.522 -0.3097  0.1762 -1.9460
   15MOL   C158 3546   1.093   5.897   0.310  0.3860 -0.3822  0.3051
   15MOL   C159 3547   1.006   5.823   0.409  0.1590 -0.7658 -0.5088
   15MOL   C160 3548   1.044   5.669   0.421 -0.0859 -0.0154 -0.0932
   15MOL   C161 3549   1.165   5.655   0.519 -0.0756  0.1550  0.3370
   15MOL   H162 3550   1.187   5.842   0.314 -0.1022 -1.2445 -0.0101
   15MOL   H163 3551   1.055   5.868   0.212 -1.7936  0.7618  0.7690
   15MOL   H164 3552   1.028   5.881   0.498  0.6571  0.7427 -1.5921
   15MOL   H165 3553   1.080   5.628   0.327 -2.0535  0.3459 -1.0190
   15MOL   H166 3554   0.968   5.602   0.462 -0.4497 -1.0904 -2.4925
   15MOL   H167 3555   1.205   5.557   0.544 -0.5204  0.3792  1.9913
   15MOL   H168 3556   1.244   5.727   0.499  0.8988 -1.6857 -2.7468
   15MOL   H169 3557   1.132   5.688   0.617  0.8571 -2.0178  1.3991
   15MOL   C170 3558   0.855   5.846   0.405  0.4834 -0.4765 -0.0374
   15MOL   C171 3559   0.782   5.841   0.544  0.2802  0.0284  0.0485
   15MOL   C172 3560   0.632   5.822   0.523  0.0063  0.3853 -1.3851
   15MOL   C173 3561   0.567   5.769   0.650  0.7381  0.4315  0.3396
   15MOL   H174 3562   0.802   5.783   0.334 -1.0547  1.4823 -0.6696
   15MOL   H175 3563   0.825   5.938   0.355 -4.7185 -1.3663  1.1897
   15MOL   H176 3564   0.825   5.750   0.586 -0.1687 -0.4679 -0.5453
   15MOL   H177 3565   0.611   5.765   0.432 -0.3794  0.0153 -1.0636
   15MOL   H178 3566   0.594   5.923   0.513 -0.5791  0.4400  1.0391
   15MOL   H179 3567   0.615   5.678   0.686  1.8849  0.7304 -0.4050
   15MOL   H180 3568   0.565   5.840   0.732 -3.2806 -1.3766  1.9282
   15MOL   H181 3569   0.467   5.741   0.618  1.5630  0.0244 -2.0196
   15MOL   C182 3570   0.811   5.972   0.625 -0.2389 -0.2348  0.3247
   15MOL   C183 3571   0.883   5.945   0.755 -1.0973 -0.1782 -0.2461
   15MOL   C184 3572   0.791   5.897   0.874 -0.1324  0.0491 -0.4870
   15MOL   C185 3573   0.683   5.989   0.917 -0.2478 -0.8205 -0.3610
   15MOL   H186 3574   0.720   6.025   0.649 -1.6292 -3.0216  1.4318
   15MOL   H187 3575   0.874   6.034   0.560  0.8689 -2.3829 -0.7195
   15MOL   H188 3576   0.968   5.880   0.731 -1.4775 -0.0291 -2.0457
   15MOL   H189 3577   0.842   5.872   0.967 -0.1166 -1.3046 -0.8483
   15MOL   H190 3578   0.749   5.804   0.837  0.6484 -0.5722  0.1742
   15MOL   H191 3579   0.706   6.079   0.976 -1.9844  0.4825 -1.6410
   15MOL   H192 3580   0.610   6.020   0.843  0.6003  0.4552 -0.6872
   15MOL   H193 3581   0.622   5.933   0.988  0.2188 -0.1665  0.5715
   15MOL   C194 3582   0.957   6.069   0.814 -0.0498 -0.5233  0.0796
   15MOL   C195 3583   1.049   6.057   0.942  0.0765 -0.2661  0.6694
   15MOL   C196 3584   1.117   6.194   0.975  0.3162 -0.2782  0.2350
   15MOL   C197 3585   1.220   6.246   0.862  0.6934  0.9082  0.2991
   15MOL   H198 3586   0.879   6.143   0.830 -0.3248 -0.8099  0.0723
   15MOL   H199 3587   1.019   6.104   0.732 -0.8605  0.7619  0.0123
   15MOL   H200 3588   0.985   6.047   1.030 -0.0361  1.3787  0.7891
   15MOL   H201 3589   1.172   6.205   1.068  1.6640 -1.5110 -0.3956
   15MOL   H202 3590   1.035   6.265   0.988 -0.5296 -1.4341  1.4188
   15MOL   H203 3591   1.266   6.338   0.899 -1.0685  1.1892  1.8925
   15MOL   H204 3592   1.295   6.171   0.838  0.8812  0.8939  0.9163
   15MOL   H205 3593   1.155   6.282   0.782  0.2236 -0.8878 -0.1422
   15MOL   C206 3594   1.162   5.948   0.935  0.3866  0.3188  0.3558
   15MOL   C207 3595   1.140   5.807   0.999 -0.1164 -0.6300 -0.6939
   15MOL   C208 3596   1.091   5.815   1.146  0.0709  0.4035 -0.0075
   15MOL   C209 3597   1.178   5.893   1.239 -0.6096  0.1652 -0.3834
   15MOL   H210 3598   1.251   5.984   0.987  1.5329  0.5115 -1.6711
   15MOL   H211 3599   1.194   5.946   0.831  3.4428  0.5611  1.2299
   15MOL   H212 3600   1.060   5.751   0.951 -1.7663  0.2489  1.0007
   15MOL   H213 3601   1.066   5.724   1.200 -0.0020  0.4089 -0.0336
   15MOL   H214 3602   0.996   5.868   1.145 -0.9635 -1.4422 -1.0421
   15MOL   H215 3603   1.135   5.894   1.339  1.0683 -0.3259  0.3505
   15MOL   H216 3604   1.274   5.842   1.245  0.1964  0.7883 -5.1891
   15MOL   H217 3605   1.203   5.993   1.203  1.6862  0.5420  2.1379
   15MOL   C218 3606   1.268   5.730   0.985 -0.0722  0.4045 -0.1412
   15MOL   C219 3607   1.264   5.582   1.029  0.5528 -0.0427  0.2619
   15MOL   C220 3608   1.407   5.522   1.055 -0.6317  0.0549  0.7939
   15MOL   C221 3609   1.481   5.490   0.925  0.2098  0.1367  0.0288
   15MOL   H222 3610   1.348   5.785   1.036  0.0169 -0.3009  0.4919
   15MOL   H223 3611   1.302   5.729   0.881 -0.5333 -0.3124 -0.2912
   15MOL   H224 3612   1.215   5.581   1.126 -0.2757  1.3137 -0.1283
   15MOL   H225 3613   1.378   5.439   1.120 -0.7697 -1.0455 -0.6421
   15MOL   H226 3614   1.462   5.599   1.109 -1.0294  1.3753 -0.6316
   15MOL   H227 3615   1.498   5.584   0.873  1.2804 -1.1485 -2.0541
   15MOL   H228 3616   1.578   5.447   0.950  0.0041  0.0804  0.7365
   15MOL   H229 3617   1.435   5.418   0.856  0.9288 -0.2376 -0.0674
   15MOL   C230 3618   1.171   5.497   0.936 -0.0298  0.8918  0.2910
   15MOL   C231 3619   1.139   5.363   0.996 -0.4692  0.0785  0.2262
   15MOL   C232 3620   1.028   5.278   0.935 -0.1663 -0.4188 -0.3653
   15MOL   C233 3621   0.877   5.318   0.959 -0.1788 -0.3973 -0.0241
   15MOL   H234 3622   1.208   5.484   0.834 -2.0556 -1.6483 -0.1635
   15MOL   H235 3623   1.071   5.538   0.919 -0.9908 -1.8394 -0.8981
   15MOL   H236 3624   1.231   5.306   1.010  0.6817  1.4350 -1.5734
   15MOL   H237 3625   1.047   5.181   0.983 -0.3318 -0.7066 -0.8730
   15MOL   H238 3626   1.048   5.263   0.829 -0.8279  0.9715 -0.6949
   15MOL   H239 3627   0.840   5.286   1.056  1.7618 -1.7412  0.3093
   15MOL   H240 3628   0.843   5.420   0.940  1.8918  0.0852 -1.3526
   15MOL   H241 3629   0.828   5.261   0.880 -1.6713  1.7699 -0.7052
   15MOL   H242 3630   1.105   5.389   1.096  1.3256 -0.0065  0.8820
   16MOL     C1 3631   2.218   3.992   0.679 -0.5534 -0.1972  0.1328
   16MOL     C2 3632   2.278   4.130   0.633 -0.1679 -0.0999  0.0248
   16MOL     C3 3633   2.203   4.253   0.685 -0.3099  0.6015 -0.2071
   16MOL     C4 3634   2.055   4.234   0.666  0.2972  0.8521  0.1740
   16MOL     H5 3635   2.126   3.970   0.625 -0.7046 -1.8988  1.0656
   16MOL     H6 3636   2.296   3.917   0.667 -1.8661 -2.0815  2.9557
   16MOL     H7 3637   2.376   4.136   0.680 -0.5868  0.1117  0.8867
   16MOL     H8 3638   2.233   4.344   0.633  0.3527  0.7388  0.3986
   16MOL     H9 3639   2.222   4.276   0.789  3.8986 -1.4084 -0.4215
   16MOL    H10 3640   2.043   4.228   0.558  0.5914  0.4412  0.1645
   16MOL    H11 3641   2.006   4.147   0.709  1.5497  0.1703  0.2658
   16MOL    H12 3642   2.001   4.321   0.703  1.2935  1.0391  1.2365
   16MOL    H13 3643   2.195   3.989   0.786  1.4501 -0.8356  0.5530
   16MOL    C14 3644   2.295   4.124   0.484  0.1367 -0.5796 -0.7133
   16MOL    C15 3645   2.431   4.071   0.438 -0.5101 -0.1166  0.4788
   16MOL    C16 3646   2.561   4.153   0.456 -0.5982 -0.2385  0.3078
   16MOL    C17 3647   2.551   4.292   0.408 -0.2532 -0.3073  0.0000
   16MOL    H18 3648   2.268   4.220   0.439  0.8952 -0.2616 -0.5003
   16MOL    H19 3649   2.224   4.052   0.444 -1.6421  0.1115  1.1183
   16MOL    H20 3650   2.449   3.976   0.490  0.6602 -0.1897 -0.0412
   16MOL    H21 3651   2.637   4.111   0.390 -2.8850 -1.6292 -1.5538
   16MOL    H22 3652   2.590   4.130   0.558  0.4414  0.7834  0.2451
   16MOL    H23 3653   2.651   4.336   0.413 -0.7082  0.7803 -0.1851
   16MOL    H24 3654   2.515   4.297   0.305 -3.5192 -1.0805  1.0508
   16MOL    H25 3655   2.475   4.351   0.460 -1.1599 -0.1982 -1.4344
   16MOL    C26 3656   2.412   4.030   0.286 -0.5097  0.0410  0.0406
   16MOL    C27 3657   2.370   3.887   0.266  0.5864 -1.2388 -0.3141
   16MOL    C28 3658   2.482   3.780   0.280  0.4280  0.6965  0.2199
   16MOL    C29 3659   2.435   3.631   0.290 -0.4754  0.0620 -0.0465
   16MOL    H30 3660   2.509   4.044   0.240 -1.5632  0.1048 -2.2389
   16MOL    H31 3661   2.348   4.098   0.229 -1.6514 -0.4665  0.6822
   16MOL    H32 3662   2.304   3.872   0.352  1.7411  0.8401  0.9632
   16MOL    H33 3663   2.541   3.805   0.369  1.3701 -2.6134  0.6124
   16MOL    H34 3664   2.540   3.782   0.188  0.7916 -0.9903  0.3860
   16MOL    H35 3665   2.390   3.602   0.195 -1.0358 -1.5250  0.6849
   16MOL    H36 3666   2.520   3.565   0.312  1.8928  3.0853  0.2372
   16MOL    H37 3667   2.353   3.619   0.360 -0.0676  0.4225  0.4990
   16MOL    C38 3668   2.296   3.863   0.129 -0.1784 -0.4001 -1.0926
   16MOL    C39 3669   2.156   3.793   0.132  0.8696 -0.8079  0.1611
   16MOL    C40 3670   2.118   3.735   7.703  0.4345 -0.1690  0.2516
   16MOL    C41 3671   2.197   3.605   7.672  0.4199  0.3056 -0.1641
   16MOL    H42 3672   2.364   3.812   0.061  0.7748 -0.9099  0.2228
   16MOL    H43 3673   2.290   3.957   0.074  2.5146 -0.4546 -1.5283
   16MOL    H44 3674   2.161   3.720   0.213  0.1847 -0.8848  0.1437
   16MOL    H45 3675   2.140   3.820   7.638  0.3675  0.8528  1.5359
   16MOL    H46 3676   2.011   3.723   7.694  0.4356  0.5098 -0.7001
   16MOL    H47 3677   2.159   3.557   7.582 -0.2341  0.4859  0.0061
   16MOL    H48 3678   2.300   3.628   7.647 -0.1170  1.1224 -1.7080
   16MOL    H49 3679   2.186   3.529   0.044 -0.6378 -0.0822 -0.6698
   16MOL    C50 3680   2.058   3.905   0.183  0.2083 -0.0682  0.2663
   16MOL    C51 3681   1.908   3.861   0.221  0.5024  0.1705  0.1156
   16MOL    C52 3682   1.824   3.987   0.205  0.8215  0.0738 -0.1357
   16MOL    C53 3683   1.788   4.008   0.058  0.5015 -0.2787  0.1055
   16MOL    H54 3684   2.056   3.987   0.112 -1.3039 -1.6295 -1.5673
   16MOL    H55 3685   2.101   3.950   0.272 -1.2226  1.4183  0.2417
   16MOL    H56 3686   1.871   3.793   0.144 -0.6651  0.1648  0.6711
   16MOL    H57 3687   1.874   4.075   0.244 -1.7658  1.4473  0.2061
   16MOL    H58 3688   1.726   3.983   0.254 -1.1886 -0.0105 -3.9561
   16MOL    H59 3689   1.719   4.091   0.046 -2.1947 -2.5155 -0.5635
   16MOL    H60 3690   1.873   4.040   7.704  2.5526 -1.3535  2.3307
   16MOL    H61 3691   1.756   3.912   0.016  1.3946 -1.1392  1.3209
   16MOL    C62 3692   1.900   3.800   0.361  0.1549 -0.2106 -0.4773
   16MOL    C63 3693   1.771   3.731   0.404  0.8377  0.4505  0.2952
   16MOL    C64 3694   1.692   3.819   0.514  0.4261 -0.3494  0.4263
   16MOL    C65 3695   1.779   3.881   0.628  0.3545  0.0252  0.0532
   16MOL    H66 3696   1.930   3.884   0.423 -0.1441 -0.7482  0.4092
   16MOL    H67 3697   1.989   3.738   0.370 -0.0536 -0.1685  2.2023
   16MOL    H68 3698   1.707   3.737   0.316  1.5280  0.2635 -0.2208
   16MOL    H69 3699   1.615   3.752   0.554  1.3848 -1.7161  0.0362
   16MOL    H70 3700   1.645   3.895   0.451  0.1284 -0.0628  0.9934
   16MOL    H71 3701   1.845   3.956   0.584 -1.7506  1.2232 -1.1045
   16MOL    H72 3702   1.715   3.935   0.697  0.2012  1.0989 -0.9209
   16MOL    H73 3703   1.842   3.808   0.679 -2.7973 -1.4398  1.9611
   16MOL    C74 3704   1.792   3.583   0.442 -0.8541  0.4798 -0.3238
   16MOL    C75 3705   1.850   3.487   0.332 -0.1253 -0.1463  0.1090
   16MOL    C76 3706   1.773   3.483   0.200  0.4871  0.0377 -0.1674
   16MOL    C77 3707   1.632   3.417   0.218 -0.2165 -0.1630 -0.5596
   16MOL    H78 3708   1.699   3.542   0.480 -1.4722  2.0402 -0.1098
   16MOL    H79 3709   1.857   3.572   0.529  1.2281  1.6509 -1.6785
   16MOL    H80 3710   1.946   3.528   0.299 -1.8024  2.4789 -1.6853
   16MOL    H81 3711   1.830   3.429   0.125 -2.6544  0.0222 -2.6596
   16MOL    H82 3712   1.757   3.579   0.149  0.0994 -0.1212 -0.3530
   16MOL    H83 3713   1.630   3.310   0.237  0.1308 -0.1615 -0.4943
   16MOL    H84 3714   1.582   3.464   0.303 -0.9702 -0.7545 -0.6789
   16MOL    H85 3715   1.582   3.416   0.121  0.2488  2.1010 -0.8503
   16MOL    C86 3716   1.866   3.344   0.388  0.3999 -0.0770 -0.2143
   16MOL    C87 3717   1.978   3.314   0.490  0.3535 -0.3346  0.0386
   16MOL    C88 3718   2.118   3.359   0.442  0.3439 -0.5750  0.0433
   16MOL    C89 3719   2.182   3.285   0.321 -0.1247 -0.0080 -0.5875
   16MOL    H90 3720   1.893   3.274   0.308 -1.6862 -1.4896  0.2863
   16MOL    H91 3721   1.771   3.314   0.431  0.6258 -0.2361  0.1756
   16MOL    H92 3722   1.953   3.377   0.575  2.8320 -0.4766  0.8888
   16MOL    H93 3723   2.185   3.356   0.528 -1.1630  0.1786  1.2489
   16MOL    H94 3724   2.132   3.463   0.415  1.0638 -1.1641 -1.9592
   16MOL    H95 3725   2.180   3.176   0.324  3.2679 -0.0927 -0.1918
   16MOL    H96 3726   2.143   3.325   0.228 -0.4391  0.8506 -0.0953
   16MOL    H97 3727   2.288   3.308   0.311  0.1413 -0.1462  1.5471
   16MOL    C98 3728   1.992   3.165   0.538 -0.1251 -0.9865  0.4191
   16MOL    C99 3729   1.886   3.125   0.636 -0.5688 -1.0925 -0.7855
   16MOL   C100 3730   1.929   3.162   0.783 -0.0134 -0.1332  0.0021
   16MOL   C101 3731   2.048   3.076   0.839  0.5751 -0.6032  0.4036
   16MOL   H102 3732   2.085   3.163   0.594  0.1715  1.7620  0.1073
   16MOL   H103 3733   2.004   3.100   0.451  5.2593 -0.8464  0.9234
   16MOL   H104 3734   1.796   3.185   0.620 -1.4287 -2.5565 -1.5678
   16MOL   H105 3735   1.843   3.148   0.848 -2.0227 -0.9339 -2.7469
   16MOL   H106 3736   1.956   3.267   0.793  1.3489 -0.5888  1.4354
   16MOL   H107 3737   2.087   3.107   0.936 -0.8672  0.6695  0.5927
   16MOL   H108 3738   2.026   2.969   0.847 -1.4487 -0.2117  0.3605
   16MOL   H109 3739   2.143   3.092   0.788 -0.2858  3.1445 -0.1796
   16MOL   C110 3740   1.857   2.968   0.622 -0.5334  0.0890 -0.2007
   16MOL   C111 3741   1.756   2.928   0.506  0.1913  0.3793  0.2399
   16MOL   C112 3742   1.616   2.964   0.529 -0.6637 -0.6407 -0.0997
   16MOL   C113 3743   1.544   2.863   0.627 -0.0687 -1.3712 -0.1458
   16MOL   H114 3744   1.833   2.928   0.720  0.6356  0.5970  0.3140
   16MOL   H115 3745   1.953   2.921   0.602 -0.0781  1.2864 -0.9384
   16MOL   H116 3746   1.788   2.995   0.427  0.1941  0.3375  0.2055
   16MOL   H117 3747   1.570   2.956   0.431  0.4646  2.3349 -0.9331
   16MOL   H118 3748   1.601   3.069   0.557 -0.8334 -0.1634 -1.9442
   16MOL   H119 3749   1.591   2.867   0.725 -0.6497  2.9970  0.0302
   16MOL   H120 3750   1.438   2.888   0.634  0.3388 -0.2014  2.1373
   16MOL   H121 3751   1.549   2.763   0.582  0.4142 -0.5238 -2.0449
   16MOL   C122 3752   1.783   2.779   0.457  0.5621  0.2954  0.3944
   16MOL   C123 3753   1.909   2.762   0.365  0.3148 -0.4307  0.2761
   16MOL   C124 3754   1.904   2.857   0.244  0.1280  0.1747  0.6882
   16MOL   C125 3755   1.777   2.858   0.159  0.2790  0.3663  0.4918
   16MOL   H126 3756   1.697   2.736   0.405  2.0219  1.5772 -3.1987
   16MOL   H127 3757   1.784   2.711   0.543 -2.0278 -0.7364 -0.3429
   16MOL   H128 3758   1.998   2.798   0.416  1.0868  0.3845 -1.6202
   16MOL   H129 3759   1.981   2.824   0.174  0.2773  0.2762  0.8046
   16MOL   H130 3760   1.934   2.960   0.259 -0.4607  0.1813  1.8748
   16MOL   H131 3761   1.745   2.760   0.125 -4.1380  1.2571  1.8031
   16MOL   H132 3762   1.702   2.907   0.221 -0.3108 -0.1452  0.1800
   16MOL   H133 3763   1.798   2.910   0.065  0.9677 -0.2281  0.3126
   16MOL   C134 3764   1.932   2.615   0.324 -1.1883  0.8462  0.7133
   16MOL   C135 3765   1.975   2.519   0.441 -0.2741 -0.0453 -0.0991
   16MOL   C136 3766   2.109   2.564   0.517  0.0225 -0.2908  0.1703
   16MOL   C137 3767   2.236   2.578   0.431 -0.0749  0.0071 -0.1103
   16MOL   H138 3768   2.006   2.613   0.245  1.0065 -0.5502  2.7263
   16MOL   H139 3769   1.837   2.586   0.279 -0.4017 -1.0811  0.2629
   16MOL   H140 3770   1.902   2.511   0.522 -2.4059 -0.9519 -2.0553
   16MOL   H141 3771   2.146   2.507   0.602  1.3215 -1.0073 -0.8462
   16MOL   H142 3772   2.073   2.661   0.550  0.4713 -0.0974  0.0957
   16MOL   H143 3773   2.220   2.626   0.335  1.3977  0.2371 -0.2618
   16MOL   H144 3774   2.312   2.625   0.494  0.4203 -0.3151 -0.4627
   16MOL   H145 3775   2.276   2.478   0.417 -0.6365 -0.4093  1.1631
   16MOL   C146 3776   1.981   2.376   0.374  0.2803 -0.2459 -0.0010
   16MOL   C147 3777   1.978   2.256   0.474  0.7696  0.1853  0.5037
   16MOL   C148 3778   2.038   2.130   0.419  0.0677  0.0221  0.7012
   16MOL   C149 3779   1.988   2.093   0.276 -0.4359 -0.1606  0.0961
   16MOL   H150 3780   2.080   2.368   0.329  0.5492 -1.5967  0.8175
   16MOL   H151 3781   1.901   2.361   0.301  1.7260 -2.1657 -1.2490
   16MOL   H152 3782   2.041   2.288   0.557 -1.3367  4.1875  0.7194
   16MOL   H153 3783   2.024   2.040   0.479  1.3734 -0.1757  0.7234
   16MOL   H154 3784   2.147   2.140   0.416  0.4681 -3.2956  2.0932
   16MOL   H155 3785   1.880   2.087   0.281 -0.5686  2.6476  2.0269
   16MOL   H156 3786   2.003   2.171   0.202  1.5809 -0.3376  0.2674
   16MOL   H157 3787   2.034   2.001   0.238  1.2371  0.2103  1.1313
   16MOL   C158 3788   1.834   2.240   0.525 -0.3992  0.3085  0.0480
   16MOL   C159 3789   1.821   2.144   0.648 -0.2250  0.2730 -1.3937
   16MOL   C160 3790   1.690   2.066   0.653  0.0324 -0.3558 -0.1719
   16MOL   C161 3791   1.677   1.969   0.532  0.0032  0.4655  0.4918
   16MOL   H162 3792   1.775   2.198   0.445 -0.3137 -2.7230  1.5138
   16MOL   H163 3793   1.786   2.336   0.545 -1.0650 -0.0480  0.1445
   16MOL   H164 3794   1.899   2.069   0.640 -0.3065  0.2731 -2.2296
   16MOL   H165 3795   1.605   2.134   0.652 -0.1876 -0.6291 -1.4246
   16MOL   H166 3796   1.675   2.022   0.752  0.8076  0.7782  0.4532
   16MOL   H167 3797   1.583   1.913   0.535 -0.5129  1.1813 -1.2635
   16MOL   H168 3798   1.677   2.019   0.435 -0.3534  1.1385  0.8316
   16MOL   H169 3799   1.767   1.909   0.542 -0.6816 -0.3402  1.8759
   16MOL   C170 3800   1.847   2.198   0.791  0.1786 -0.4758  0.5118
   16MOL   C171 3801   1.968   2.289   0.818 -0.3853  0.2782  0.3060
   16MOL   C172 3802   2.101   2.206   0.811 -0.5190  0.6846  0.4158
   16MOL   C173 3803   2.222   2.294   0.825 -0.3978 -0.1241 -0.0997
   16MOL   H174 3804   1.846   2.124   0.871  0.8652  0.1183  1.0798
   16MOL   H175 3805   1.761   2.262   0.810 -0.5455 -1.2171 -0.2315
   16MOL   H176 3806   1.979   2.364   0.740 -1.1474 -0.2000 -0.2622
   16MOL   H177 3807   2.097   2.154   0.715  2.3708 -0.2355  0.7707
   16MOL   H178 3808   2.115   2.136   0.893  0.2013 -0.5899 -0.7814
   16MOL   H179 3809   2.306   2.246   0.774 -0.7557  0.4281 -1.2315
   16MOL   H180 3810   2.201   2.388   0.773 -0.2220 -0.2325 -0.3704
   16MOL   H181 3811   2.242   2.320   0.929 -0.6683 -0.8792  0.1440
   16MOL   C182 3812   1.953   2.355   0.953  0.6070 -0.2714  0.2290
   16MOL   C183 3813   1.854   2.462   0.969 -0.5191 -1.0474 -0.4098
   16MOL   C184 3814   1.875   2.584   0.881 -0.3979  0.7676 -0.0651
   16MOL   C185 3815   1.751   2.669   0.852 -0.2438  0.3096  0.3560
   16MOL   H186 3816   2.049   2.389   0.994  0.6065 -0.8046  0.6883
   16MOL   H187 3817   1.923   2.284   1.030 -4.4214 -0.4985 -1.7952
   16MOL   H188 3818   1.759   2.415   0.944 -0.8222 -0.8622  0.3832
   16MOL   H189 3819   1.923   2.558   0.786  1.1215 -0.2665  0.9477
   16MOL   H190 3820   1.956   2.646   0.920  0.3075 -1.0236  1.4487
   16MOL   H191 3821   1.701   2.695   0.945  0.1641  2.3726  0.0267
   16MOL   H192 3822   1.775   2.764   0.803  0.6916  0.5915  1.3321
   16MOL   H193 3823   1.680   2.623   0.782  0.0217 -0.2431  0.4477
   16MOL   C194 3824   1.840   2.503   1.122 -0.4962 -0.1677  0.1910
   16MOL   C195 3825   1.698   2.493   1.175 -0.0104 -0.2191 -0.2814
   16MOL   C196 3826   1.673   2.588   1.298  0.6246 -0.3747  0.2938
   16MOL   C197 3827   1.587   2.709   1.250 -0.5798  0.2327  0.0156
   16MOL   H198 3828   1.882   2.604   1.128  0.4101 -0.6174  2.0488
   16MOL   H199 3829   1.906   2.444   1.186 -2.4154 -1.6827  0.8240
   16MOL   H200 3830   1.636   2.521   1.090 -0.2898  4.4004  1.3024
   16MOL   H201 3831   1.771   2.622   1.329  0.9324  1.5316 -2.5756
   16MOL   H202 3832   1.621   2.530   1.375  0.8935 -1.8900 -0.6469
   16MOL   H203 3833   1.541   2.762   1.334  0.2913 -0.4813  0.9638
   16MOL   H204 3834   1.634   2.777   1.180 -1.6301  0.5792 -0.3624
   16MOL   H205 3835   1.503   2.680   1.186 -1.4384  0.5995  0.9608
   16MOL   C206 3836   1.675   2.345   1.212  1.0979 -0.2866 -0.1608
   16MOL   C207 3837   1.523   2.313   1.220 -0.5665 -0.2338 -0.5071
   16MOL   C208 3838   1.501   2.203   1.317  0.4485  0.0334 -0.5262
   16MOL   C209 3839   1.582   2.078   1.308 -0.1116 -0.1051  0.8405
   16MOL   H210 3840   1.719   2.334   1.312  0.2711 -0.8320  0.1494
   16MOL   H211 3841   1.732   2.273   1.153  1.4160  0.5721 -0.9080
   16MOL   H212 3842   1.471   2.398   1.265  2.1094  0.7526  0.8666
   16MOL   H213 3843   1.395   2.176   1.318  0.9741 -2.2102 -1.8140
   16MOL   H214 3844   1.506   2.241   1.419  0.5264 -0.0850 -0.4862
   16MOL   H215 3845   1.586   2.038   1.207 -1.1687  0.2598  0.6520
   16MOL   H216 3846   1.685   2.099   1.336  0.4142  1.2149 -1.9937
   16MOL   H217 3847   1.549   2.003   1.381 -0.3305 -1.5249 -0.6795
   16MOL   C218 3848   1.474   2.295   1.078  0.1745 -0.6842  0.4005
   16MOL   C219 3849   1.326   2.290   1.037 -0.2111  0.1868 -0.4715
   16MOL   C220 3850   1.309   2.232   0.895  1.0027  0.3573 -0.4990
   16MOL   C221 3851   1.347   2.087   0.874  0.2454  0.1666  0.2197
   16MOL   H222 3852   1.529   2.211   1.034  1.4359 -0.5524  1.7115
   16MOL   H223 3853   1.508   2.375   1.013  0.9646  0.6281  2.4132
   16MOL   H224 3854   1.270   2.219   1.099 -0.2816  0.9172  0.3074
   16MOL   H225 3855   1.363   2.296   0.826 -0.7816  0.5446 -1.7712
   16MOL   H226 3856   1.205   2.244   0.864  0.7330 -0.8036 -0.0872
   16MOL   H227 3857   1.299   2.047   0.784 -0.5332  1.6652 -0.0380
   16MOL   H228 3858   1.454   2.083   0.853  0.1502 -2.3954  0.0081
   16MOL   H229 3859   1.320   2.029   0.962  0.2475 -1.3537 -0.7698
   16MOL   C230 3860   1.260   2.433   1.049 -0.1418  0.4601  0.3550
   16MOL   C231 3861   1.310   2.546   0.949  0.8089  0.2132 -0.5135
   16MOL   C232 3862   1.236   2.679   0.975  0.7693  0.1465  0.0691
   16MOL   C233 3863   1.287   2.785   0.877 -0.6277 -0.7540 -0.0944
   16MOL   H234 3864   1.285   2.468   1.149  3.4571 -1.3679  0.1954
   16MOL   H235 3865   1.152   2.421   1.044  0.0396 -0.1231 -3.8230
   16MOL   H236 3866   1.418   2.557   0.961  0.4342  1.1021  2.4915
   16MOL   H237 3867   1.247   2.707   1.080 -0.5998 -2.3969  0.9357
   16MOL   H238 3868   1.128   2.667   0.966  0.6361  0.4190  1.2474
   16MOL   H239 3869   1.222   2.872   0.892  0.6529  0.1929  0.0893
   16MOL   H240 3870   1.392   2.802   0.902 -0.0216 -1.4049 -2.0515
   16MOL   H241 3871   1.269   2.751   0.775 -0.0628 -1.2416 -0.0336
   16MOL   H242 3872   1.275   2.513   0.851 -0.1696  0.5047 -0.2601
   17MOL     C1 3873   2.863   1.987   3.535  0.0862 -0.3587  0.3343
   17MOL     C2 3874   2.735   2.067   3.576  0.0178 -0.3426 -0.0446
   17MOL     C3 3875   2.677   2.017   3.711  0.4562 -0.2646 -0.3663
   17MOL     C4 3876   2.639   1.865   3.715  0.1261  0.5324  0.0386
   17MOL     H5 3877   2.932   2.003   3.617 -0.8270  2.1782  0.6515
   17MOL     H6 3878   2.845   1.880   3.534  0.1897 -0.3853  1.0225
   17MOL     H7 3879   2.765   2.171   3.579 -0.5109 -0.1931  0.2822
   17MOL     H8 3880   2.596   2.076   3.752  0.8668 -1.1144  1.7048
   17MOL     H9 3881   2.754   2.027   3.787  0.4494 -0.5128 -0.3263
   17MOL    H10 3882   2.714   1.789   3.693 -0.2482  0.4952 -1.1569
   17MOL    H11 3883   2.595   1.853   3.814 -1.8893  1.2293 -0.7431
   17MOL    H12 3884   2.548   1.847   3.656  1.3684 -2.1582 -1.1615
   17MOL    H13 3885   2.897   2.019   3.436 -0.8369  0.8216  0.3790
   17MOL    C14 3886   2.615   2.054   3.475 -0.4718  0.5295 -0.5751
   17MOL    C15 3887   2.625   2.163   3.356  1.1509  0.4025  0.3013
   17MOL    C16 3888   2.580   2.298   3.411  0.0969  0.0715 -0.5559
   17MOL    C17 3889   2.617   2.422   3.323  0.3108  0.5876  0.0682
   17MOL    H18 3890   2.524   2.057   3.534  0.8206  0.2745  1.4633
   17MOL    H19 3891   2.615   1.954   3.432  0.0061 -0.3269  1.3731
   17MOL    H20 3892   2.729   2.176   3.328  1.0944 -0.0216 -0.1126
   17MOL    H21 3893   2.621   2.320   3.510 -0.8581  1.9583 -0.5429
   17MOL    H22 3894   2.471   2.295   3.415  0.0657  0.6070 -0.9505
   17MOL    H23 3895   2.579   2.511   3.374 -0.7536  0.4104 -0.4026
   17MOL    H24 3896   2.725   2.431   3.322  0.2662  1.2139  0.3381
   17MOL    H25 3897   2.571   2.421   3.224 -0.8700  1.8721  0.5731
   17MOL    C26 3898   2.553   2.128   3.222 -0.5651  0.2065 -0.1364
   17MOL    C27 3899   2.580   1.990   3.160  0.2883 -0.1969 -0.7863
   17MOL    C28 3900   2.732   1.951   3.170 -0.6489 -0.2569 -0.9813
   17MOL    C29 3901   2.826   2.033   3.082 -0.0748  0.3131  0.3287
   17MOL    H30 3902   2.575   2.211   3.155  1.9278  1.7009  2.4378
   17MOL    H31 3903   2.450   2.145   3.254 -0.0491  3.2506  0.0523
   17MOL    H32 3904   2.527   1.918   3.222  0.0639  0.0271 -0.7166
   17MOL    H33 3905   2.741   1.843   3.155  2.0150 -0.3150  0.8093
   17MOL    H34 3906   2.771   1.967   3.270 -1.5520  0.1404 -0.6945
   17MOL    H35 3907   2.926   1.990   3.086 -0.9550 -1.6945  1.1061
   17MOL    H36 3908   2.793   2.041   2.979  1.2648  0.0247 -0.1334
   17MOL    H37 3909   2.822   2.133   3.125 -0.6526  0.5894 -0.3583
   17MOL    C38 3910   2.531   1.972   3.014  0.5488 -0.2578  0.8861
   17MOL    C39 3911   2.390   2.014   2.971  0.8344 -0.4246  0.3219
   17MOL    C40 3912   2.278   1.972   3.068  0.1723 -0.7284  0.3984
   17MOL    C41 3913   2.143   2.047   3.067  0.2474  0.5121 -0.0344
   17MOL    H42 3914   2.556   1.871   2.982  0.2111 -0.2239  0.5168
   17MOL    H43 3915   2.592   2.030   2.944 -2.4976  1.3975 -0.5150
   17MOL    H44 3916   2.381   2.122   2.975 -0.1964 -0.3924 -1.9015
   17MOL    H45 3917   2.322   2.003   3.163  2.4807  0.2008 -0.9361
   17MOL    H46 3918   2.258   1.865   3.070  0.6898 -0.8448 -0.3543
   17MOL    H47 3919   2.150   2.156   3.072 -1.3021  0.5392  1.9996
   17MOL    H48 3920   2.084   2.017   2.981 -0.1422 -0.1878  0.4759
   17MOL    H49 3921   2.086   2.017   3.155 -1.7434  1.0243 -1.1195
   17MOL    C50 3922   2.352   1.972   2.824 -0.9545 -0.1161 -0.3650
   17MOL    C51 3923   2.427   2.040   2.703  0.0739 -0.4270 -0.4959
   17MOL    C52 3924   2.399   2.196   2.695 -0.1192  0.0322 -0.6051
   17MOL    C53 3925   2.472   2.266   2.576 -0.0863  0.9332 -0.4982
   17MOL    H54 3926   2.244   1.988   2.817 -1.2617 -2.1553 -0.5233
   17MOL    H55 3927   2.365   1.865   2.811 -1.9874 -0.0508 -2.1524
   17MOL    H56 3928   2.532   2.019   2.722  0.3638 -0.2900 -1.9159
   17MOL    H57 3929   2.445   2.238   2.785  0.9086 -1.0158 -0.6240
   17MOL    H58 3930   2.297   2.230   2.708 -0.3817 -0.7317 -0.6645
   17MOL    H59 3931   2.499   2.369   2.601  2.0457 -0.4915  3.5997
   17MOL    H60 3932   2.567   2.220   2.552 -0.9048 -1.1207  0.0787
   17MOL    H61 3933   2.411   2.265   2.486 -1.2213 -3.1785  0.1860
   17MOL    C62 3934   2.377   1.968   2.570  0.4420  0.3996  0.2519
   17MOL    C63 3935   2.398   1.817   2.560 -0.2318 -0.0848 -0.1627
   17MOL    C64 3936   2.540   1.762   2.585 -0.4265  0.4960 -0.0726
   17MOL    C65 3937   2.645   1.819   2.486  0.4957 -0.0147  0.5689
   17MOL    H66 3938   2.414   2.005   2.475  0.0996 -0.3929 -0.2018
   17MOL    H67 3939   2.271   1.994   2.566  0.8329  1.8558 -1.0882
   17MOL    H68 3940   2.331   1.783   2.639  2.0189 -3.0203  0.5734
   17MOL    H69 3941   2.549   1.654   2.598 -0.5419  0.5640  0.5840
   17MOL    H70 3942   2.571   1.802   2.681  0.0401  0.9503 -0.4115
   17MOL    H71 3943   2.646   1.928   2.498  0.6392 -0.0600  0.9789
   17MOL    H72 3944   2.747   1.789   2.511  0.1615 -0.5791  1.2906
   17MOL    H73 3945   2.641   1.804   2.379 -0.3898 -0.0623  0.6057
   17MOL    C74 3946   2.338   1.781   2.416 -0.6645  1.1241 -0.0504
   17MOL    C75 3947   2.186   1.803   2.386 -0.1956  0.2592  0.5387
   17MOL    C76 3948   2.090   1.779   2.498  0.5100 -0.0859  0.2417
   17MOL    C77 3949   2.095   1.633   2.549 -0.1531 -0.3277  0.0939
   17MOL    H78 3950   2.356   1.675   2.397  0.1965  1.2439  0.0768
   17MOL    H79 3951   2.398   1.824   2.336  1.5152 -0.8395  0.4925
   17MOL    H80 3952   2.168   1.909   2.373  0.8065  0.2049 -1.4656
   17MOL    H81 3953   1.991   1.807   2.462  0.7648  0.2202 -0.2277
   17MOL    H82 3954   2.112   1.838   2.587  1.1228 -0.3269  0.2496
   17MOL    H83 3955   2.196   1.591   2.548 -0.0269 -0.0785 -3.4688
   17MOL    H84 3956   2.061   1.628   2.653  0.7063 -0.4077  0.3812
   17MOL    H85 3957   2.030   1.583   2.478  0.5157 -1.0013 -0.0619
   17MOL    C86 3958   2.154   1.724   2.261  0.1098 -0.5148 -0.4579
   17MOL    C87 3959   2.024   1.772   2.180  0.0318 -0.0823  0.0545
   17MOL    C88 3960   1.958   1.664   2.088 -0.6274  0.9768  0.0194
   17MOL    C89 3961   1.900   1.556   2.179 -0.4620 -0.8505 -0.1224
   17MOL    H90 3962   2.142   1.620   2.292 -1.9362 -0.4119 -0.8521
   17MOL    H91 3963   2.238   1.728   2.191  2.6586 -2.3264  2.3999
   17MOL    H92 3964   1.952   1.809   2.253  1.8017  2.0873  0.7622
   17MOL    H93 3965   2.025   1.620   2.015 -1.9461 -2.2894  0.7020
   17MOL    H94 3966   1.879   1.711   2.030  1.5251  0.8481 -3.1623
   17MOL    H95 3967   1.977   1.489   2.216  0.8274  1.5843  1.7822
   17MOL    H96 3968   1.848   1.593   2.267  0.0206  1.8280 -0.9119
   17MOL    H97 3969   1.823   1.495   2.130 -0.2988 -1.1456 -0.0107
   17MOL    C98 3970   2.062   1.889   2.087 -0.5089 -0.1325 -0.3781
   17MOL    C99 3971   1.971   2.019   2.081  0.8994  0.0796 -0.1986
   17MOL   C100 3972   1.821   1.986   2.046  0.0713  0.6745  0.8547
   17MOL   C101 3973   1.814   1.933   1.901  0.0448 -0.3516 -0.4194
   17MOL   H102 3974   2.090   1.853   1.988 -0.3072 -0.7799 -0.0873
   17MOL   H103 3975   2.162   1.915   2.124  0.1146 -0.1337 -2.0008
   17MOL   H104 3976   1.970   2.061   2.181 -1.5059 -0.7168  0.1391
   17MOL   H105 3977   1.759   2.074   2.060  0.2045  1.2215 -1.7001
   17MOL   H106 3978   1.783   1.907   2.111 -1.3400 -0.3537 -1.1360
   17MOL   H107 3979   1.903   1.878   1.873 -0.3973 -1.2768 -0.0036
   17MOL   H108 3980   1.729   1.864   1.895  2.7718 -4.0260  1.5994
   17MOL   H109 3981   1.800   2.019   1.835  0.5291 -1.4519 -2.0007
   17MOL   C110 3982   2.024   2.136   1.998  0.3393  0.0262  0.3039
   17MOL   C111 3983   2.167   2.189   2.044 -0.6721  0.1121  0.2554
   17MOL   C112 3984   2.179   2.236   2.198  0.7489 -0.2853  1.3830
   17MOL   C113 3985   2.086   2.348   2.232 -0.3489  0.6017  0.2976
   17MOL   H114 3986   1.948   2.214   2.004 -1.0222 -1.3563  1.4463
   17MOL   H115 3987   2.030   2.106   1.893  3.0902  0.2656  0.3568
   17MOL   H116 3988   2.234   2.106   2.024 -0.4363  0.2782  0.3394
   17MOL   H117 3989   2.281   2.267   2.223  0.8669  0.5885 -0.1071
   17MOL   H118 3990   2.160   2.147   2.257  0.2694 -0.1866  1.3745
   17MOL   H119 3991   2.062   2.349   2.338  3.2059  2.0318  1.1568
   17MOL   H120 3992   2.107   2.446   2.190 -1.4016  0.4714 -0.5384
   17MOL   H121 3993   1.986   2.333   2.192 -1.1115  1.3534  1.8778
   17MOL   C122 3994   2.216   2.296   1.949  0.1602 -0.6730 -0.2395
   17MOL   C123 3995   2.364   2.348   1.955  0.2985 -0.6926 -0.3109
   17MOL   C124 3996   2.375   2.500   1.921 -0.5600 -0.2720  0.4027
   17MOL   C125 3997   2.373   2.534   1.774 -0.3130 -0.2415 -0.1106
   17MOL   H126 3998   2.148   2.379   1.964 -0.4227 -1.1645 -0.1155
   17MOL   H127 3999   2.201   2.258   1.848  1.9760  0.0559 -0.8053
   17MOL   H128 4000   2.391   2.354   2.061 -0.0495  0.3839 -0.2813
   17MOL   H129 4001   2.480   2.525   1.938 -0.1007 -2.4683  0.9758
   17MOL   H130 4002   2.315   2.565   1.985  0.5735 -0.0393  1.2395
   17MOL   H131 4003   2.458   2.494   1.719 -1.3869 -0.4155 -1.6521
   17MOL   H132 4004   2.285   2.494   1.725 -0.5558 -0.8685  0.8417
   17MOL   H133 4005   2.353   2.640   1.757  3.2326  0.3960 -0.6566
   17MOL   C134 4006   2.447   2.253   1.878 -0.4185  0.3775  0.2767
   17MOL   C135 4007   2.596   2.275   1.911  0.6339 -0.0667 -0.7612
   17MOL   C136 4008   2.671   2.212   1.796 -0.1864 -0.3331 -0.1521
   17MOL   C137 4009   2.732   2.318   1.710  0.0280 -0.0461  0.1921
   17MOL   H138 4010   2.426   2.261   1.771  0.1451 -0.3207  0.1122
   17MOL   H139 4011   2.416   2.150   1.896 -0.4216  0.3117 -0.0992
   17MOL   H140 4012   2.616   2.382   1.906 -1.7820  0.4681  0.1548
   17MOL   H141 4013   2.606   2.148   1.738 -0.8482 -1.4771  1.7986
   17MOL   H142 4014   2.750   2.147   1.834  1.9026  2.2742  0.2073
   17MOL   H143 4015   2.803   2.374   1.771  0.9993  0.6292 -1.5387
   17MOL   H144 4016   2.795   2.270   1.635  0.4649 -0.3431  0.7469
   17MOL   H145 4017   2.655   2.387   1.675 -0.1263 -0.2093  0.2058
   17MOL   C146 4018   2.628   2.203   2.044 -0.8005  0.1627  0.5692
   17MOL   C147 4019   2.758   2.257   2.098 -0.3096  0.2839 -0.2881
   17MOL   C148 4020   2.824   2.163   2.205 -0.4979 -0.1126 -0.1676
   17MOL   C149 4021   2.741   2.119   2.322  0.7354 -0.5454  0.2256
   17MOL   H150 4022   2.614   2.096   2.030 -0.8439  0.0588  1.3833
   17MOL   H151 4023   2.559   2.217   2.127  0.7568  1.5667  1.6583
   17MOL   H152 4024   2.834   2.264   2.019 -1.7451  0.4067 -1.6868
   17MOL   H153 4025   2.917   2.205   2.243 -1.9485  1.1235  2.1129
   17MOL   H154 4026   2.846   2.071   2.150  0.8876  1.1515 -1.8163
   17MOL   H155 4027   2.788   2.055   2.397  0.3456 -0.6866  0.3526
   17MOL   H156 4028   2.716   2.207   2.381  0.2939 -0.2659 -0.3692
   17MOL   H157 4029   2.661   2.056   2.284  1.5410 -0.4857 -1.5860
   17MOL   C158 4030   2.745   2.407   2.156 -0.2033 -0.2437  0.0537
   17MOL   C159 4031   2.876   2.481   2.202 -0.1115 -0.1542  0.2191
   17MOL   C160 4032   2.848   2.614   2.288  0.2045 -0.1586  0.0315
   17MOL   C161 4033   2.795   2.577   2.426  0.0589  0.8455  0.4008
   17MOL   H162 4034   2.683   2.394   2.245  0.1751  0.6869  0.4574
   17MOL   H163 4035   2.681   2.474   2.098 -0.7039 -1.3495 -0.7046
   17MOL   H164 4036   2.931   2.416   2.271 -2.3920 -0.3501  1.9173
   17MOL   H165 4037   2.783   2.682   2.234  0.5842 -0.2193 -0.5082
   17MOL   H166 4038   2.938   2.675   2.296  0.3383 -0.1433 -1.4759
   17MOL   H167 4039   2.708   2.511   2.428 -0.1629  1.1279  0.2068
   17MOL   H168 4040   2.869   2.531   2.491  1.8311 -0.2209 -2.2646
   17MOL   H169 4041   2.751   2.668   2.467 -4.3573 -0.0592 -1.9165
   17MOL   C170 4042   2.964   2.508   2.078 -0.6447 -0.3664  0.3145
   17MOL   C171 4043   3.113   2.555   2.111  0.0844  0.1536  0.1765
   17MOL   C172 4044   3.188   2.570   1.985 -0.5086  0.1127  0.7847
   17MOL   C173 4045   3.151   2.697   1.898  0.1662  0.3082 -0.3265
   17MOL   H174 4046   2.916   2.583   2.016  2.1856  0.2992 -1.1870
   17MOL   H175 4047   2.978   2.412   2.029  0.5413 -0.6535  1.1823
   17MOL   H176 4048   3.124   2.640   2.178 -1.5079 -1.4666  2.5917
   17MOL   H177 4049   3.174   2.478   1.928  1.1464  0.8438 -0.8430
   17MOL   H178 4050   3.294   2.569   2.012 -0.4121 -1.1029  0.3870
   17MOL   H179 4051   3.205   2.685   1.804  1.6842  0.5833  0.4994
   17MOL   H180 4052   3.049   2.709   1.862 -0.5244  0.1214  1.4956
   17MOL   H181 4053   3.181   2.788   1.950 -0.3879  2.3798 -3.5229
   17MOL   C182 4054   3.188   2.442   2.192  0.0523  0.2457 -0.2728
   17MOL   C183 4055   3.196   2.450   2.343  0.8499  0.1288 -0.4914
   17MOL   C184 4056   3.285   2.562   2.401  0.0855  0.5175  0.0738
   17MOL   C185 4057   3.436   2.563   2.364  0.5039  0.0896 -0.2040
   17MOL   H186 4058   3.294   2.439   2.168 -0.1651 -0.0288 -1.2398
   17MOL   H187 4059   3.158   2.342   2.160 -0.4320 -0.3125  1.8618
   17MOL   H188 4060   3.101   2.478   2.389 -1.5002 -1.3268 -4.1949
   17MOL   H189 4061   3.269   2.563   2.509 -1.1931  0.3639 -0.1117
   17MOL   H190 4062   3.236   2.657   2.382 -0.4580  0.2523  0.1397
   17MOL   H191 4063   3.456   2.583   2.259  0.9866  2.7085  0.3472
   17MOL   H192 4064   3.487   2.649   2.409  1.1607 -0.0532 -0.6656
   17MOL   H193 4065   3.486   2.467   2.374  1.0373  0.3154 -0.6524
   17MOL   C194 4066   3.233   2.308   2.389 -0.3518  0.4525  0.5599
   17MOL   C195 4067   3.206   2.285   2.547  0.8098 -0.0629 -0.0630
   17MOL   C196 4068   3.318   2.206   2.611  0.0442  0.1057 -0.0544
   17MOL   C197 4069   3.322   2.056   2.552 -0.0792 -0.3882  0.1283
   17MOL   H198 4070   3.342   2.297   2.381 -0.0640  2.7909  1.0577
   17MOL   H199 4071   3.193   2.230   2.325  1.4921 -0.1231  0.0580
   17MOL   H200 4072   3.208   2.384   2.594 -0.3572  0.9340 -2.0417
   17MOL   H201 4073   3.289   2.197   2.716  0.5826  3.0986  0.3988
   17MOL   H202 4074   3.413   2.259   2.622  0.2918 -0.4978  0.8561
   17MOL   H203 4075   3.394   2.001   2.613  0.3172  0.6452  0.6233
   17MOL   H204 4076   3.222   2.016   2.544 -0.3561 -0.0276  1.6792
   17MOL   H205 4077   3.343   2.060   2.445  0.1311  1.0766  0.2071
   17MOL   C206 4078   3.063   2.226   2.563 -0.3502  0.2550 -0.1767
   17MOL   C207 4079   3.004   2.204   2.710 -0.5004 -0.1309 -0.3120
   17MOL   C208 4080   2.878   2.124   2.698  0.5440 -0.0728 -0.0289
   17MOL   C209 4081   2.910   1.976   2.704 -0.2197 -0.2570  0.3365
   17MOL   H210 4082   3.062   2.133   2.507 -0.8636 -0.4372  0.9748
   17MOL   H211 4083   3.002   2.306   2.521 -1.0989  0.3794  1.1163
   17MOL   H212 4084   3.071   2.151   2.777 -0.8058  0.5178  0.5100
   17MOL   H213 4085   2.817   2.146   2.610  0.9480 -0.5985 -0.4434
   17MOL   H214 4086   2.812   2.150   2.781  1.3456  0.3852  0.4611
   17MOL   H215 4087   2.815   1.928   2.731 -1.3285  1.3693 -0.6236
   17MOL   H216 4088   2.952   1.933   2.613 -0.9461 -0.4688  0.0911
   17MOL   H217 4089   2.988   1.963   2.779  0.3180  0.1398 -0.1602
   17MOL   C218 4090   3.000   2.342   2.775  0.0254 -0.5966  0.7837
   17MOL   C219 4091   2.954   2.352   2.925 -0.9801 -0.6334 -0.2220
   17MOL   C220 4092   2.824   2.439   2.943  0.2536  0.1063  0.8436
   17MOL   C221 4093   2.690   2.411   2.861  0.5410 -0.6661 -0.1476
   17MOL   H222 4094   2.945   2.403   2.703 -1.4562 -1.4458  1.1833
   17MOL   H223 4095   3.109   2.354   2.777 -0.0868  0.4102  1.6227
   17MOL   H224 4096   2.921   2.253   2.953  1.2048 -1.0847  0.8761
   17MOL   H225 4097   2.863   2.540   2.926 -1.7187  1.0998  2.0194
   17MOL   H226 4098   2.790   2.440   3.047  0.4101 -1.8797  0.9299
   17MOL   H227 4099   2.667   2.304   2.853  0.3976 -0.5671 -1.0472
   17MOL   H228 4100   2.599   2.455   2.901  2.2633  3.0222 -0.0827
   17MOL   H229 4101   2.698   2.455   2.762  0.0202 -0.9141 -0.3031
   17MOL   C230 4102   3.071   2.396   3.019 -0.2923 -0.1671 -0.3853
   17MOL   C231 4103   3.164   2.281   3.061  0.8540  0.0632 -0.0085
   17MOL   C232 4104   3.292   2.325   3.145  1.0137 -0.1137 -0.1529
   17MOL   C233 4105   3.375   2.200   3.175 -0.2080  0.1002  0.5912
   17MOL   H234 4106   3.019   2.436   3.105  1.2766 -2.2873  1.6215
   17MOL   H235 4107   3.125   2.481   2.977  1.1508 -1.4010 -1.0926
   17MOL   H236 4108   3.106   2.207   3.117 -0.0380 -0.1270 -1.1528
   17MOL   H237 4109   3.263   2.362   3.244  0.9040 -2.1896  0.6157
   17MOL   H238 4110   3.352   2.398   3.092  1.0644 -0.3091 -0.3635
   17MOL   H239 4111   3.455   2.238   3.239  0.2559  2.4296 -1.2945
   17MOL   H240 4112   3.326   2.121   3.233 -2.3656  0.2890 -0.9365
   17MOL   H241 4113   3.416   2.162   3.082 -1.5567 -1.9594  0.7875
   17MOL   H242 4114   3.192   2.220   2.975 -1.7615 -1.1373 -0.0715
   18MOL     C1 4115   0.041   0.709   3.503  0.0874  0.4647 -0.2525
   18MOL     C2 4116   7.673   0.812   3.591 -0.0319  0.1401  0.2403
   18MOL     C3 4117   7.653   0.947   3.514 -0.3619 -0.2696 -0.0991
   18MOL     C4 4118   7.551   0.932   3.403  0.3143  0.3013  0.5215
   18MOL     H5 4119   7.695   0.680   3.412  0.7115 -1.1039 -0.1159
   18MOL     H6 4120   0.146   0.726   3.479 -0.0133 -0.6931 -1.5672
   18MOL     H7 4121   7.578   0.765   3.617  0.8854 -0.7650  2.0817
   18MOL     H8 4122   0.041   0.964   3.462 -0.6850  1.5675 -0.1340
   18MOL     H9 4123   7.634   1.025   3.587  2.2340 -0.7706  1.1648
   18MOL    H10 4124   7.584   0.861   3.327 -0.1348 -0.8259  1.3790
   18MOL    H11 4125   7.448   0.907   3.429  0.0844 -1.4668 -1.8724
   18MOL    H12 4126   7.552   1.023   3.341  3.1936  1.2620  1.9160
   18MOL    H13 4127   0.052   0.614   3.555 -2.1359 -1.3621 -3.0073
   18MOL    C14 4128   0.042   0.832   3.730  0.6650  0.1170 -0.3553
   18MOL    C15 4129   0.032   0.716   3.835 -1.0043 -0.4187 -0.6183
   18MOL    C16 4130   7.650   0.764   3.960 -0.6549  0.2253  0.2769
   18MOL    C17 4131   0.011   0.855   4.058 -0.4377  0.3896  0.5656
   18MOL    H18 4132   0.005   0.919   3.783  1.2585  0.3502 -0.3150
   18MOL    H19 4133   0.146   0.857   3.707  0.9230 -1.8780 -1.4586
   18MOL    H20 4134   7.677   0.639   3.788  0.6539 -1.8314 -0.4814
   18MOL    H21 4135   7.608   0.680   4.015 -1.0605  0.1248 -0.1826
   18MOL    H22 4136   7.560   0.814   3.925 -1.0052 -1.0097 -0.6445
   18MOL    H23 4137   0.083   0.794   4.113 -0.7627  0.6029  1.2303
   18MOL    H24 4138   0.068   0.939   4.019  0.9888  0.0399  1.7935
   18MOL    H25 4139   7.646   0.896   4.130 -0.2433 -0.0179  0.9945
   18MOL    C26 4140   0.165   0.651   3.875  0.6610  0.5452  0.0922
   18MOL    C27 4141   0.165   0.531   3.976 -0.4968  0.1975  0.7251
   18MOL    C28 4142   0.309   0.493   4.020 -0.5390 -0.1237  0.0746
   18MOL    C29 4143   0.377   0.600   4.107 -0.6320  0.4293 -0.5963
   18MOL    H30 4144   0.221   0.739   3.906 -2.0331  2.6946 -0.9417
   18MOL    H31 4145   0.224   0.626   3.788 -2.6171  1.5593 -2.5445
   18MOL    H32 4146   0.118   0.572   4.065  2.5301 -0.7230  2.8144
   18MOL    H33 4147   0.372   0.468   3.934 -2.7362  1.6288 -2.0874
   18MOL    H34 4148   0.300   0.405   4.084  0.2020 -0.2299  0.0449
   18MOL    H35 4149   0.313   0.633   4.189  0.6773  4.2576 -0.9728
   18MOL    H36 4150   0.464   0.562   4.161 -0.7406  0.3983 -0.4448
   18MOL    H37 4151   0.405   0.688   4.049  1.3147  0.3200  0.1275
   18MOL    C38 4152   0.087   0.401   3.926  0.6009  0.0477  0.2221
   18MOL    C39 4153   7.669   0.376   4.018 -0.1495  0.1783  0.0086
   18MOL    C40 4154   0.008   0.314   4.151 -0.2684 -0.3647  0.7048
   18MOL    C41 4155   7.599   0.279   4.248 -0.3815 -0.1473 -0.7065
   18MOL    H42 4156   0.145   0.308   3.922 -0.3022 -0.6799  2.9494
   18MOL    H43 4157   0.060   0.421   3.822 -1.7435 -0.0361  0.7892
   18MOL    H44 4158   7.620   0.467   4.051 -1.6259 -0.8302  0.6728
   18MOL    H45 4159   0.075   0.382   4.203  1.0076 -0.5913 -0.6066
   18MOL    H46 4160   0.063   0.225   4.121  0.8596  0.8529 -0.8765
   18MOL    H47 4161   7.523   0.356   4.259  0.0626  0.0573  1.0334
   18MOL    H48 4162   7.548   0.191   4.211 -1.4682 -0.1834  0.8261
   18MOL    H49 4163   7.640   0.263   4.348 -2.8494 -2.2742  0.0241
   18MOL    C50 4164   7.572   0.287   3.940 -0.2176  0.5565 -0.2903
   18MOL    C51 4165   7.492   0.354   3.829  0.3729  0.0215  0.4594
   18MOL    C52 4166   7.396   0.460   3.883  0.2100 -0.3203  0.0260
   18MOL    C53 4167   7.313   0.529   3.774  0.4757  0.2909  0.1188
   18MOL    H54 4168   7.488   0.248   3.997  0.6529 -0.7295  0.1354
   18MOL    H55 4169   7.635   0.206   3.902  1.1143  0.2091  2.5659
   18MOL    H56 4170   7.567   0.399   3.763  1.2447 -0.6225  1.0033
   18MOL    H57 4171   7.451   0.538   3.936 -1.1709 -0.4844  1.7303
   18MOL    H58 4172   7.333   0.408   3.955  0.0836  1.3788  1.1610
   18MOL    H59 4173   7.229   0.483   3.723  0.3617  1.5950 -0.9074
   18MOL    H60 4174   7.286   0.622   3.824  1.7331  0.4370  0.5591
   18MOL    H61 4175   7.379   0.559   3.692 -0.5785  3.0956  0.2572
   18MOL    C62 4176   7.421   0.252   3.741 -0.3927  0.0282  0.2442
   18MOL    C63 4177   7.515   0.174   3.645 -0.2385  0.7447 -0.1704
   18MOL    C64 4178   7.544   0.256   3.511  0.5326 -0.2376 -0.0989
   18MOL    C65 4179   7.421   0.277   3.421 -0.4999  0.1097 -0.2268
   18MOL    H66 4180   7.346   0.299   3.677 -0.2950 -1.2115 -0.7705
   18MOL    H67 4181   7.375   0.172   3.800 -1.0556  0.4368  0.2890
   18MOL    H68 4182   7.610   0.159   3.698 -0.8325  0.9011  0.9582
   18MOL    H69 4183   7.624   0.207   3.456  1.0258 -2.4882  2.5190
   18MOL    H70 4184   7.589   0.352   3.537  0.7081  0.1897 -1.9136
   18MOL    H71 4185   7.445   0.312   3.320 -2.1770 -0.9574 -1.0200
   18MOL    H72 4186   7.368   0.184   3.401 -0.1187 -0.3880  1.0548
   18MOL    H73 4187   7.346   0.344   3.463 -1.0564  0.6519 -2.0199
   18MOL    C74 4188   7.453   0.030   3.621 -0.0016 -0.1622  0.0492
   18MOL    C75 4189   7.550   7.639   3.550 -0.0652  0.4866 -0.1575
   18MOL    C76 4190   7.477   7.586   3.427  0.5639  0.3617  0.7277
   18MOL    C77 4191   7.569   7.524   3.322 -0.0894 -0.2820 -0.3697
   18MOL    H78 4192   7.357   0.042   3.572 -0.3481 -3.0935 -0.0878
   18MOL    H79 4193   7.421   7.691   3.714 -2.1990  2.8880  0.8484
   18MOL    H80 4194   7.635   7.698   3.515  2.7466 -0.5275  4.5870
   18MOL    H81 4195   7.411   7.657   3.377  1.8712  0.9966 -0.1245
   18MOL    H82 4196   7.406   7.507   3.450  0.9822 -0.6448 -1.2802
   18MOL    H83 4197   7.658   7.585   3.305 -1.3113  1.2569 -1.4351
   18MOL    H84 4198   7.604   7.426   3.353 -0.6183  0.1046  1.5643
   18MOL    H85 4199   7.537   7.528   3.218  2.6069  0.9601 -1.2067
   18MOL    C86 4200   7.590   7.523   3.655 -0.0793 -0.3185 -0.1607
   18MOL    C87 4201   7.681   7.558   3.782  0.7203  0.0940  0.5586
   18MOL    C88 4202   0.119   7.592   3.737  0.3750 -0.1262 -0.6776
   18MOL    C89 4203   0.192   7.676   3.849 -0.2828 -0.5362  0.5301
   18MOL    H90 4204   7.656   7.447   3.614 -0.8526 -1.7819  1.2459
   18MOL    H91 4205   7.500   7.466   3.678 -1.8150  1.6485 -1.7404
   18MOL    H92 4206   7.643   7.652   3.821  4.8996  1.8161  0.7292
   18MOL    H93 4207   0.113   7.656   3.649 -0.9179  2.1260  1.0106
   18MOL    H94 4208   0.177   7.502   3.718 -2.4784 -2.6802  2.1657
   18MOL    H95 4209   0.140   0.065   3.858  0.1393 -0.0758 -1.7822
   18MOL    H96 4210   0.194   7.615   3.940 -0.0387  0.4923  1.2162
   18MOL    H97 4211   0.295   7.694   3.820 -0.6266 -1.9670 -1.7058
   18MOL    C98 4212   7.680   7.445   3.895  0.4225  1.1811 -0.1257
   18MOL    C99 4213   7.548   7.397   3.960 -0.2088 -0.2292 -0.3707
   18MOL   C100 4214   7.453   7.517   4.006  0.3585  0.6439  0.0017
   18MOL   C101 4215   7.492   7.597   4.124  0.2189 -0.2622 -0.8027
   18MOL   H102 4216   0.046   7.478   3.970  3.6843 -0.8673 -2.2379
   18MOL   H103 4217   0.033   7.363   3.854 -1.6887 -0.2141 -0.4429
   18MOL   H104 4218   7.498   7.351   3.875  1.3553  0.3104 -1.6050
   18MOL   H105 4219   7.363   7.460   4.026  1.3885 -0.7989  0.5879
   18MOL   H106 4220   7.438   7.587   3.923  0.1758 -2.1672 -2.4167
   18MOL   H107 4221   7.532   7.544   4.211 -1.7643 -1.0184 -0.3229
   18MOL   H108 4222   7.574   7.662   4.094 -1.7033  2.2333 -0.8373
   18MOL   H109 4223   7.408   7.653   4.165  2.1607  0.7866  1.9799
   18MOL   C110 4224   7.569   7.294   4.078 -0.0188  0.1523  0.8000
   18MOL   C111 4225   7.591   7.154   4.013  0.3517 -0.1566 -0.2259
   18MOL   C112 4226   7.463   7.092   3.949  0.0063  0.3511 -0.3957
   18MOL   C113 4227   7.335   7.075   4.039 -0.1684 -0.0379  0.2840
   18MOL   H114 4228   7.479   7.295   4.140  0.0030  0.5317  0.8283
   18MOL   H115 4229   7.648   7.316   4.149  0.5401  0.7079  0.0149
   18MOL   H116 4230   7.662   7.160   3.931 -0.8959  0.4748 -1.2673
   18MOL   H117 4231   7.500   6.996   3.911  0.0997  0.1933  0.0977
   18MOL   H118 4232   7.435   7.149   3.860 -1.9940  1.8544  1.1450
   18MOL   H119 4233   7.320   7.159   4.107 -0.7805  0.7892 -0.8645
   18MOL   H120 4234   7.243   7.059   3.982  0.5011  1.4131 -1.2540
   18MOL   H121 4235   7.348   6.993   4.109  0.5815 -1.0332 -1.0029
   18MOL   C122 4236   7.657   7.039   4.109  0.1015 -0.0554  0.1494
   18MOL   C123 4237   0.076   7.078   4.196 -0.1973 -0.7583 -0.6543
   18MOL   C124 4238   0.182   7.143   4.110  0.2888  0.4067  0.3909
   18MOL   C125 4239   0.288   7.208   4.196 -0.1611 -0.8481  0.3234
   18MOL   H126 4240   7.682   6.950   4.051 -3.6026 -1.1450  0.0637
   18MOL   H127 4241   7.577   7.015   4.179 -0.8112  1.0004 -0.5077
   18MOL   H128 4242   0.040   7.158   4.260 -1.1084 -2.5624  1.1711
   18MOL   H129 4243   0.143   7.227   4.051 -1.4225  0.1995  1.2288
   18MOL   H130 4244   0.231   7.078   4.038 -0.2076 -0.1333  0.5425
   18MOL   H131 4245   0.238   7.251   4.284 -0.8568 -2.3679  0.6984
   18MOL   H132 4246   0.364   7.139   4.231  0.0506 -1.5256 -1.4501
   18MOL   H133 4247   0.337   7.289   4.141 -0.4010  0.3782  1.8632
   18MOL   C134 4248   0.130   6.956   4.270  0.3273  0.1460  0.4796
   18MOL   C135 4249   0.044   6.928   4.400  0.0858  0.1143  0.1010
   18MOL   C136 4250   0.074   7.013   4.520 -0.2761 -0.5746 -0.3520
   18MOL   C137 4251   0.220   7.009   4.572 -0.1871  0.6475  0.2810
   18MOL   H138 4252   0.232   6.961   4.307  0.2748 -1.6490  0.9119
   18MOL   H139 4253   0.118   6.869   4.205  1.6020  0.7799 -0.6329
   18MOL   H140 4254   7.645   6.946   4.375 -0.3726 -0.9515  1.2057
   18MOL   H141 4255   0.003   6.991   4.600  0.7921 -0.5594  0.5991
   18MOL   H142 4256   0.059   7.120   4.503  3.5851  0.0439 -0.2628
   18MOL   H143 4257   0.245   7.100   4.628  0.3957 -0.0037  1.0903
   18MOL   H144 4258   0.229   6.918   4.630 -0.1589 -0.6873 -1.7759
   18MOL   H145 4259   0.294   7.013   4.492  0.9925 -0.7376  1.2789
   18MOL   C146 4260   0.039   6.788   4.457 -0.5083 -0.5640  0.1925
   18MOL   C147 4261   7.669   6.676   4.379  0.0750  0.6450  0.6538
   18MOL   C148 4262   7.518   6.705   4.388  0.2074  0.2633  0.2378
   18MOL   C149 4263   7.423   6.658   4.277 -0.2722  0.3298  0.1721
   18MOL   H150 4264   0.009   6.785   4.562  0.5215  1.9328  0.5816
   18MOL   H151 4265   0.143   6.759   4.470 -0.1302  1.3093  1.4919
   18MOL   H152 4266   7.705   6.678   4.276 -2.1953  1.0231 -0.1610
   18MOL   H153 4267   7.495   6.809   4.407 -1.8014 -0.0039 -0.6319
   18MOL   H154 4268   7.480   6.658   4.479 -0.6433  1.2133  0.3716
   18MOL   H155 4269   7.425   6.731   4.196 -0.5875  1.0830  0.8260
   18MOL   H156 4270   7.440   6.560   4.234 -0.1345  0.0798  0.7913
   18MOL   H157 4271   7.318   6.652   4.309 -0.1966 -0.0829  0.3442
   18MOL   C158 4272   7.697   6.539   4.428 -0.5239  0.2208  0.2888
   18MOL   C159 4273   0.129   6.484   4.405 -0.6423 -0.2071 -0.7121
   18MOL   C160 4274   0.141   6.435   4.256 -0.5502  0.3501  0.0430
   18MOL   C161 4275   0.288   6.409   4.215 -0.1484 -0.1532  0.3547
   18MOL   H162 4276   7.627   6.463   4.391  0.2557  0.4468 -1.7409
   18MOL   H163 4277   7.666   6.541   4.532 -3.1380  2.6480 -0.4839
   18MOL   H164 4278   0.204   6.560   4.426 -1.2834 -0.0812  1.2469
   18MOL   H165 4279   0.085   6.498   4.187 -0.7403  1.9260  1.6037
   18MOL   H166 4280   0.088   6.340   4.251  1.1947 -0.7347  1.6091
   18MOL   H167 4281   0.292   6.378   4.110  2.1008 -0.2210  0.4411
   18MOL   H168 4282   0.368   6.482   4.228 -0.5663  0.8631 -2.3908
   18MOL   H169 4283   0.314   6.322   4.274  1.3216  0.1891  0.2229
   18MOL   C170 4284   0.154   6.366   4.509 -0.9254 -0.2336  0.0766
   18MOL   C171 4285   0.167   6.402   4.664 -0.2776  0.4613 -0.2591
   18MOL   C172 4286   0.289   6.488   4.696  0.3599 -0.0173 -0.9056
   18MOL   C173 4287   0.290   6.634   4.661 -0.5035  1.4429 -0.5027
   18MOL   H174 4288   0.248   6.315   4.487 -1.0387  0.4967 -2.1898
   18MOL   H175 4289   0.079   6.289   4.494 -1.4632  0.6902 -2.2253
   18MOL   H176 4290   0.082   6.463   4.695 -0.0176  1.2525 -1.0964
   18MOL   H177 4291   0.380   6.434   4.671 -0.4128 -2.8945  2.0013
   18MOL   H178 4292   0.287   6.482   4.805  1.4870  1.8189 -0.7803
   18MOL   H179 4293   0.348   6.687   4.736 -1.2741  1.6348 -0.0344
   18MOL   H180 4294   0.329   6.658   4.562 -0.2986 -2.3615 -1.4595
   18MOL   H181 4295   0.191   6.677   4.649 -0.6336  1.0546 -0.8685
   18MOL   C182 4296   0.159   6.264   4.748 -0.2163 -0.4311 -0.1590
   18MOL   C183 4297   0.116   6.275   4.896  0.0192 -0.1811  0.4754
   18MOL   C184 4298   0.154   6.145   4.965 -0.0516 -0.4180 -0.0317
   18MOL   C185 4299   0.301   6.102   4.974 -0.4719 -0.6479 -0.2702
   18MOL   H186 4300   0.263   6.231   4.750  0.0512  0.2971 -1.1342
   18MOL   H187 4301   0.097   6.186   4.703 -1.3042 -0.3408  1.1605
   18MOL   H188 4302   0.173   6.352   4.948  2.5923 -1.2947 -0.6502
   18MOL   H189 4303   0.106   6.057   4.922 -0.5906 -1.3611  2.3961
   18MOL   H190 4304   0.106   6.147   5.063 -2.5582  0.5068 -1.2496
   18MOL   H191 4305   0.352   6.090   4.878  0.7153  0.5167  0.1908
   18MOL   H192 4306   0.356   6.179   5.028 -0.4883 -0.4592 -0.5204
   18MOL   H193 4307   0.311   6.015   5.038  1.9328 -0.6953 -0.6723
   18MOL   C194 4308   7.673   6.309   4.905  0.2879 -0.2382  0.1154
   18MOL   C195 4309   7.628   6.356   5.043 -0.3936 -0.4354 -0.0031
   18MOL   C196 4310   7.492   6.305   5.083 -0.0701 -0.3604  0.4306
   18MOL   C197 4311   7.447   6.318   5.223  0.0588  0.4444 -0.9214
   18MOL   H198 4312   7.612   6.221   4.884 -0.5281  0.5989 -1.0062
   18MOL   H199 4313   7.643   6.382   4.830  0.6957  0.0637  0.2444
   18MOL   H200 4314   7.695   6.312   5.117 -0.1833 -0.1748 -0.0372
   18MOL   H201 4315   7.483   6.199   5.058  0.4640  0.1797 -2.2154
   18MOL   H202 4316   7.410   6.349   5.026  1.0353  2.4293  0.9268
   18MOL   H203 4317   7.360   6.255   5.242 -0.6298  1.3759 -0.9663
   18MOL   H204 4318   7.523   6.268   5.284 -0.5821 -0.1007 -0.5613
   18MOL   H205 4319   7.422   6.419   5.255  1.2716  0.5169 -0.1561
   18MOL   C206 4320   7.624   6.508   5.053  0.2675  0.0244 -0.0148
   18MOL   C207 4321   0.060   6.586   5.050  0.6864  0.2372  0.1391
   18MOL   C208 4322   0.156   6.543   5.160 -0.4242  0.7026 -0.0522
   18MOL   C209 4323   0.303   6.572   5.147  0.2495  0.8250 -0.1544
   18MOL   H210 4324   7.593   6.532   5.155 -0.9703  2.1909 -0.8635
   18MOL   H211 4325   7.550   6.546   4.982 -0.3391 -0.9710  0.0791
   18MOL   H212 4326   0.098   6.579   4.948  1.9514  0.6091  0.5792
   18MOL   H213 4327   0.148   6.434   5.169  2.6845  0.2609 -1.8018
   18MOL   H214 4328   0.118   6.578   5.256  0.9539 -3.6063  2.2374
   18MOL   H215 4329   0.335   6.674   5.126  0.3227  1.5127  3.0276
   18MOL   H216 4330   0.347   6.550   5.245 -3.4251 -3.0161  0.7731
   18MOL   H217 4331   0.341   6.511   5.065 -4.7515  2.2882 -3.7874
   18MOL   C218 4332   0.043   6.743   5.052  0.0388  0.4540 -0.0500
   18MOL   C219 4333   7.625   6.813   4.982  0.3801  0.0203 -0.4117
   18MOL   C220 4334   7.609   6.785   4.829  0.3218  0.1918  0.3173
   18MOL   C221 4335   7.466   6.810   4.774 -0.2410  0.1131  1.0859
   18MOL   H222 4336   0.138   6.781   5.015  0.6727 -0.2973  0.7964
   18MOL   H223 4337   0.040   6.770   5.158  2.8571 -1.6265  0.6090
   18MOL   H224 4338   7.531   6.783   5.029 -0.3833  1.7609 -0.7785
   18MOL   H225 4339   7.643   6.684   4.806  1.7109  0.7755 -0.2246
   18MOL   H226 4340   7.672   6.851   4.769 -1.0144 -1.1554 -2.6516
   18MOL   H227 4341   7.464   6.754   4.681 -0.8632  1.0793  0.5094
   18MOL   H228 4342   7.389   6.770   4.841 -1.6873 -1.5497 -1.4711
   18MOL   H229 4343   7.443   6.912   4.745 -4.8418 -1.3019 -0.7999
   18MOL   C230 4344   7.628   6.965   5.018 -0.4526  0.0162 -0.2546
   18MOL   C231 4345   7.634   7.006   5.164  0.0555  0.4480  0.4235
   18MOL   C232 4346   7.606   7.162   5.163 -0.2272  0.3543  0.0986
   18MOL   C233 4347   7.617   7.235   5.300 -0.0029  0.3541  0.0859
   18MOL   H234 4348   7.534   7.000   4.975 -0.4281 -0.5212 -0.7524
   18MOL   H235 4349   7.704   7.016   4.959  1.9853 -2.1135  0.9755
   18MOL   H236 4350   7.567   6.952   5.229 -0.5551 -1.6527 -1.8857
   18MOL   H237 4351   7.506   7.193   5.130  0.1625 -0.1023 -1.5732
   18MOL   H238 4352   7.682   7.207   5.099  2.0837 -0.1412  2.4389
   18MOL   H239 4353   7.551   7.187   5.372  0.0072  0.9804  0.5212
   18MOL   H240 4354   0.013   7.224   5.335  0.4393 -1.3358 -1.6516
   18MOL   H241 4355   7.601   7.343   5.309 -0.9352  0.1064  1.8002
   18MOL   H242 4356   0.030   6.991   5.201 -0.0049  0.0155  0.4169
   19MOL     C1 4357   4.815   3.266   1.333 -0.3241  0.0276 -0.2847
   19MOL     C2 4358   4.925   3.308   1.226  0.0724 -0.7655 -0.1774
   19MOL     C3 4359   4.927   3.461   1.195  0.8106 -0.3306  0.1320
   19MOL     C4 4360   4.980   3.545   1.313  0.6593  0.2105 -0.3237
   19MOL     H5 4361   4.825   3.162   1.363 -3.2324 -0.0128  0.6914
   19MOL     H6 4362   4.819   3.323   1.426  1.8512 -1.1347  0.3467
   19MOL     H7 4363   5.026   3.285   1.260  0.1049 -2.0860 -1.1099
   19MOL     H8 4364   4.825   3.493   1.173  0.9010 -0.9725 -1.3078
   19MOL     H9 4365   4.981   3.484   1.103  0.2147 -1.7448 -0.5884
   19MOL    H10 4366   5.087   3.529   1.324  0.7377  0.2724 -0.9947
   19MOL    H11 4367   4.956   3.648   1.286 -2.6860 -0.8680 -1.8077
   19MOL    H12 4368   4.936   3.521   1.410  1.8623  1.8322  0.6534
   19MOL    H13 4369   4.716   3.274   1.287  1.2490  1.2860 -3.6772
   19MOL    C14 4370   4.895   3.225   1.096 -0.1216  0.5792  0.0833
   19MOL    C15 4371   4.964   3.091   1.099  0.1488 -0.2146 -0.0436
   19MOL    C16 4372   5.123   3.090   1.130  0.2316  0.9927  0.1019
   19MOL    C17 4373   5.202   3.162   1.020 -0.5641  0.2800 -0.1972
   19MOL    H18 4374   4.915   3.285   1.007 -0.1215  0.0829 -0.2503
   19MOL    H19 4375   4.787   3.208   1.086  0.0620 -0.1438 -0.7834
   19MOL    H20 4376   4.912   3.034   1.176  0.6287 -0.2404  0.2655
   19MOL    H21 4377   5.157   2.986   1.136 -0.6218  0.7085  0.1689
   19MOL    H22 4378   5.146   3.127   1.229 -0.8569  3.3186 -0.4888
   19MOL    H23 4379   5.219   3.096   0.935  0.7412 -1.3849  1.2992
   19MOL    H24 4380   5.148   3.251   0.989  1.5708  2.0157  0.9358
   19MOL    H25 4381   5.303   3.181   1.058 -0.4859  2.1282 -1.2857
   19MOL    C26 4382   4.933   3.013   0.968  0.3815  0.1325 -0.2894
   19MOL    C27 4383   4.787   2.957   0.956 -0.5622  0.4207  0.1099
   19MOL    C28 4384   4.764   2.802   0.975 -0.5714  0.0964  0.7149
   19MOL    C29 4385   4.844   2.709   0.872  0.0473 -0.1012  0.6383
   19MOL    H30 4386   5.002   2.929   0.974  0.1322 -0.0679 -0.2370
   19MOL    H31 4387   4.967   3.065   0.878  1.0468  1.1826  0.5475
   19MOL    H32 4388   4.734   3.002   1.040 -0.6173 -1.8943  1.3640
   19MOL    H33 4389   4.660   2.779   0.954 -0.4320  1.3057 -1.4349
   19MOL    H34 4390   4.786   2.778   1.079 -2.8934 -1.7072  0.8332
   19MOL    H35 4391   4.950   2.716   0.896  0.0726  0.8486  0.2626
   19MOL    H36 4392   4.825   2.602   0.883  1.7471 -0.3291  1.5861
   19MOL    H37 4393   4.823   2.722   0.765  0.0318  0.7605  0.7432
   19MOL    C38 4394   4.737   3.001   0.820 -0.2422 -0.0601 -0.3261
   19MOL    C39 4395   4.703   3.150   0.807 -0.5569 -0.1327  0.7342
   19MOL    C40 4396   4.572   3.188   0.879 -0.0205  1.1305  0.4875
   19MOL    C41 4397   4.565   3.338   0.904  0.2649 -0.2269  0.0716
   19MOL    H42 4398   4.643   2.951   0.799 -0.8015  1.6240 -1.9099
   19MOL    H43 4399   4.803   2.953   0.747  1.4647 -1.1391  1.8626
   19MOL    H44 4400   4.785   3.211   0.847  0.1263  0.3451 -1.3354
   19MOL    H45 4401   4.565   3.136   0.975  1.4080 -1.0391 -0.5519
   19MOL    H46 4402   4.486   3.148   0.826 -0.5037 -0.3534  2.3116
   19MOL    H47 4403   4.475   3.360   0.961  3.0641  0.3623  4.5276
   19MOL    H48 4404   4.639   3.358   0.982 -0.2903 -0.6248  0.6959
   19MOL    H49 4405   4.574   3.409   0.822 -1.8355  1.2560  1.0941
   19MOL    C50 4406   4.687   3.192   0.655  0.5529 -0.8062 -0.0462
   19MOL    C51 4407   4.807   3.163   0.562  0.0883  0.4394 -0.5420
   19MOL    C52 4408   4.914   3.276   0.566  0.5853 -0.1596  0.6105
   19MOL    C53 4409   5.011   3.264   0.679 -0.9449  0.0274 -0.3505
   19MOL    H54 4410   4.657   3.296   0.645  2.0549 -0.2605  0.9326
   19MOL    H55 4411   4.592   3.151   0.619  0.1830 -0.4751  0.5331
   19MOL    H56 4412   4.861   3.071   0.585 -0.1951  0.0989 -1.2368
   19MOL    H57 4413   4.863   3.372   0.555 -1.3728 -1.3319 -0.7731
   19MOL    H58 4414   4.978   3.270   0.479 -0.5712  1.2366 -0.3605
   19MOL    H59 4415   5.097   3.328   0.659  1.2907 -3.3152 -1.7805
   19MOL    H60 4416   4.957   3.287   0.771 -1.4863  0.7403 -0.8352
   19MOL    H61 4417   5.041   3.161   0.698  0.2550  0.6453  1.1944
   19MOL    C62 4418   4.764   3.127   0.415  0.5199  0.2209 -0.2668
   19MOL    C63 4419   4.696   2.997   0.376 -0.2124 -0.4726  0.5819
   19MOL    C64 4420   4.793   2.875   0.394 -0.2762  0.6138  0.3707
   19MOL    C65 4421   4.727   2.733   0.404  0.3605  0.4919  0.1074
   19MOL    H66 4422   4.855   3.138   0.355  2.2222 -1.2714  1.9829
   19MOL    H67 4423   4.703   3.213   0.388  0.6699  1.3493  2.8229
   19MOL    H68 4424   4.610   2.968   0.437 -0.2173 -0.9216  0.3623
   19MOL    H69 4425   4.846   2.894   0.487 -1.1062 -1.9971  1.4476
   19MOL    H70 4426   4.869   2.876   0.317  0.8562  1.7370  1.4888
   19MOL    H71 4427   4.687   2.700   0.308 -1.2239 -0.1935  0.9902
   19MOL    H72 4428   4.809   2.671   0.441  0.2072  0.1741 -0.0817
   19MOL    H73 4429   4.647   2.756   0.475 -0.0709  2.3508 -0.9443
   19MOL    C74 4430   4.634   3.011   0.233 -0.4018  0.0629  0.3280
   19MOL    C75 4431   4.497   3.086   0.220 -0.8157 -0.7644  0.1222
   19MOL    C76 4432   4.385   2.982   0.214  0.3117  0.7707  0.3679
   19MOL    C77 4433   4.368   2.893   0.333  0.2299 -0.6877 -0.1085
   19MOL    H78 4434   4.633   2.923   0.168 -0.9963  1.1878 -1.2277
   19MOL    H79 4435   4.707   3.064   0.171 -1.3644  1.4601  0.3673
   19MOL    H80 4436   4.479   3.153   0.304  1.1630 -0.9721  0.7477
   19MOL    H81 4437   4.402   2.908   0.136 -0.5717  0.5456  0.3853
   19MOL    H82 4438   4.289   3.023   0.181 -0.9420 -2.0553  0.4065
   19MOL    H83 4439   4.461   2.843   0.358  0.7481  1.6974  2.9408
   19MOL    H84 4440   4.347   2.947   0.425  0.9041  0.2771 -0.5118
   19MOL    H85 4441   4.288   2.820   0.318 -1.2891  0.5237  1.8546
   19MOL    C86 4442   4.510   3.165   0.092  0.8944  0.4409 -0.7214
   19MOL    C87 4443   4.585   3.294   0.098 -0.1891 -0.0391 -0.6163
   19MOL    C88 4444   4.494   3.420   0.140 -0.4531  0.1276  0.8961
   19MOL    C89 4445   4.489   3.432   0.297 -0.4335  0.3281 -0.0771
   19MOL    H90 4446   4.407   3.195   0.072  0.0693 -1.9383 -0.2070
   19MOL    H91 4447   4.547   3.105   0.009  0.9697  1.3928 -1.3980
   19MOL    H92 4448   4.659   3.290   0.178 -0.3306 -0.5388 -0.5072
   19MOL    H93 4449   4.395   3.421   0.096 -0.2482  0.5096  0.4409
   19MOL    H94 4450   4.546   3.509   0.105 -0.3552 -0.0671  0.5487
   19MOL    H95 4451   4.455   3.535   0.302 -0.8593  0.2164 -0.6736
   19MOL    H96 4452   4.414   3.364   0.338  0.3609 -0.0440  0.7988
   19MOL    H97 4453   4.584   3.414   0.349 -0.7085 -0.4491  0.1694
   19MOL    C98 4454   4.658   3.322   7.668  0.0287  0.1402 -0.2638
   19MOL    C99 4455   4.782   3.412   7.687 -0.0548 -0.5583 -0.3962
   19MOL   C100 4456   4.807   3.501   7.565  0.1487 -0.4862 -0.1925
   19MOL   C101 4457   4.715   3.625   7.569  0.0562 -0.2923  0.1839
   19MOL   H102 4458   4.584   3.354   7.595 -0.3982  1.8700  0.8935
   19MOL   H103 4459   4.702   3.236   7.618  0.3189  0.0877  0.0764
   19MOL   H104 4460   4.756   3.478   0.063  2.2146 -0.5553  0.3741
   19MOL   H105 4461   4.787   3.438   7.477  0.1343  1.0193 -1.2847
   19MOL   H106 4462   4.911   3.530   7.548  0.1323 -0.6069 -0.5232
   19MOL   H107 4463   4.614   3.602   7.606 -0.0595 -1.8232 -1.0046
   19MOL   H108 4464   4.753   3.707   7.629  0.9829 -0.6631  0.1151
   19MOL   H109 4465   4.700   3.667   7.470 -1.5637  0.0452  0.5551
   19MOL   C110 4466   4.904   3.324   0.016  0.5857  0.3913 -0.5058
   19MOL   C111 4467   5.028   3.386   0.078  0.3331 -0.6443 -0.2491
   19MOL   C112 4468   5.151   3.303   0.060 -0.5163 -0.0800  0.2518
   19MOL   C113 4469   5.174   3.189   0.156 -0.1060 -0.2342  0.3501
   19MOL   H114 4470   4.930   3.259   7.639  0.9744  0.8350 -0.7333
   19MOL   H115 4471   4.862   3.258   0.092  1.7315  1.0613  0.7393
   19MOL   H116 4472   5.043   3.467   0.006 -1.3724 -0.7075 -0.6962
   19MOL   H117 4473   5.247   3.355   0.060 -0.0760 -0.8813  0.6780
   19MOL   H118 4474   5.155   3.264   7.664  1.7492 -0.9663  0.6431
   19MOL   H119 4475   5.086   3.128   0.176 -0.8245  1.1596  1.6344
   19MOL   H120 4476   5.257   3.134   0.114  0.4941  2.0795 -1.5540
   19MOL   H121 4477   5.212   3.227   0.251  0.8816  2.7808 -1.1965
   19MOL   C122 4478   5.022   3.446   0.222  0.2835 -0.3185 -0.5276
   19MOL   C123 4479   4.985   3.598   0.234 -0.1092  0.1507  0.2141
   19MOL   C124 4480   5.112   3.684   0.251  0.5194 -0.0357 -0.2910
   19MOL   C125 4481   5.190   3.706   0.119 -0.3546  0.3528 -0.8305
   19MOL   H126 4482   5.115   3.440   0.277  0.6264  0.7925 -0.9726
   19MOL   H127 4483   4.950   3.393   0.284 -0.5975 -1.1478 -2.2509
   19MOL   H128 4484   4.935   3.625   0.141 -0.2822  1.6511  0.7110
   19MOL   H129 4485   5.185   3.645   0.323  0.0002 -1.3523 -0.4699
   19MOL   H130 4486   5.089   3.787   0.280 -0.2811 -0.6525  1.2993
   19MOL   H131 4487   5.122   3.757   0.050 -0.5053 -0.2714 -1.1436
   19MOL   H132 4488   5.278   3.770   0.129 -0.6048  0.5230  0.3570
   19MOL   H133 4489   5.224   3.607   0.089 -0.5928 -0.1176  0.4551
   19MOL   C134 4490   4.897   3.612   0.355 -0.4003 -0.4601 -0.1308
   19MOL   C135 4491   4.827   3.746   0.375 -1.1390 -0.4786 -0.3878
   19MOL   C136 4492   4.776   3.755   0.519  1.0326  0.2863  0.7072
   19MOL   C137 4493   4.786   3.899   0.574  0.1048  0.0362 -0.2097
   19MOL   H138 4494   4.957   3.594   0.444  0.5215  1.0169 -0.4432
   19MOL   H139 4495   4.821   3.534   0.347 -0.5804 -0.3112  0.1390
   19MOL   H140 4496   4.901   3.826   0.375 -2.2953  0.6534  2.0771
   19MOL   H141 4497   4.832   3.696   0.591  2.2044  0.9727  0.3684
   19MOL   H142 4498   4.671   3.729   0.511  1.2037 -0.1677 -0.1637
   19MOL   H143 4499   4.890   3.931   0.580 -0.3996  1.4881  0.8731
   19MOL   H144 4500   4.726   3.975   0.523 -1.6608 -1.6063 -0.6610
   19MOL   H145 4501   4.735   3.895   0.670 -1.9218  0.3850 -1.2303
   19MOL   C146 4502   4.718   3.770   0.265 -0.8945  0.6018 -0.7937
   19MOL   C147 4503   4.661   3.910   0.228 -0.6076  0.2197 -0.4147
   19MOL   C148 4504   4.551   3.904   0.121 -0.1162  0.8158 -0.3169
   19MOL   C149 4505   4.460   4.027   0.087 -0.8913  0.3516  0.1051
   19MOL   H150 4506   4.636   3.709   0.301 -0.3495  2.0409  3.1163
   19MOL   H151 4507   4.745   3.734   0.165 -0.3735 -0.8901 -0.1239
   19MOL   H152 4508   4.609   3.944   0.318 -1.0542 -1.0268 -0.1935
   19MOL   H153 4509   4.478   3.825   0.140 -2.0040  2.6935  0.5360
   19MOL   H154 4510   4.598   3.874   0.028 -3.1669 -0.8816 -1.3656
   19MOL   H155 4511   4.521   4.114   0.065  1.2627 -1.3231 -0.7930
   19MOL   H156 4512   4.391   3.996   0.008 -0.3215 -3.3710  0.9483
   19MOL   H157 4513   4.402   4.040   0.178  0.0872 -2.8855  1.2450
   19MOL   C158 4514   4.769   4.012   0.180 -0.8725 -0.4234 -0.6647
   19MOL   C159 4515   4.823   4.124   0.272  0.4036 -0.0259 -0.2087
   19MOL   C160 4516   4.709   4.211   0.322 -0.2596  0.3366  0.0036
   19MOL   C161 4517   4.735   4.274   0.454 -0.3934 -0.2663 -0.2073
   19MOL   H162 4518   4.734   4.060   0.089  1.4632 -0.0907 -1.4385
   19MOL   H163 4519   4.853   3.956   0.138 -3.2546 -1.4103 -4.3498
   19MOL   H164 4520   4.873   4.075   0.355 -0.9631  1.4390  1.5314
   19MOL   H165 4521   4.630   4.141   0.349  1.1477 -1.5224 -0.5649
   19MOL   H166 4522   4.664   4.282   0.254 -1.6813 -0.2199  0.3445
   19MOL   H167 4523   4.789   4.368   0.446 -1.3191  0.4110  1.2861
   19MOL   H168 4524   4.636   4.286   0.499 -0.5053 -0.5301 -0.3825
   19MOL   H169 4525   4.793   4.214   0.524 -0.0066  2.3610  1.7935
   19MOL   C170 4526   4.930   4.217   0.214 -0.3216  0.7438 -0.2752
   19MOL   C171 4527   5.058   4.142   0.166  0.2340 -0.4857 -0.4455
   19MOL   C172 4528   5.174   4.174   0.272 -0.5655  0.2517 -0.1586
   19MOL   C173 4529   5.283   4.062   0.267  0.2350  0.0003 -0.7066
   19MOL   H174 4530   4.947   4.299   0.283 -1.2409 -0.2444  1.1708
   19MOL   H175 4531   4.878   4.265   0.131 -1.0327  1.2865  0.4685
   19MOL   H176 4532   5.044   4.034   0.172 -0.1609 -0.3653  0.9187
   19MOL   H177 4533   5.132   4.189   0.371  1.4147 -0.1273  0.7669
   19MOL   H178 4534   5.234   4.260   0.244 -1.6913  0.9372 -0.4930
   19MOL   H179 4535   5.331   4.059   0.170  0.5212  0.3002 -0.5736
   19MOL   H180 4536   5.360   4.070   0.343  0.0818 -2.0159 -0.3125
   19MOL   H181 4537   5.219   3.979   0.295  0.1238  0.1709 -0.4436
   19MOL   C182 4538   5.106   4.190   0.023  0.3160 -0.4241 -0.2713
   19MOL   C183 4539   5.017   4.148   7.613 -0.5112 -1.3370 -0.5513
   19MOL   C184 4540   5.026   3.993   7.581  0.5035 -0.8652  0.4959
   19MOL   C185 4541   4.926   3.951   7.471  0.3602  0.0872 -0.1531
   19MOL   H186 4542   5.203   4.145   0.001  0.3667 -0.2448 -0.4203
   19MOL   H187 4543   5.118   4.298   0.025  0.3777 -0.3894 -1.6901
   19MOL   H188 4544   4.914   4.164   7.642 -0.1848 -1.1516  0.5075
   19MOL   H189 4545   5.018   3.926   7.667 -1.3272 -0.2103  0.8431
   19MOL   H190 4546   5.128   3.970   7.548  0.2437  0.3729 -1.2200
   19MOL   H191 4547   4.825   3.975   7.505  0.1595  1.1966 -1.4627
   19MOL   H192 4548   4.953   3.995   7.375  1.1368 -2.3551 -1.0953
   19MOL   H193 4549   4.932   3.843   7.458  0.4121  0.0651  0.0688
   19MOL   C194 4550   5.044   4.242   7.485 -0.9445  0.3433  0.8073
   19MOL   C195 4551   4.921   4.273   7.396 -0.2180 -0.1415 -0.3930
   19MOL   C196 4552   4.953   4.279   7.248  0.4166  0.4868 -0.3209
   19MOL   C197 4553   5.056   4.389   7.213 -0.0975  0.5827 -0.0382
   19MOL   H198 4554   5.130   4.197   7.437 -0.6904 -0.2175  1.7714
   19MOL   H199 4555   5.078   4.341   7.517 -1.5082  0.7321  0.1998
   19MOL   H200 4556   4.853   4.188   7.403  2.2474 -2.0549  0.8971
   19MOL   H201 4557   4.864   4.299   7.189  0.2783  0.4068 -0.1390
   19MOL   H202 4558   4.996   4.184   7.216 -0.1747 -0.7013  2.3051
   19MOL   H203 4559   5.038   4.491   7.247 -1.3101  0.7983 -1.2996
   19MOL   H204 4560   5.155   4.359   7.250 -1.2346  1.7394  4.2505
   19MOL   H205 4561   5.059   4.387   7.104 -0.3087  1.0701 -0.0511
   19MOL   C206 4562   4.841   4.394   7.453 -0.1600 -0.5588  0.1133
   19MOL   C207 4563   4.695   4.408   7.403 -0.0368 -0.2680  0.3272
   19MOL   C208 4564   4.650   4.557   7.411 -0.4177 -0.1697  0.5173
   19MOL   C209 4565   4.727   4.650   7.319  0.0814  0.2502  0.0152
   19MOL   H210 4566   4.904   4.483   7.462 -0.3846 -0.1172 -2.3017
   19MOL   H211 4567   4.829   4.359   7.555 -2.5007 -0.6951 -0.1776
   19MOL   H212 4568   4.696   4.399   7.294  1.4334  0.7250  0.2418
   19MOL   H213 4569   4.642   4.602   7.511 -2.0187  1.9883 -0.5243
   19MOL   H214 4570   4.548   4.536   7.380 -1.2699  1.1079  2.3682
   19MOL   H215 4571   4.711   4.627   7.214 -0.8382 -1.1519  0.4453
   19MOL   H216 4572   4.688   4.752   7.329  0.9532  0.8634 -2.4777
   19MOL   H217 4573   4.831   4.662   7.347  0.7219 -2.3195 -1.1693
   19MOL   C218 4574   4.599   4.318   7.474  0.8375 -0.4467 -0.0510
   19MOL   C219 4575   4.476   4.271   7.392  0.5076  0.5615  0.0552
   19MOL   C220 4576   4.378   4.185   7.471 -0.3569  0.3485  1.1813
   19MOL   C221 4577   4.248   4.142   7.406  0.3039  0.5760  0.3191
   19MOL   H222 4578   4.561   4.370   7.561  0.8594  1.2669 -1.0392
   19MOL   H223 4579   4.652   4.228   7.504  1.7889  0.3830  0.8036
   19MOL   H224 4580   4.416   4.359   7.370 -0.0026  0.0776 -0.5069
   19MOL   H225 4581   4.347   4.249   7.554  0.0477  0.1010  1.5261
   19MOL   H226 4582   4.426   4.098   7.514  0.8425  1.1496  1.5091
   19MOL   H227 4583   4.166   4.131   7.478 -1.0849  1.3104 -1.1114
   19MOL   H228 4584   4.205   4.203   7.326 -1.5095  0.6711  1.3297
   19MOL   H229 4585   4.262   4.046   7.358  0.2071 -0.1736  1.7513
   19MOL   C230 4586   4.521   4.196   7.265  0.3865 -0.3343  0.2195
   19MOL   C231 4587   4.580   4.050   7.284 -0.4222  0.4353  0.0072
   19MOL   C232 4588   4.652   3.980   7.171  0.6474 -0.1463  0.4423
   19MOL   C233 4589   4.567   3.971   7.045 -0.5321  0.2850 -0.2378
   19MOL   H234 4590   4.576   4.264   7.201 -0.0528  0.6595  0.8960
   19MOL   H235 4591   4.433   4.177   7.202  1.4206 -0.6653 -1.1534
   19MOL   H236 4592   4.661   4.058   7.356 -0.0373 -1.4554 -0.1872
   19MOL   H237 4593   4.678   3.881   7.207 -0.6512 -0.4514  0.5680
   19MOL   H238 4594   4.746   4.029   7.145  0.9620 -0.7181  0.4946
   19MOL   H239 4595   4.511   4.061   7.018 -0.6694  0.5195  0.8168
   19MOL   H240 4596   4.641   3.943   6.970  1.5429 -4.6139  3.3584
   19MOL   H241 4597   4.500   3.888   7.065 -0.1633  0.3440  1.2893
   19MOL   H242 4598   4.495   3.984   7.300 -1.1916  0.1233 -4.6048
   20MOL     C1 4599   6.339   0.001   1.823  0.2485 -0.3586 -0.3297
   20MOL     C2 4600   6.380   7.591   1.916 -0.1083  0.6055 -0.3833
   20MOL     C3 4601   6.294   7.574   2.051 -0.5642  0.9037  0.2418
   20MOL     C4 4602   6.150   7.622   2.030 -1.1045 -0.5074 -1.0056
   20MOL     H5 4603   6.402   7.696   1.734 -0.2559  0.7275 -0.8221
   20MOL     H6 4604   6.239   7.703   1.780 -1.1299  1.3416  2.6191
   20MOL     H7 4605   6.365   7.492   1.872 -0.3802  0.4633  0.0273
   20MOL     H8 4606   6.332   7.632   2.135 -0.0071  0.1688  0.4940
   20MOL     H9 4607   6.276   7.476   2.094 -1.2829  1.7556  1.9133
   20MOL    H10 4608   6.152   0.025   2.035  1.3973 -0.5621 -0.3582
   20MOL    H11 4609   6.103   7.608   1.932 -0.4157 -1.8859 -1.1450
   20MOL    H12 4610   6.085   7.583   2.108 -0.5270  0.2486 -0.1482
   20MOL    H13 4611   6.367   0.099   1.862 -2.2876  0.9307 -1.6258
   20MOL    C14 4612   6.537   7.598   1.948  0.1922 -0.5223  0.1104
   20MOL    C15 4613   6.641   7.574   1.833 -0.4245 -0.0377  0.3994
   20MOL    C16 4614   6.615   7.432   1.765  0.5320  0.0287 -0.6539
   20MOL    C17 4615   6.640   7.314   1.861  0.6012  0.1863 -0.1765
   20MOL    H18 4616   6.550   7.521   2.024 -1.6042 -0.3247  0.6352
   20MOL    H19 4617   6.556   7.695   1.993  1.2682 -0.2226 -0.9419
   20MOL    H20 4618   6.627   7.659   1.765  0.3694  0.4148  0.8038
   20MOL    H21 4619   6.681   7.426   1.678 -0.9919 -0.1663 -1.8118
   20MOL    H22 4620   6.511   7.417   1.736 -0.5402 -0.4600  3.1767
   20MOL    H23 4621   6.741   7.310   1.900  1.1041 -0.5659 -1.5269
   20MOL    H24 4622   6.569   7.315   1.944  0.7256  2.4362 -0.0459
   20MOL    H25 4623   6.620   7.222   1.806 -2.0084  0.7091 -0.1996
   20MOL    C26 4624   6.789   7.592   1.886  0.5116 -0.1991 -0.5521
   20MOL    C27 4625   6.902   7.603   1.775  0.4374 -0.0251  0.6622
   20MOL    C28 4626   7.041   7.604   1.829 -0.4911  0.9487  0.2686
   20MOL    C29 4627   7.084   0.035   1.881  0.1365  0.6445  0.5886
   20MOL    H30 4628   6.819   7.519   1.962  0.7725 -0.1565 -0.6111
   20MOL    H31 4629   6.790   7.690   1.934  0.1105 -0.0444 -0.8596
   20MOL    H32 4630   6.901   7.507   1.724  2.5912  0.3855 -0.1905
   20MOL    H33 4631   7.105   7.564   1.750 -1.1684 -0.5967  0.4725
   20MOL    H34 4632   7.049   7.523   1.903 -2.2850 -0.4794 -1.0405
   20MOL    H35 4633   7.006   0.084   1.940 -1.8084 -1.7064  0.0535
   20MOL    H36 4634   7.164   0.015   1.952  1.0540  1.3641 -0.2313
   20MOL    H37 4635   7.126   0.100   1.804  2.1194 -1.1599  0.1145
   20MOL    C38 4636   6.870   0.019   1.687 -0.3023 -1.1206 -0.3579
   20MOL    C39 4637   6.953   0.023   1.546 -0.2619  1.1319 -0.7781
   20MOL    C40 4638   6.956   0.162   1.479 -0.5025 -0.1835  0.7173
   20MOL    C41 4639   7.051   0.264   1.547 -0.2407  0.6529 -0.4004
   20MOL    H42 4640   6.886   0.112   1.741 -0.3812 -0.8543 -0.7917
   20MOL    H43 4641   6.768   0.031   1.650 -0.9564  1.2888  2.0657
   20MOL    H44 4642   7.054   7.694   1.567  0.4663  3.0093 -1.0105
   20MOL    H45 4643   6.855   0.202   1.473 -0.3600 -0.2102 -3.0259
   20MOL    H46 4644   6.986   0.149   1.375  1.2673 -3.2567  1.5478
   20MOL    H47 4645   7.052   0.356   1.489  2.7331  1.6233  1.1275
   20MOL    H48 4646   7.018   0.274   1.650 -0.8477 -1.0066 -0.4119
   20MOL    H49 4647   7.151   0.221   1.539  0.0863  1.1265  1.1279
   20MOL    C50 4648   6.878   7.620   1.451 -0.0842  0.0294  0.3597
   20MOL    C51 4649   6.946   7.572   1.321 -0.3714  0.1305 -0.5301
   20MOL    C52 4650   6.851   7.487   1.232 -0.2485 -0.3545  0.6060
   20MOL    C53 4651   6.762   7.584   1.149  0.4972  0.2904  0.1392
   20MOL    H54 4652   6.781   7.664   1.427  0.7509  1.7157  0.0396
   20MOL    H55 4653   6.866   7.528   1.509  0.0743 -1.0557 -1.2833
   20MOL    H56 4654   6.982   7.662   1.272 -1.7472  1.4636  0.8441
   20MOL    H57 4655   6.786   7.422   1.291 -3.1230 -1.0413 -3.1591
   20MOL    H58 4656   6.904   7.417   1.167 -2.2659  1.0357 -2.6179
   20MOL    H59 4657   6.719   7.649   1.226 -0.2591  1.6044 -1.3557
   20MOL    H60 4658   6.821   7.645   1.080  2.8610 -2.5242 -0.4252
   20MOL    H61 4659   6.686   7.526   1.098  0.2050  2.2933 -1.7769
   20MOL    C62 4660   7.075   7.490   1.363 -0.0144 -0.3699  0.2525
   20MOL    C63 4661   7.186   7.494   1.259  0.1059 -0.3326 -0.3804
   20MOL    C64 4662   7.196   7.362   1.183  0.0829  0.4568  0.6146
   20MOL    C65 4663   7.238   7.385   1.035 -0.6372  0.5182 -0.0830
   20MOL    H66 4664   7.056   7.388   1.396 -2.0893 -0.5113 -1.2239
   20MOL    H67 4665   7.125   7.523   1.454 -0.6785 -1.0774  0.8831
   20MOL    H68 4666   7.159   7.572   1.188  0.1086  1.0418  1.1146
   20MOL    H69 4667   7.100   7.310   1.180 -0.1209  0.8522  0.2934
   20MOL    H70 4668   7.276   7.302   1.227  1.9035  2.0494 -0.4403
   20MOL    H71 4669   7.214   7.303   0.968  1.2160  0.1566 -0.3208
   20MOL    H72 4670   7.188   7.475   0.999 -2.5669 -0.8691 -0.9186
   20MOL    H73 4671   7.345   7.404   1.028 -0.6129 -0.2022 -1.7166
   20MOL    C74 4672   7.329   7.533   1.313 -0.3369  0.1509  0.4535
   20MOL    C75 4673   7.348   7.674   1.365  0.1375  0.0310  0.1691
   20MOL    C76 4674   7.313   0.076   1.262  0.1265  0.2637 -0.0626
   20MOL    C77 4675   7.375   0.053   1.128  0.1736  0.6798  0.3588
   20MOL    H78 4676   7.393   7.511   1.227 -0.8770  0.1659  0.0376
   20MOL    H79 4677   7.353   7.466   1.395  1.6109  1.1222  0.7009
   20MOL    H80 4678   7.269   7.683   1.440 -0.1834 -0.7084 -0.0711
   20MOL    H81 4679   7.353   0.172   1.293 -0.8927  0.8384 -0.4986
   20MOL    H82 4680   7.205   0.087   1.259  0.1728  0.9993  0.7340
   20MOL    H83 4681   7.483   0.058   1.141  0.3014 -0.9676  0.0457
   20MOL    H84 4682   7.346   7.666   1.079 -0.6341  0.7990  0.6105
   20MOL    H85 4683   7.362   0.138   1.062  1.4490  0.4265 -0.2329
   20MOL    C86 4684   7.491   7.687   1.416  0.5146  0.5881 -0.0139
   20MOL    C87 4685   7.530   7.619   1.555  0.1338  0.4111  0.5370
   20MOL    C88 4686   7.422   7.644   1.668 -0.4306  0.2667 -0.2968
   20MOL    C89 4687   7.461   7.579   1.799  0.7094  0.0738 -0.1411
   20MOL    H90 4688   7.518   0.085   1.431 -0.6301  0.9272 -0.3153
   20MOL    H91 4689   7.556   7.647   1.338 -1.6881 -3.7088  0.1647
   20MOL    H92 4690   7.528   7.511   1.547 -2.1686  0.3895  0.8466
   20MOL    H93 4691   7.330   7.604   1.626  0.6095 -1.6747 -0.8088
   20MOL    H94 4692   7.402   0.044   1.686  1.0660  0.6652 -0.9169
   20MOL    H95 4693   7.488   7.477   1.773 -0.7466 -0.2270 -0.5469
   20MOL    H96 4694   7.547   7.629   1.843  0.0533  1.8341 -0.7941
   20MOL    H97 4695   7.375   7.571   1.866 -0.2364 -0.2726 -1.3742
   20MOL    C98 4696   7.674   7.663   1.604 -0.1005  0.7257 -0.5911
   20MOL    C99 4697   0.080   7.656   1.500 -0.0084  0.0254 -0.0876
   20MOL   C100 4698   0.118   7.514   1.452  0.0164  0.1654 -0.3621
   20MOL   C101 4699   0.171   7.409   1.552  0.7727 -0.0706 -0.4530
   20MOL   H102 4700   0.003   7.605   1.689 -0.2656 -0.5534 -1.3899
   20MOL   H103 4701   7.677   0.058   1.646  0.9960  0.1470  0.7706
   20MOL   H104 4702   0.045   7.704   1.408 -1.9638  0.0821  0.6710
   20MOL   H105 4703   0.199   7.524   1.380 -1.7134  3.4204 -1.9924
   20MOL   H106 4704   0.034   7.472   1.398 -0.0534  0.3777 -0.4196
   20MOL   H107 4705   0.127   7.407   1.651  0.1617 -0.1990 -0.7217
   20MOL   H108 4706   0.186   7.307   1.518  0.9334 -0.7941  1.7206
   20MOL   H109 4707   0.273   7.439   1.573 -0.3276  2.1569  1.9396
   20MOL   C110 4708   0.206   0.028   1.557 -0.0491  0.1455  0.1044
   20MOL   C111 4709   0.305   0.078   1.444  0.1905  0.2229  0.1229
   20MOL   C112 4710   0.451   0.021   1.461 -0.4326 -0.2065  0.6338
   20MOL   C113 4711   0.533   0.021   1.330  0.2183  0.0183 -0.2105
   20MOL   H114 4712   0.255   7.662   1.623 -2.0457 -0.0306  1.4304
   20MOL   H115 4713   0.175   0.107   1.625  0.0457 -0.4038  0.7913
   20MOL   H116 4714   0.268   0.028   1.355  2.1463  0.5460 -0.8981
   20MOL   H117 4715   0.448   7.628   1.504  1.1022 -0.5220  0.0595
   20MOL   H118 4716   0.501   0.076   1.540 -0.6005 -0.4430  0.9028
   20MOL   H119 4717   0.537   0.119   1.283  2.3320  0.1206  0.1129
   20MOL   H120 4718   0.635   7.689   1.342 -0.0309 -0.8248 -0.7244
   20MOL   H121 4719   0.485   7.677   1.246  0.0202  0.1008 -0.1476
   20MOL   C122 4720   0.290   0.231   1.433  0.1674  0.3203  0.0808
   20MOL   C123 4721   0.150   0.294   1.389 -0.3429  0.1001 -0.2422
   20MOL   C124 4722   0.124   0.272   1.243 -0.4931 -0.4534  0.1190
   20MOL   C125 4723   7.695   0.315   1.188 -0.0924  0.2428 -0.0692
   20MOL   H126 4724   0.364   0.268   1.362 -1.8966 -0.4462 -2.5580
   20MOL   H127 4725   0.331   0.282   1.520  3.3723 -0.2766 -1.0255
   20MOL   H128 4726   0.068   0.237   1.432  0.8639 -0.9739  0.6726
   20MOL   H129 4727   0.144   0.167   1.222  0.6630 -0.4572  1.2275
   20MOL   H130 4728   0.204   0.328   1.194 -0.5406  0.4351  1.0427
   20MOL   H131 4729   7.614   0.248   1.216  0.2602 -1.2078 -2.3548
   20MOL   H132 4730   7.678   0.420   1.209 -2.2809 -0.1082  0.0675
   20MOL   H133 4731   7.699   0.304   1.079  0.0961  0.3521 -0.0736
   20MOL   C134 4732   0.131   0.442   1.442  0.3798  0.2670  0.0522
   20MOL   C135 4733   0.107   0.449   1.589 -0.5011 -0.0700 -0.1098
   20MOL   C136 4734   7.670   0.416   1.627  0.2742 -0.0239  0.7887
   20MOL   C137 4735   7.562   0.514   1.584 -0.8068  0.3981  0.1222
   20MOL   H138 4736   0.052   0.493   1.387 -0.8672 -0.0016  1.5674
   20MOL   H139 4737   0.214   0.509   1.417  2.5852 -2.7220 -0.9088
   20MOL   H140 4738   0.170   0.370   1.629  1.0385  2.2332  2.1759
   20MOL   H141 4739   7.663   0.416   1.736  1.1266  2.7227  0.9019
   20MOL   H142 4740   7.646   0.316   1.592  2.2140 -0.5625  0.9288
   20MOL   H143 4741   7.464   0.489   1.624 -0.6768 -1.0873 -0.4544
   20MOL   H144 4742   7.584   0.615   1.619 -0.7881 -0.0004  1.2770
   20MOL   H145 4743   7.557   0.520   1.475 -2.9051  0.2062  0.1970
   20MOL   C146 4744   0.150   0.588   1.651 -0.0159  0.2750  0.2287
   20MOL   C147 4745   0.143   0.610   1.803  0.2115  0.3752 -0.3809
   20MOL   C148 4746   0.185   0.745   1.842 -0.0323 -0.1815  0.4868
   20MOL   C149 4747   0.077   0.855   1.816  0.2987 -0.0700  0.0843
   20MOL   H150 4748   0.097   0.671   1.604  1.1756  0.7900 -0.2360
   20MOL   H151 4749   0.254   0.607   1.621  0.5785  0.3614  2.2683
   20MOL   H152 4750   0.036   0.607   1.823  0.3471  0.1327  0.2979
   20MOL   H153 4751   0.273   0.774   1.784 -0.1766 -1.2149 -0.2653
   20MOL   H154 4752   0.238   0.753   1.936  3.2157  0.6572 -1.3353
   20MOL   H155 4753   0.121   0.954   1.830  0.4940 -0.1802  0.2438
   20MOL   H156 4754   0.042   0.843   1.713  1.9868  2.2165 -0.8120
   20MOL   H157 4755   7.696   0.847   1.880  0.3102 -0.4332  0.0529
   20MOL   C158 4756   0.210   0.496   1.886  0.3083 -0.4790  1.0007
   20MOL   C159 4757   0.130   0.454   2.016  0.2996 -0.6837 -0.0172
   20MOL   C160 4758   0.106   0.567   2.122 -0.5243  0.8368  0.5153
   20MOL   C161 4759   0.024   0.522   2.242  0.2638  0.7240 -0.2683
   20MOL   H162 4760   0.307   0.539   1.913  1.2413  0.1819 -2.9786
   20MOL   H163 4761   0.230   0.410   1.823 -1.7505  1.0973 -1.9244
   20MOL   H164 4762   0.029   0.425   1.986  0.1265  0.1979 -0.3036
   20MOL   H165 4763   0.060   0.656   2.080 -0.6321  1.4151  1.8264
   20MOL   H166 4764   0.204   0.597   2.157  0.2813  1.4084 -2.1309
   20MOL   H167 4765   0.009   0.603   2.313 -2.1988  1.9824 -2.1357
   20MOL   H168 4766   7.629   0.505   2.204  1.3069 -2.9300 -1.6043
   20MOL   H169 4767   0.056   0.432   2.293 -2.7216  1.0586  2.3652
   20MOL   C170 4768   0.213   0.338   2.084  0.2309 -0.5289  0.3156
   20MOL   C171 4769   0.222   0.203   2.006 -0.0825  0.5735  0.1218
   20MOL   C172 4770   0.082   0.136   1.969  0.0257 -0.3115  0.2805
   20MOL   C173 4771   7.685   0.132   2.090  0.4525 -0.1229 -0.6273
   20MOL   H174 4772   0.160   0.296   2.169 -0.9861 -0.7597 -0.5572
   20MOL   H175 4773   0.311   0.382   2.107 -0.1774  1.1639 -1.0632
   20MOL   H176 4774   0.280   0.211   1.914  1.1764  3.2618  1.0802
   20MOL   H177 4775   0.101   0.034   1.934 -3.8885 -0.9784 -0.0905
   20MOL   H178 4776   0.029   0.178   1.884  2.1179 -0.9904 -1.4230
   20MOL   H179 4777   7.671   0.227   2.141  0.6927  0.1515 -1.0698
   20MOL   H180 4778   7.583   0.114   2.055  0.4190 -2.5384  0.6717
   20MOL   H181 4779   0.019   0.062   2.163 -1.5866 -0.2258  0.4218
   20MOL   C182 4780   0.304   0.100   2.093 -0.0096 -0.5662  0.1780
   20MOL   C183 4781   0.463   0.108   2.088 -0.3161 -0.0836 -0.4527
   20MOL   C184 4782   0.528   0.057   1.954 -0.3120  0.5961  0.8378
   20MOL   C185 4783   0.679   0.078   1.927  0.1023 -0.2736  0.2831
   20MOL   H186 4784   0.286   7.706   2.055  2.0308 -1.1723  0.7550
   20MOL   H187 4785   0.267   0.089   2.195  3.2923 -1.7450  1.3145
   20MOL   H188 4786   0.477   0.216   2.094 -0.9760  0.0421 -1.0831
   20MOL   H189 4787   0.480   0.101   1.866  2.6080  0.8491 -0.7202
   20MOL   H190 4788   0.510   7.656   1.953 -1.0508  0.7207  0.9263
   20MOL   H191 4789   0.732   7.704   1.874 -1.0003 -1.2056  0.5684
   20MOL   H192 4790   0.682   0.157   1.852 -0.1972  1.9737  2.5524
   20MOL   H193 4791   0.722   0.111   2.022 -0.2258 -1.0311  0.6994
   20MOL   C194 4792   0.529   0.055   2.216  0.2457 -0.1854 -0.0770
   20MOL   C195 4793   0.520   7.613   2.245  0.2391  0.7463 -0.2788
   20MOL   C196 4794   0.507   7.594   2.392 -0.3116  1.0051  0.4211
   20MOL   C197 4795   0.610   7.656   2.478 -0.7903  0.5296 -0.1951
   20MOL   H198 4796   0.495   0.117   2.299  1.9667  0.2242  0.3534
   20MOL   H199 4797   0.634   0.084   2.213  0.8083 -2.2774 -2.1890
   20MOL   H200 4798   0.429   7.580   2.194 -1.4440  0.3535  2.8651
   20MOL   H201 4799   0.492   7.489   2.416 -0.5710  0.1909 -2.9720
   20MOL   H202 4800   0.412   7.640   2.418 -0.4379  2.4178 -2.3029
   20MOL   H203 4801   0.708   7.615   2.457 -0.4505  0.6936  1.0181
   20MOL   H204 4802   0.616   0.059   2.467 -1.5004  0.4651 -1.3098
   20MOL   H205 4803   0.602   7.628   2.583  2.1104 -2.3090 -0.6645
   20MOL   C206 4804   0.638   7.533   2.182  0.9460  0.4601  0.4832
   20MOL   C207 4805   0.612   7.378   2.170 -0.1259  0.2306 -0.1867
   20MOL   C208 4806   0.683   7.298   2.290 -0.0799 -0.2501  0.0731
   20MOL   C209 4807   0.836   7.316   2.299  0.5290  0.5451 -0.2151
   20MOL   H210 4808   0.731   7.558   2.232  0.1181  1.4896  1.5264
   20MOL   H211 4809   0.659   7.572   2.082 -0.5697 -0.4977 -0.2312
   20MOL   H212 4810   0.507   7.368   2.197  0.5154  0.7848  2.7018
   20MOL   H213 4811   0.646   7.199   2.264  0.7491 -0.5813  0.1660
   20MOL   H214 4812   0.639   7.331   2.384 -0.6343 -0.5365 -0.0847
   20MOL   H215 4813   0.865   7.419   2.321 -0.1063  1.0962 -1.9081
   20MOL   H216 4814   0.853   7.248   2.383 -1.1441 -0.7831 -0.9275
   20MOL   H217 4815   0.897   7.289   2.213 -0.6878 -0.3020 -0.8268
   20MOL   C218 4816   0.655   7.318   2.033 -0.4880  0.3578  0.6824
   20MOL   C219 4817   0.573   7.354   1.908  0.8952 -0.5036 -0.3168
   20MOL   C220 4818   0.425   7.312   1.914 -0.4355 -0.5154 -0.0889
   20MOL   C221 4819   0.394   7.154   1.931  0.2128 -0.0026 -0.1082
   20MOL   H222 4820   0.652   7.209   2.044 -0.0010  0.5090  2.3833
   20MOL   H223 4821   0.762   7.329   2.015 -0.7907  1.0255 -0.7726
   20MOL   H224 4822   0.572   7.462   1.901  2.4648 -0.5950 -2.4231
   20MOL   H225 4823   0.367   7.352   1.831 -0.3053  0.3120  0.2220
   20MOL   H226 4824   0.387   7.370   1.998 -1.0768 -0.6787 -0.2611
   20MOL   H227 4825   0.285   7.146   1.928  0.2706 -0.9327  0.1941
   20MOL   H228 4826   0.441   7.097   1.851  0.4211 -1.1078  0.7868
   20MOL   H229 4827   0.426   7.117   2.028  0.7115  1.6983  0.3837
   20MOL   C230 4828   0.642   7.311   1.779 -0.6820  0.3957  0.1808
   20MOL   C231 4829   0.590   7.402   1.661  0.2830 -0.3945  0.5341
   20MOL   C232 4830   0.656   7.389   1.521 -0.3177 -0.0048  0.0898
   20MOL   C233 4831   0.785   7.464   1.515  0.4557 -0.2279 -0.1064
   20MOL   H234 4832   0.626   7.209   1.745 -0.7500  0.9727 -1.5736
   20MOL   H235 4833   0.748   7.331   1.790 -0.7400  1.7616 -1.4023
   20MOL   H236 4834   0.482   7.390   1.652  0.5640 -1.0651 -2.9571
   20MOL   H237 4835   0.590   7.427   1.443  0.5791  0.5590 -0.4115
   20MOL   H238 4836   0.675   7.286   1.493  2.7116  0.1512  1.2816
   20MOL   H239 4837   0.784   7.562   1.561 -1.3418 -0.3850  0.2152
   20MOL   H240 4838   0.869   7.409   1.558 -0.4164 -3.6731 -2.5946
   20MOL   H241 4839   0.796   7.486   1.409  0.2480 -3.4690 -0.8672
   20MOL   H242 4840   0.606   7.506   1.690  0.2293  0.3245 -1.8756
   21MOL     C1 4841   4.531   6.166   6.900  0.7129 -0.7195 -0.3106
   21MOL     C2 4842   4.521   6.291   6.999 -0.5099 -0.4113  0.6514
   21MOL     C3 4843   4.663   6.354   7.025  0.5983 -0.4453 -0.1632
   21MOL     C4 4844   4.651   6.508   7.032  0.5527  0.3901 -0.1216
   21MOL     H5 4845   4.445   6.152   6.835 -0.4218  0.2927  0.9323
   21MOL     H6 4846   4.616   6.180   6.833 -1.9799  0.9642 -3.5336
   21MOL     H7 4847   4.472   6.367   6.939 -0.4618  0.6306  1.9145
   21MOL     H8 4848   4.741   6.325   6.955  1.2463  0.2853  0.2506
   21MOL     H9 4849   4.698   6.322   7.124 -1.5441 -0.6742  0.5547
   21MOL    H10 4850   4.625   6.555   6.937 -3.5843 -1.0928  0.1937
   21MOL    H11 4851   4.586   6.536   7.114 -0.6677  0.8879 -1.2329
   21MOL    H12 4852   4.747   6.545   7.070  0.6147 -1.4933  1.6040
   21MOL    H13 4853   4.543   6.074   6.958  0.8552 -0.2635  0.3976
   21MOL    C14 4854   4.448   6.267   7.130  0.1453  0.3881 -0.2877
   21MOL    C15 4855   4.305   6.210   7.108 -0.4347 -0.7165 -0.2422
   21MOL    C16 4856   4.202   6.269   7.008 -0.2224  0.3854  0.3288
   21MOL    C17 4857   4.101   6.164   6.953 -0.1587  0.5121  0.6725
   21MOL    H18 4858   4.452   6.356   7.194 -1.7732  1.5123 -1.6863
   21MOL    H19 4859   4.502   6.201   7.198 -2.6556  0.7830  2.4630
   21MOL    H20 4860   4.323   6.107   7.078  0.8543 -0.0996 -1.6100
   21MOL    H21 4861   4.259   6.297   6.919 -0.1318 -0.5532  0.0905
   21MOL    H22 4862   4.157   6.360   7.047  2.0092  2.1736 -1.1223
   21MOL    H23 4863   4.140   6.098   6.876 -1.2702  1.7940 -1.0360
   21MOL    H24 4864   4.066   6.096   7.032  1.4161 -1.3878 -0.2401
   21MOL    H25 4865   4.012   6.207   6.907 -1.9303 -2.1403  1.5122
   21MOL    C26 4866   4.234   6.211   7.250 -0.4171 -0.2493 -0.7601
   21MOL    C27 4867   4.305   6.115   7.351  0.9051  0.3395  0.0400
   21MOL    C28 4868   4.265   5.961   7.327 -0.5795  0.0271 -0.3703
   21MOL    C29 4869   4.322   5.846   7.406  0.3756 -0.2941  0.7037
   21MOL    H30 4870   4.128   6.186   7.248 -0.2735 -0.8405 -1.1778
   21MOL    H31 4871   4.242   6.315   7.280  0.7264 -0.9504  1.4410
   21MOL    H32 4872   4.412   6.110   7.336  0.7963 -0.8397 -0.4108
   21MOL    H33 4873   4.275   5.940   7.221 -3.1405  0.6907 -0.7877
   21MOL    H34 4874   4.159   5.947   7.349 -0.3478  0.8671  1.3999
   21MOL    H35 4875   4.263   5.754   7.408  0.5098 -0.3811  0.6665
   21MOL    H36 4876   4.420   5.814   7.372  0.2551 -0.7336  0.7646
   21MOL    H37 4877   4.343   5.858   7.513  2.7194 -0.9789  0.3400
   21MOL    C38 4878   4.283   6.159   7.497 -0.2509  0.4578 -0.1997
   21MOL    C39 4879   4.137   6.152   7.563 -0.7728 -0.1506 -0.6692
   21MOL    C40 4880   4.099   6.268   7.657  0.4406 -0.5316 -0.2715
   21MOL    C41 4881   4.171   6.269   0.087 -0.4289 -1.0373 -0.4868
   21MOL    H42 4882   4.306   6.265   7.509  1.2278 -0.0530  1.7647
   21MOL    H43 4883   4.366   6.118   7.554 -0.1845 -0.6263 -1.0676
   21MOL    H44 4884   4.080   6.156   7.471  1.3758  5.5263 -1.9639
   21MOL    H45 4885   3.995   6.273   7.688  0.5506  0.5345 -0.0384
   21MOL    H46 4886   4.099   6.364   7.605 -1.5605 -0.4843 -0.2093
   21MOL    H47 4887   4.164   6.176   0.143 -0.6704 -0.9989 -0.4531
   21MOL    H48 4888   4.278   6.277   0.070 -0.4009  0.7310  0.4221
   21MOL    H49 4889   4.155   6.353   0.154 -0.8808  0.0202 -1.8942
   21MOL    C50 4890   4.111   6.010   7.622 -0.4033 -0.1777  0.3911
   21MOL    C51 4891   3.965   6.000   7.684  0.4580 -0.3614  0.3556
   21MOL    C52 4892   3.936   5.859   0.043  0.4558 -0.3579  0.2249
   21MOL    C53 4893   4.047   5.799   0.128  0.2724 -0.5754  0.8245
   21MOL    H54 4894   4.187   5.982   7.695  0.7364  2.0407  0.0952
   21MOL    H55 4895   4.122   5.932   7.548 -0.8553 -1.0442  1.2225
   21MOL    H56 4896   3.972   6.063   0.067 -1.5493  2.3712 -1.3551
   21MOL    H57 4897   3.909   5.779   7.680 -2.7716  0.0431  0.9253
   21MOL    H58 4898   3.849   5.858   0.109 -0.1085 -1.5154 -0.5048
   21MOL    H59 4899   4.027   5.695   0.152 -0.5180 -1.5310 -3.5150
   21MOL    H60 4900   4.139   5.791   0.070 -0.5081  1.0245 -0.6911
   21MOL    H61 4901   4.077   5.862   0.212  1.7403  2.7760 -2.0642
   21MOL    C62 4902   3.854   6.049   7.582 -0.7420  0.2807 -0.4092
   21MOL    C63 4903   3.709   6.016   7.618 -0.2018  0.1292 -0.2966
   21MOL    C64 4904   3.622   5.964   7.502  0.4816 -0.2495 -0.2373
   21MOL    C65 4905   3.605   6.063   7.385  0.7612 -0.0314 -0.8592
   21MOL    H66 4906   3.875   5.992   7.491  0.7846  0.4653 -0.1922
   21MOL    H67 4907   3.854   6.152   7.548  0.3475  0.4163 -0.0287
   21MOL    H68 4908   3.693   5.940   7.695 -1.5844  1.6118  0.9243
   21MOL    H69 4909   3.531   5.918   7.539  0.7269  0.4848  1.3663
   21MOL    H70 4910   3.669   5.879   7.453 -1.6832 -0.4346 -2.0401
   21MOL    H71 4911   3.546   6.154   7.390  0.5145 -0.2140 -0.4843
   21MOL    H72 4912   3.705   6.106   7.381  1.3041 -1.2611 -0.9701
   21MOL    H73 4913   3.593   6.021   7.285  2.5703 -1.0984 -0.6650
   21MOL    C74 4914   3.632   6.128   7.697 -0.7547  0.1745  0.3912
   21MOL    C75 4915   3.678   6.160   0.137 -0.2717 -0.7475  0.0908
   21MOL    C76 4916   3.629   6.055   0.229 -0.4689  0.0322  0.9398
   21MOL    C77 4917   3.680   6.064   0.374 -0.1930  0.0059  0.1838
   21MOL    H78 4918   3.525   6.107   7.690 -0.0678 -3.2783 -1.2980
   21MOL    H79 4919   3.647   6.223   7.645 -3.6661  0.8418  0.6751
   21MOL    H80 4920   3.787   6.160   0.145 -0.3260  1.8293  1.3494
   21MOL    H81 4921   3.652   5.955   0.191  1.5568 -0.6987  3.8836
   21MOL    H82 4922   3.521   6.063   0.237 -0.5642 -0.8600  0.5464
   21MOL    H83 4923   3.709   5.969   0.420 -1.5312 -0.0571  0.9004
   21MOL    H84 4924   3.765   6.129   0.392 -0.0099 -0.4245  0.9035
   21MOL    H85 4925   3.596   6.103   0.431 -0.1721  0.4394 -0.0834
   21MOL    C86 4926   3.628   6.297   0.184 -0.0778 -0.4789  0.1514
   21MOL    C87 4927   3.719   6.419   0.154 -0.4828 -0.0495 -0.2938
   21MOL    C88 4928   3.838   6.442   0.247 -0.9891 -0.8541  0.1567
   21MOL    C89 4929   3.947   6.541   0.203  0.2155  0.0296  0.0255
   21MOL    H90 4930   3.612   6.300   0.291  0.3817 -0.0930  0.2093
   21MOL    H91 4931   3.529   6.306   0.140  0.4005  0.1483 -0.8198
   21MOL    H92 4932   3.754   6.395   0.054 -0.9076 -1.7363 -0.0589
   21MOL    H93 4933   3.895   6.352   0.271  1.0276  0.6803  1.3490
   21MOL    H94 4934   3.802   6.478   0.343  0.4962  0.2922  0.3002
   21MOL    H95 4935   3.916   6.646   0.198 -1.3569 -0.4720 -1.2022
   21MOL    H96 4936   4.015   6.531   0.288  0.6039  1.5404 -0.0856
   21MOL    H97 4937   4.001   6.508   0.114  0.7806 -0.6331  0.6131
   21MOL    C98 4938   3.634   6.546   0.128 -0.5813 -0.6733 -0.1116
   21MOL    C99 4939   3.658   6.617   7.694 -0.0836  0.8691 -0.1083
   21MOL   C100 4940   3.608   6.766   0.000  0.2170  0.3707 -0.2770
   21MOL   C101 4941   3.719   6.871   0.039 -0.1968 -0.1069 -0.3335
   21MOL   H102 4942   3.660   6.621   0.203 -1.2539 -0.4528 -0.0934
   21MOL   H103 4943   3.527   6.538   0.148 -0.5583  1.0177  0.7188
   21MOL   H104 4944   3.766   6.610   7.680 -0.1480 -4.3899  0.8122
   21MOL   H105 4945   3.522   6.769   0.068  0.2414  2.3932 -0.3210
   21MOL   H106 4946   3.569   6.799   7.610 -0.4374 -1.3204 -0.6084
   21MOL   H107 4947   3.771   6.890   7.651 -2.8660 -0.2737 -1.8856
   21MOL   H108 4948   3.678   6.963   0.081  2.5060  1.1904 -0.4383
   21MOL   H109 4949   3.778   6.828   0.119  1.1918  1.0066 -0.7389
   21MOL   C110 4950   3.580   6.538   7.587 -0.5277  0.0160  0.2161
   21MOL   C111 4951   3.623   6.569   7.441  0.1299  0.1342  0.5093
   21MOL   C112 4952   3.502   6.548   7.347  0.2500 -0.1123 -0.2339
   21MOL   C113 4953   3.395   6.647   7.356 -0.2947 -0.3493  0.1397
   21MOL   H114 4954   3.474   6.554   7.609 -0.5465 -0.4558  0.4774
   21MOL   H115 4955   3.575   6.432   7.615 -0.8544 -0.5434 -1.8813
   21MOL   H116 4956   3.648   6.675   7.441 -1.4740  0.5315  0.6401
   21MOL   H117 4957   3.465   6.445   7.349 -0.2549  0.0119 -2.3084
   21MOL   H118 4958   3.547   6.556   7.248  2.4921  0.9140  0.8145
   21MOL   H119 4959   3.332   6.642   7.267 -1.2406 -0.6450  0.8189
   21MOL   H120 4960   3.336   6.642   7.447 -0.5826 -0.9785 -0.0805
   21MOL   H121 4961   3.430   6.750   7.350  1.6722 -0.9700  0.4859
   21MOL   C122 4962   3.752   6.499   7.396 -0.5537 -0.1102 -0.0541
   21MOL   C123 4963   3.813   6.541   7.259  0.5478 -0.7698  0.2004
   21MOL   C124 4964   3.921   6.443   7.208  0.0604  0.3597  0.0096
   21MOL   C125 4965   3.873   6.299   7.224  0.1970  0.6507  0.5523
   21MOL   H126 4966   3.722   6.394   7.399  2.6585 -1.0648  0.1128
   21MOL   H127 4967   3.826   6.503   7.475 -1.9900  0.6107  1.2719
   21MOL   H128 4968   3.737   6.526   7.182 -0.5620  0.0170  1.1276
   21MOL   H129 4969   4.014   6.450   7.264  1.3200  1.6958 -2.1971
   21MOL   H130 4970   3.937   6.468   7.103 -0.8584 -0.9757 -0.4618
   21MOL   H131 4971   3.891   6.259   7.324 -1.8196 -2.6040 -0.3059
   21MOL   H132 4972   3.771   6.275   7.193  0.2494 -1.8499  2.2061
   21MOL   H133 4973   3.918   6.230   7.153 -0.4644 -0.5690  1.3084
   21MOL   C134 4974   3.856   6.689   7.262  0.2761 -0.4400 -0.3133
   21MOL   C135 4975   3.800   6.778   7.151  0.0916  0.8391 -0.3846
   21MOL   C136 4976   3.848   6.730   7.011  0.2466  0.8789  0.0900
   21MOL   C137 4977   3.996   6.771   6.985 -0.0888  0.0959 -0.2437
   21MOL   H138 4978   3.965   6.690   7.263  0.2834 -0.6933 -0.5882
   21MOL   H139 4979   3.843   6.729   7.362  1.8246  1.0564 -0.6851
   21MOL   H140 4980   3.692   6.768   7.149 -0.1307  2.7724  0.8577
   21MOL   H141 4981   3.787   6.770   6.929 -0.2669 -2.2164 -1.0995
   21MOL   H142 4982   3.842   6.622   7.005 -0.4879  0.8815  0.7090
   21MOL   H143 4983   4.048   6.727   6.901  1.6610  0.5514  0.5861
   21MOL   H144 4984   4.015   6.878   6.977 -1.0600  0.5758  3.1197
   21MOL   H145 4985   4.057   6.723   7.061 -1.8201 -0.6296  0.7320
   21MOL   C146 4986   3.820   6.931   7.175 -0.8568  0.6292  0.0006
   21MOL   C147 4987   3.778   6.993   7.310  0.6774  0.4754  0.5367
   21MOL   C148 4988   3.637   6.960   7.369  0.1021 -0.1449 -0.1086
   21MOL   C149 4989   3.518   7.024   7.295  0.5851 -0.3820 -0.8026
   21MOL   H150 4990   3.767   6.981   7.094 -2.8536 -1.1982  0.1474
   21MOL   H151 4991   3.929   6.933   7.171 -0.8157 -1.9064 -0.9418
   21MOL   H152 4992   3.845   6.937   7.376  1.4700  3.0538  1.9853
   21MOL   H153 4993   3.636   7.000   7.471 -0.4252  1.1612 -0.6110
   21MOL   H154 4994   3.608   6.855   7.373  0.6314 -0.3242 -0.7993
   21MOL   H155 4995   3.427   6.989   7.344 -0.1089  3.6038  1.0160
   21MOL   H156 4996   3.526   7.132   7.309 -0.8666  0.1386 -3.6747
   21MOL   H157 4997   3.536   6.995   7.192  0.1366  0.8272 -1.2313
   21MOL   C158 4998   3.822   7.143   7.320 -0.9284  0.5969  0.0973
   21MOL   C159 4999   3.832   7.208   7.461 -0.6233 -0.1898 -0.4088
   21MOL   C160 5000   3.732   7.332   7.469 -0.0566 -0.7345  0.6508
   21MOL   C161 5001   3.772   7.458   7.393 -0.5050  0.2920 -0.0818
   21MOL   H162 5002   3.761   7.201   7.250 -0.4592 -0.7071 -1.4191
   21MOL   H163 5003   3.914   7.168   7.268 -1.2107  1.0518 -0.1951
   21MOL   H164 5004   3.794   7.135   7.533  0.4245 -1.4244 -1.0859
   21MOL   H165 5005   3.722   7.369   7.571  0.5157  2.3290 -0.3253
   21MOL   H166 5006   3.643   7.298   7.417  0.6952 -1.0055 -0.4956
   21MOL   H167 5007   3.785   7.432   7.288 -0.1292  0.0007  0.0372
   21MOL   H168 5008   3.701   7.540   7.402 -0.2988  0.4469  0.1110
   21MOL   H169 5009   3.869   7.492   7.427 -0.5977  1.6054 -1.0760
   21MOL   C170 5010   3.974   7.245   7.503 -0.1346 -0.4534  0.1354
   21MOL   C171 5011   4.063   7.125   7.537 -0.3189 -0.1447 -0.5588
   21MOL   C172 5012   4.029   7.076   7.678 -0.2510 -0.0013 -0.0109
   21MOL   C173 5013   4.072   6.929   0.003 -1.2480  0.7304 -0.6221
   21MOL   H174 5014   3.973   7.317   7.586 -0.5162 -0.0653 -0.2051
   21MOL   H175 5015   4.019   7.315   7.433  1.0891 -2.1446 -0.7914
   21MOL   H176 5016   4.046   7.040   7.471 -2.0306  0.3126 -0.7189
   21MOL   H177 5017   3.921   7.086   7.694 -0.3004 -1.5538  0.7510
   21MOL   H178 5018   4.070   7.142   0.049  0.0914  0.3437 -0.4907
   21MOL   H179 5019   4.175   6.914   0.036 -0.8458 -1.0589 -2.5540
   21MOL   H180 5020   4.004   6.886   0.077  0.5481 -1.1917 -0.0226
   21MOL   H181 5021   4.077   6.866   7.620 -3.3990  0.9646 -0.9510
   21MOL   C182 5022   4.215   7.158   7.535 -0.8191  0.0805 -0.1156
   21MOL   C183 5023   4.283   7.226   7.410  0.4844  0.0306 -0.7579
   21MOL   C184 5024   4.297   7.132   7.286 -0.3517 -0.3965  0.2558
   21MOL   C185 5025   4.256   7.205   7.155  0.6412 -0.4368  0.0197
   21MOL   H186 5026   4.266   7.072   7.577 -1.4254  0.8868  2.3609
   21MOL   H187 5027   4.228   7.230   7.616 -1.5392 -1.7952  1.6980
   21MOL   H188 5028   4.214   7.307   7.387 -0.4982  0.2057  2.5206
   21MOL   H189 5029   4.223   7.056   7.310 -0.2049 -0.7138 -0.2943
   21MOL   H190 5030   4.394   7.085   7.270  1.1204  2.6533 -0.3249
   21MOL   H191 5031   4.170   7.270   7.172  0.7031  0.1490 -1.7942
   21MOL   H192 5032   4.343   7.260   7.118 -0.1525  1.6980  1.2376
   21MOL   H193 5033   4.238   7.134   7.074  3.4928  0.0973 -1.1673
   21MOL   C194 5034   4.426   7.288   7.440  0.1353 -0.0035 -0.1361
   21MOL   C195 5035   4.443   7.397   7.552  0.2855 -0.4692 -0.4952
   21MOL   C196 5036   4.357   7.517   7.528 -0.9678 -0.0331 -0.0887
   21MOL   C197 5037   4.354   7.579   7.390  0.1696  0.0429  0.6836
   21MOL   H198 5038   4.467   7.336   7.351 -0.9154 -0.4747 -0.8992
   21MOL   H199 5039   4.494   7.208   7.469 -0.7170 -0.5222  0.4767
   21MOL   H200 5040   4.411   7.355   7.647  1.3562  1.3723  0.7114
   21MOL   H201 5041   4.381   7.595   7.600 -0.3779 -0.2947 -0.0044
   21MOL   H202 5042   4.257   7.487   7.560  0.2331 -3.3295  0.7578
   21MOL   H203 5043   4.320   7.513   7.310  2.8060 -1.8292  1.0272
   21MOL   H204 5044   4.292   7.668   7.389  0.9412  0.5746 -1.2320
   21MOL   H205 5045   4.445   7.620   7.346  1.1064 -2.9987 -0.3475
   21MOL   C206 5046   4.597   7.426   7.557 -0.0811  0.5754 -0.7471
   21MOL   C207 5047   4.653   7.510   7.665  0.1379  0.2110  0.9519
   21MOL   C208 5048   4.793   7.557   7.622  0.0781  0.4685 -0.2559
   21MOL   C209 5049   4.814   7.651   7.504  0.0552  0.4155 -0.0323
   21MOL   H210 5050   4.623   7.471   7.461 -1.8836  0.7905 -1.1511
   21MOL   H211 5051   4.644   7.327   7.564 -0.5564  0.4176  0.3325
   21MOL   H212 5052   4.589   7.598   7.670  0.6626  0.7290 -1.0447
   21MOL   H213 5053   4.852   7.465   7.618  1.4680  1.2452  1.7699
   21MOL   H214 5054   4.839   7.603   0.003  0.7463 -0.7659  0.0484
   21MOL   H215 5055   4.920   7.670   7.488  0.3602  1.2778  2.7225
   21MOL   H216 5056   4.776   7.605   7.413  1.6126 -1.9196  0.4582
   21MOL   H217 5057   4.762   0.040   7.518 -0.2381  0.1444  0.7290
   21MOL   C218 5058   4.644   7.434   0.087  0.3406  0.4707  0.7851
   21MOL   C219 5059   4.671   7.502   0.227  0.2382  0.3001 -0.1062
   21MOL   C220 5060   4.671   7.396   0.343  0.6852  0.6585  0.9470
   21MOL   C221 5061   4.733   7.439   0.475 -0.3317 -0.5573  0.6674
   21MOL   H222 5062   4.711   7.349   0.072  0.8855  1.1448 -0.6787
   21MOL   H223 5063   4.544   7.391   0.090  0.6412 -0.6855 -3.1527
   21MOL   H224 5064   4.775   7.533   0.226  1.0417 -1.9823  3.9341
   21MOL   H225 5065   4.737   7.316   0.310  0.1216  0.2311  0.8605
   21MOL   H226 5066   4.575   7.346   0.356  2.0410 -1.8299  1.8136
   21MOL   H227 5067   4.682   7.526   0.517 -0.4020 -0.4497  0.3604
   21MOL   H228 5068   4.725   7.370   0.559 -1.5421  0.4837  1.4260
   21MOL   H229 5069   4.839   7.455   0.460 -0.4299 -0.9976 -0.5824
   21MOL   C230 5070   4.591   7.626   0.260  0.5258  0.3659  0.2157
   21MOL   C231 5071   4.437   7.610   0.251 -0.4051  0.0529 -0.3500
   21MOL   C232 5072   4.371   0.029   0.296  0.1040  0.3424 -0.8905
   21MOL   C233 5073   4.228   0.052   0.238  0.1483  0.0074  0.1147
   21MOL   H234 5074   4.610   7.699   0.181 -1.1230  0.1847 -0.3902
   21MOL   H235 5075   4.617   7.665   0.358 -0.6551 -1.5007  1.3034
   21MOL   H236 5076   4.411   7.584   0.148 -0.5680  0.6397 -0.4562
   21MOL   H237 5077   4.427   0.121   0.276 -0.4254  0.8143 -0.2336
   21MOL   H238 5078   4.359   0.027   0.405 -1.9433 -1.4877 -1.1255
   21MOL   H239 5079   4.217   0.054   0.130  1.1522  2.5950  0.0092
   21MOL   H240 5080   4.162   7.678   0.270 -1.1232 -0.4347 -3.3823
   21MOL   H241 5081   4.169   0.134   0.279 -4.2403 -1.9913 -1.8529
   21MOL   H242 5082   4.390   7.521   0.294 -1.2433 -0.3271 -1.9810
   22MOL     C1 5083   2.249   1.869   1.704  0.1665 -0.0346  0.5098
   22MOL     C2 5084   2.128   1.868   1.610 -0.4959 -0.2114  0.3238
   22MOL     C3 5085   2.075   1.720   1.589 -0.3708  0.0860 -0.2792
   22MOL     C4 5086   1.977   1.656   1.692 -0.5579  0.5703 -0.5013
   22MOL     H5 5087   2.219   1.820   1.796 -1.9368  2.5638  1.2414
   22MOL     H6 5088   2.337   1.820   1.662  0.5159  1.3100 -0.3884
   22MOL     H7 5089   2.038   1.914   1.651  0.6706  1.2273  1.3194
   22MOL     H8 5090   2.166   1.661   1.577 -0.9407 -0.7968 -0.3210
   22MOL     H9 5091   2.022   1.722   1.493 -0.5821 -1.1582 -0.1944
   22MOL    H10 5092   1.881   1.702   1.671 -0.8337  0.8339  1.2248
   22MOL    H11 5093   1.981   1.548   1.674 -0.3693  0.4343  0.3002
   22MOL    H12 5094   2.006   1.682   1.794  1.3148 -1.3732 -0.4796
   22MOL    H13 5095   2.278   1.971   1.732 -1.9916  0.3441  1.4205
   22MOL    C14 5096   2.136   1.953   1.484  0.3470 -0.1831  0.3759
   22MOL    C15 5097   2.153   2.106   1.498 -0.3620  0.3609  0.2733
   22MOL    C16 5098   2.034   2.175   1.576  0.0383 -0.4437  0.0598
   22MOL    C17 5099   1.908   2.173   1.502  0.5970  0.3249  0.2629
   22MOL    H18 5100   2.057   1.922   1.417  0.5403 -2.2629  1.0486
   22MOL    H19 5101   2.228   1.924   1.432 -0.2992  1.5053 -1.7696
   22MOL    H20 5102   2.237   2.110   1.567 -0.2724  0.9913  0.1276
   22MOL    H21 5103   2.060   2.277   1.604 -0.4690  0.3912 -2.3913
   22MOL    H22 5104   2.015   2.116   1.665 -3.1575 -0.1777 -0.3950
   22MOL    H23 5105   1.921   2.175   1.394  2.3265 -0.4681  0.4487
   22MOL    H24 5106   1.848   2.082   1.511  1.5146 -0.7308 -3.3593
   22MOL    H25 5107   1.849   2.262   1.525  1.2547  0.6614  0.6697
   22MOL    C26 5108   2.194   2.157   1.355  0.3799 -0.0266  0.6353
   22MOL    C27 5109   2.274   2.294   1.351 -0.2185  0.1654 -0.7104
   22MOL    C28 5110   2.396   2.295   1.446  0.0578 -0.3156  1.1357
   22MOL    C29 5111   2.496   2.184   1.434  0.0116 -0.1790 -0.9014
   22MOL    H30 5112   2.104   2.174   1.295  0.5037 -0.6762  0.2714
   22MOL    H31 5113   2.252   2.081   1.304 -0.5061 -0.8074  0.7748
   22MOL    H32 5114   2.306   2.298   1.246  2.0650 -2.5115 -0.1530
   22MOL    H33 5115   2.365   2.286   1.550  0.0476 -0.3244  1.1321
   22MOL    H34 5116   2.448   2.389   1.430  2.6489 -2.2068 -2.1966
   22MOL    H35 5117   2.443   2.093   1.464  1.5344 -1.2732 -1.4315
   22MOL    H36 5118   2.553   2.183   1.340 -1.5652 -1.3903 -1.8723
   22MOL    H37 5119   2.573   2.212   1.505  0.4800  1.6874 -2.1038
   22MOL    C38 5120   2.190   2.427   1.367 -0.0586 -0.0554 -0.4360
   22MOL    C39 5121   2.263   2.557   1.325  0.7073 -0.1853 -0.3038
   22MOL    C40 5122   2.216   2.684   1.407 -0.0607  0.1055 -0.2921
   22MOL    C41 5123   2.064   2.719   1.381  0.1796  0.2983  0.3229
   22MOL    H42 5124   2.146   2.431   1.466  3.1674  0.7160  1.0515
   22MOL    H43 5125   2.100   2.417   1.307 -1.1300  1.4218  0.8992
   22MOL    H44 5126   2.371   2.556   1.337  0.5839  1.3209  1.1750
   22MOL    H45 5127   2.285   2.766   1.386  1.3428 -0.0544  3.3360
   22MOL    H46 5128   2.235   2.672   1.514 -1.5923 -0.4254 -0.0697
   22MOL    H47 5129   2.024   2.794   1.449 -0.2684 -0.1710  0.5798
   22MOL    H48 5130   2.046   2.768   1.285 -2.1548  0.6190  0.8926
   22MOL    H49 5131   2.005   2.628   1.385 -0.4086  0.6027 -0.9619
   22MOL    C50 5132   2.249   2.582   1.169  0.0618  0.0684  0.6741
   22MOL    C51 5133   2.318   2.706   1.108  0.7619 -0.3809 -0.1598
   22MOL    C52 5134   2.246   2.760   0.987 -0.1148 -0.1086  0.4286
   22MOL    C53 5135   2.256   2.667   0.865 -0.6257 -0.5089 -0.6586
   22MOL    H54 5136   2.146   2.578   1.133  0.3027 -5.0203  0.1872
   22MOL    H55 5137   2.299   2.494   1.129 -2.2105 -0.3783 -1.2782
   22MOL    H56 5138   2.304   2.788   1.177 -1.1523  0.1133 -1.1112
   22MOL    H57 5139   2.270   2.866   0.971 -1.2529 -0.0944 -1.3188
   22MOL    H58 5140   2.142   2.775   1.014 -1.0008  1.3349 -3.4547
   22MOL    H59 5141   2.224   2.565   0.884  1.4490 -1.3508 -1.5795
   22MOL    H60 5142   2.193   2.696   0.780 -3.4791 -0.2107  1.4806
   22MOL    H61 5143   2.358   2.663   0.829 -0.8102 -2.3366 -1.0137
   22MOL    C62 5144   2.469   2.693   1.084  0.6290  0.2631  0.3492
   22MOL    C63 5145   2.550   2.815   1.137 -0.3861  0.9166 -0.6350
   22MOL    C64 5146   2.576   2.917   1.027  0.2197 -0.4109 -0.5434
   22MOL    C65 5147   2.619   3.063   1.090  0.2352  0.0897 -0.5563
   22MOL    H66 5148   2.492   2.681   0.978 -1.9116  0.9334 -0.3116
   22MOL    H67 5149   2.501   2.605   1.141  0.5796  1.0408  1.5905
   22MOL    H68 5150   2.501   2.868   1.219 -2.0013 -0.0854 -0.9296
   22MOL    H69 5151   2.479   2.929   0.980 -0.1020  3.0149  0.8689
   22MOL    H70 5152   2.649   2.876   0.956  1.4493 -0.8581  0.9363
   22MOL    H71 5153   2.648   3.138   1.016 -1.4164 -1.9916 -3.4099
   22MOL    H72 5154   2.530   3.100   1.141  0.4031 -0.4091  0.1064
   22MOL    H73 5155   2.711   3.072   1.149  0.6939 -0.3244 -1.2011
   22MOL    C74 5156   2.689   2.762   1.184 -0.2223 -0.2501  0.5800
   22MOL    C75 5157   2.706   2.693   1.314 -0.3452  0.6157 -0.3709
   22MOL    C76 5158   2.643   2.771   1.429  0.0303 -0.2874  0.0157
   22MOL    C77 5159   2.693   2.912   1.456 -0.1720  0.8182  0.4438
   22MOL    H78 5160   2.756   2.848   1.183  1.6837 -1.7169  0.1410
   22MOL    H79 5161   2.721   2.695   1.105  0.0223  1.1162 -0.4865
   22MOL    H80 5162   2.634   2.612   1.302  1.1111 -0.7613 -0.0672
   22MOL    H81 5163   2.645   2.712   1.520 -3.2702  1.7594  1.5201
   22MOL    H82 5164   2.536   2.783   1.408  0.3717  1.0616 -1.0454
   22MOL    H83 5165   2.672   2.976   1.370 -1.2363  0.0609  0.1318
   22MOL    H84 5166   2.652   2.956   1.546 -0.6684 -0.3512  0.8071
   22MOL    H85 5167   2.800   2.904   1.480  0.1749  1.7725 -0.7825
   22MOL    C86 5168   2.855   2.646   1.337  0.2199 -0.1310 -0.5836
   22MOL    C87 5169   2.883   2.510   1.269  0.0525 -0.1807  0.1176
   22MOL    C88 5170   2.821   2.392   1.352  0.3725  0.2646 -0.3582
   22MOL    C89 5171   2.828   2.255   1.298  0.4585  1.1078  0.0486
   22MOL    H90 5172   2.870   2.627   1.444  0.9973  0.1782 -0.6355
   22MOL    H91 5173   2.923   2.723   1.302  0.5617  0.1537  0.6521
   22MOL    H92 5174   2.839   2.497   1.171 -0.4310 -1.4523  0.4921
   22MOL    H93 5175   2.716   2.418   1.365  0.4461 -1.1900  4.0446
   22MOL    H94 5176   2.863   2.380   1.452  1.6871  0.7386 -0.8401
   22MOL    H95 5177   2.792   2.246   1.196  2.9364  1.4493 -0.8788
   22MOL    H96 5178   2.931   2.225   1.280 -0.6423 -2.5607 -0.6026
   22MOL    H97 5179   2.783   2.175   1.357 -0.8676  0.1149 -2.2564
   22MOL    C98 5180   3.031   2.490   1.252 -0.0587 -0.1680  0.0336
   22MOL    C99 5181   3.105   2.592   1.152  0.0431  0.3182 -0.2474
   22MOL   C100 5182   3.056   2.567   1.012 -0.5826  0.1315  0.1638
   22MOL   C101 5183   3.031   2.427   0.955  0.3117 -0.2253  0.1882
   22MOL   H102 5184   3.050   2.384   1.231 -0.6816 -0.4006  0.6403
   22MOL   H103 5185   3.067   2.512   1.353 -1.3480 -1.1011  0.7027
   22MOL   H104 5186   3.080   2.696   1.171  0.2818  0.4416 -0.5934
   22MOL   H105 5187   3.114   2.630   0.945  0.3732 -0.4697  0.4250
   22MOL   H106 5188   2.960   2.620   1.006 -1.1387 -0.6573  1.8458
   22MOL   H107 5189   2.939   2.387   0.997  0.5172 -0.5922  0.2971
   22MOL   H108 5190   3.013   2.421   0.848  1.6957  1.0772 -0.1419
   22MOL   H109 5191   3.104   2.350   0.981 -0.5501 -0.9935  0.3394
   22MOL   C110 5192   3.251   2.583   1.169  0.2821 -0.1675 -0.3592
   22MOL   C111 5193   3.309   2.569   1.316 -0.1709  0.0187 -0.3186
   22MOL   C112 5194   3.269   2.693   1.405  0.6479 -0.4989  0.2268
   22MOL   C113 5195   3.300   2.680   1.556 -0.0088  0.6012 -0.7557
   22MOL   H114 5196   3.292   2.672   1.121 -0.7367 -0.3008 -1.4897
   22MOL   H115 5197   3.289   2.497   1.113  0.2688 -1.0477  0.9679
   22MOL   H116 5198   3.267   2.478   1.359 -0.2274  0.3675  0.3758
   22MOL   H117 5199   3.162   2.713   1.401  0.9940  1.3439 -0.9541
   22MOL   H118 5200   3.316   2.787   1.377  1.6104 -0.8499  0.6421
   22MOL   H119 5201   3.248   2.753   1.618  0.9565  1.9006 -1.4506
   22MOL   H120 5202   3.283   2.579   1.593  1.4608  0.1533 -1.2416
   22MOL   H121 5203   3.406   2.697   1.577  0.0214  4.1132 -3.3339
   22MOL   C122 5204   3.459   2.555   1.297 -0.1229 -0.0445 -0.4153
   22MOL   C123 5205   3.520   2.430   1.225 -0.1218  0.1762 -0.3891
   22MOL   C124 5206   3.470   2.298   1.284  0.2355  0.9214 -0.7605
   22MOL   C125 5207   3.491   2.284   1.442 -0.2491  0.6684 -1.3065
   22MOL   H126 5208   3.499   2.559   1.398  1.9294  0.1729 -1.2004
   22MOL   H127 5209   3.490   2.646   1.245 -0.4704  1.1242  1.3934
   22MOL   H128 5210   3.478   2.442   1.125 -2.4032 -1.3677  0.3325
   22MOL   H129 5211   3.525   2.214   1.240 -0.5868 -0.1292  0.1965
   22MOL   H130 5212   3.365   2.286   1.260  0.0503 -1.3713  1.0312
   22MOL   H131 5213   3.418   2.345   1.495  0.1830  0.3286 -0.3226
   22MOL   H132 5214   3.459   2.188   1.483 -0.6265  1.2833 -0.1498
   22MOL   H133 5215   3.594   2.299   1.474  0.0579 -0.9250 -1.5316
   22MOL   C134 5216   3.672   2.426   1.207  0.1035  0.2799 -0.4072
   22MOL   C135 5217   3.732   2.347   1.091 -0.2607 -0.0320 -0.6260
   22MOL   C136 5218   3.861   2.264   1.118 -0.4630  0.1569  0.1018
   22MOL   C137 5219   3.993   2.332   1.144 -0.0232  0.4127  0.3252
   22MOL   H138 5220   3.703   2.393   1.306 -0.2532 -2.3204 -1.1345
   22MOL   H139 5221   3.696   2.531   1.187 -2.9012  1.3391  1.1746
   22MOL   H140 5222   3.664   2.264   1.070 -0.6862  0.2712 -0.4559
   22MOL   H141 5223   3.875   2.191   1.039 -1.7499 -0.0769  0.0760
   22MOL   H142 5224   3.831   2.204   1.204  1.7983 -1.6931 -0.3469
   22MOL   H143 5225   3.987   2.419   1.210  0.7789  0.0003  0.9545
   22MOL   H144 5226   4.069   2.265   1.184  1.6652  1.9208 -0.2528
   22MOL   H145 5227   4.037   2.367   1.051 -0.8907 -1.5824 -0.8546
   22MOL   C146 5228   3.743   2.424   0.960 -0.1765 -0.6465  0.6099
   22MOL   C147 5229   3.696   2.341   0.838  0.2603  0.4073 -0.2720
   22MOL   C148 5230   3.778   2.379   0.714  0.7966  0.1991 -0.2693
   22MOL   C149 5231   3.927   2.365   0.718  0.4454 -0.8051  0.2094
   22MOL   H150 5232   3.843   2.466   0.946  0.3270 -1.1071  2.6366
   22MOL   H151 5233   3.678   2.511   0.965  1.8967  1.0801 -1.3151
   22MOL   H152 5234   3.710   2.233   0.841  1.0791  0.4365 -2.1294
   22MOL   H153 5235   3.755   2.484   0.692  1.0262  0.4643  0.7690
   22MOL   H154 5236   3.736   2.318   0.634 -0.4039 -0.5698  0.9241
   22MOL   H155 5237   3.986   2.453   0.746 -1.0660  0.7020 -1.2197
   22MOL   H156 5238   3.964   2.292   0.789 -0.5424 -1.3488  0.1634
   22MOL   H157 5239   3.965   2.328   0.622 -0.3794 -4.9085  1.3858
   22MOL   C158 5240   3.545   2.361   0.816 -0.5447 -0.7795  0.7669
   22MOL   C159 5241   3.472   2.233   0.767  0.1592  0.5154 -0.5685
   22MOL   C160 5242   3.354   2.266   0.675 -0.3419  0.1884 -0.1092
   22MOL   C161 5243   3.296   2.144   0.599 -0.0030 -0.8226 -0.1223
   22MOL   H162 5244   3.516   2.443   0.750  0.9647 -1.3621 -0.6429
   22MOL   H163 5245   3.484   2.385   0.904 -1.4059 -0.3072  0.0539
   22MOL   H164 5246   3.536   2.177   0.699 -4.7558 -3.1548 -2.4046
   22MOL   H165 5247   3.378   2.349   0.610 -1.8989 -0.5542 -1.6835
   22MOL   H166 5248   3.280   2.304   0.746  1.4335  0.6365  1.5536
   22MOL   H167 5249   3.269   2.063   0.667  1.9086 -0.1483  1.4738
   22MOL   H168 5250   3.201   2.172   0.552  0.2190 -1.0368 -0.7065
   22MOL   H169 5251   3.367   2.105   0.526 -0.7439 -1.4558 -0.5110
   22MOL   C170 5252   3.442   2.145   0.895  0.4941  0.4515 -0.9479
   22MOL   C171 5253   3.472   1.987   0.880 -0.6730 -0.8150  0.2808
   22MOL   C172 5254   3.378   1.902   0.976 -0.1589  0.9163 -0.3162
   22MOL   C173 5255   3.406   1.922   1.125  0.7418  0.9590  0.3821
   22MOL   H174 5256   3.339   2.170   0.922  1.4414  2.8422  0.5792
   22MOL   H175 5257   3.519   2.169   0.968 -0.7574  0.5200  0.3772
   22MOL   H176 5258   3.435   1.957   0.782  2.7270 -1.1459 -0.9619
   22MOL   H177 5259   3.386   1.795   0.957 -3.2014  0.2530  1.7642
   22MOL   H178 5260   3.278   1.928   0.941 -0.9324 -0.1378  1.0326
   22MOL   H179 5261   3.314   1.931   1.184  0.7769 -2.5886  1.1012
   22MOL   H180 5262   3.468   1.849   1.176  0.3647  1.2071  1.2056
   22MOL   H181 5263   3.445   2.021   1.145 -0.5407  1.3212  1.1795
   22MOL   C182 5264   3.628   1.954   0.892 -0.5376 -0.9641  0.3898
   22MOL   C183 5265   3.675   1.807   0.900  0.0040  0.5215  0.6055
   22MOL   C184 5266   3.828   1.788   0.905  0.9091  0.0721  0.0360
   22MOL   C185 5267   3.893   1.863   1.026 -0.3847 -0.1136 -0.1401
   22MOL   H186 5268   3.665   2.012   0.977  1.2082 -0.2224 -0.8651
   22MOL   H187 5269   3.675   2.001   0.806 -1.6683 -1.3218 -0.4304
   22MOL   H188 5270   3.641   1.770   0.997 -0.4678 -1.2398 -0.2242
   22MOL   H189 5271   3.890   1.815   0.819 -0.8908  2.1929 -0.6571
   22MOL   H190 5272   3.854   1.684   0.921  1.2131  0.2937  0.9739
   22MOL   H191 5273   4.002   1.864   1.017  0.0272  2.1938  3.8522
   22MOL   H192 5274   3.867   1.969   1.017 -0.8434 -0.1617  0.5791
   22MOL   H193 5275   3.854   1.830   1.122 -0.1001 -0.3229 -0.0963
   22MOL   C194 5276   3.605   1.714   0.789 -0.0263  0.0824  0.6598
   22MOL   C195 5277   3.614   1.558   0.809 -0.2322  0.1781 -0.5650
   22MOL   C196 5278   3.587   1.493   0.672 -0.0281  0.4498  0.3271
   22MOL   C197 5279   3.703   1.477   0.583 -0.7548  0.4428  0.4328
   22MOL   H198 5280   3.651   1.740   0.693  1.9149 -2.3821  0.8646
   22MOL   H199 5281   3.503   1.746   0.768  0.1816  0.4656  0.2035
   22MOL   H200 5282   3.716   1.525   0.823 -0.1632  0.2743 -0.8313
   22MOL   H201 5283   3.514   1.546   0.611 -0.0125  0.4826  0.3369
   22MOL   H202 5284   3.535   1.397   0.681 -3.4701  2.3651  2.1300
   22MOL   H203 5285   3.780   1.420   0.634 -1.6114 -0.9812  0.1706
   22MOL   H204 5286   3.670   1.438   0.486  0.9387  0.8200 -0.3135
   22MOL   H205 5287   3.746   1.576   0.564 -0.7281  0.2938 -0.2884
   22MOL   C206 5288   3.521   1.512   0.919  0.2022  0.5410 -0.1085
   22MOL   C207 5289   3.580   1.400   1.011  0.1794 -0.4026 -0.4615
   22MOL   C208 5290   3.470   1.313   1.071 -0.5559  0.0514 -0.3900
   22MOL   C209 5291   3.376   1.384   1.165  0.1003 -0.8596 -0.1921
   22MOL   H210 5292   3.427   1.472   0.881 -0.2403  3.7597 -2.6423
   22MOL   H211 5293   3.487   1.595   0.982 -0.3921 -0.1785  0.5242
   22MOL   H212 5294   3.631   1.334   0.941 -0.8850 -0.6777 -0.9796
   22MOL   H213 5295   3.508   1.231   1.132  0.3292  0.0568 -0.9317
   22MOL   H214 5296   3.411   1.272   0.989 -0.1917 -1.1993 -0.0344
   22MOL   H215 5297   3.420   1.410   1.261 -0.1033  1.9970 -0.8117
   22MOL   H216 5298   3.348   1.483   1.128 -0.6976 -0.4183  1.5761
   22MOL   H217 5299   3.286   1.322   1.173 -1.0723  0.6590 -1.2851
   22MOL   C218 5300   3.692   1.443   1.113  0.6026 -0.4532  0.8760
   22MOL   C219 5301   3.788   1.327   1.149 -0.3010  0.2755  0.5755
   22MOL   C220 5302   3.877   1.348   1.279  0.1154 -0.0137  0.5647
   22MOL   C221 5303   3.799   1.350   1.413  0.1982  0.4179 -0.3110
   22MOL   H222 5304   3.635   1.483   1.196 -1.3892 -0.5215 -0.4374
   22MOL   H223 5305   3.745   1.533   1.080  0.2562  0.5840  3.0945
   22MOL   H224 5306   3.727   1.241   1.176 -0.3150  0.1427  0.1218
   22MOL   H225 5307   3.943   1.435   1.274 -0.8234  0.6255 -1.1488
   22MOL   H226 5308   3.941   1.260   1.285 -0.3892 -0.4528 -0.4375
   22MOL   H227 5309   3.736   1.439   1.422  1.4937  1.1669  1.6021
   22MOL   H228 5310   3.727   1.269   1.420 -0.9714  1.3612 -1.0041
   22MOL   H229 5311   3.872   1.342   1.492 -2.4525  0.2667  2.2040
   22MOL   C230 5312   3.885   1.292   1.028 -0.2911  0.4210 -0.3272
   22MOL   C231 5313   3.969   1.409   0.959 -0.0272  0.4565  0.5966
   22MOL   C232 5314   4.104   1.372   0.888 -0.1862  0.3762  0.0074
   22MOL   C233 5315   4.214   1.348   0.992  0.2615  0.5626 -0.6282
   22MOL   H234 5316   3.823   1.237   0.958 -1.9273 -0.1622  1.5401
   22MOL   H235 5317   3.954   1.214   1.062  0.0838  0.7747 -0.2693
   22MOL   H236 5318   3.907   1.462   0.887 -2.0864  0.5055  2.3682
   22MOL   H237 5319   4.131   1.461   0.831  0.0215  0.5286  0.3454
   22MOL   H238 5320   4.098   1.283   0.824  1.2485 -0.9973  1.7095
   22MOL   H239 5321   4.199   1.266   1.062 -0.3230  1.0494 -0.1796
   22MOL   H240 5322   4.305   1.330   0.935 -0.1048 -1.5646 -0.5617
   22MOL   H241 5323   4.237   1.425   1.066 -1.8250  0.1580  0.5049
   22MOL   H242 5324   3.999   1.479   1.037  0.5749 -0.7613  1.4589
   23MOL     C1 5325   3.002   2.045   0.265 -0.2607  0.4266 -0.5743
   23MOL     C2 5326   2.944   1.967   0.144 -0.2332 -0.3567  0.3482
   23MOL     C3 5327   2.801   2.012   0.117 -0.4832  0.2838  0.2529
   23MOL     C4 5328   2.772   1.979   7.676 -0.1711  0.1239  0.2993
   23MOL     H5 5329   3.095   1.997   0.294 -2.1285 -1.1211  3.0981
   23MOL     H6 5330   3.017   2.152   0.248  1.0834  0.4400  0.5595
   23MOL     H7 5331   3.001   1.985   0.053  0.1309 -0.7921  0.4852
   23MOL     H8 5332   2.780   2.118   0.129 -2.0243 -0.0732  0.7683
   23MOL     H9 5333   2.729   1.958   0.178  0.4549 -1.5994 -0.2678
   23MOL    H10 5334   2.680   2.028   7.642 -0.4707  0.9233  2.2082
   23MOL    H11 5335   2.847   2.022   7.609 -0.0360 -1.9630 -0.9166
   23MOL    H12 5336   2.757   1.874   7.654  0.2141 -0.0306  0.7755
   23MOL    H13 5337   2.939   2.036   0.353 -0.0354  1.0315 -0.3485
   23MOL    C14 5338   2.951   1.817   0.173 -0.0368  0.1022  0.5095
   23MOL    C15 5339   3.080   1.746   0.133 -1.0736  0.2075  0.3312
   23MOL    C16 5340   3.075   1.713   7.681  0.6423  0.9536 -0.3901
   23MOL    C17 5341   3.215   1.702   7.629 -0.5729 -0.4275  0.1380
   23MOL    H18 5342   2.869   1.770   0.119 -0.0394  0.3529  0.2942
   23MOL    H19 5343   2.927   1.812   0.280 -2.1389 -2.2232 -0.0345
   23MOL    H20 5344   3.163   1.816   0.144 -0.5379 -0.5841  1.4065
   23MOL    H21 5345   3.009   1.791   7.642  0.1827  1.6784  1.7680
   23MOL    H22 5346   3.028   1.616   7.665  1.4490  0.7380 -1.4828
   23MOL    H23 5347   3.266   1.610   7.657 -1.6974 -1.0747  0.0982
   23MOL    H24 5348   3.206   1.692   7.521 -2.4215 -1.8398  0.3972
   23MOL    H25 5349   3.282   1.786   7.649 -1.0836 -0.0088  0.1122
   23MOL    C26 5350   3.113   1.622   0.209  0.4321 -0.0433  0.3439
   23MOL    C27 5351   3.161   1.651   0.351 -0.1129 -0.4549  0.3211
   23MOL    C28 5352   3.305   1.709   0.361  0.7799  0.1549  0.1985
   23MOL    C29 5353   3.328   1.785   0.486 -0.0764  0.0120  0.0430
   23MOL    H30 5354   3.197   1.575   0.158  1.4956 -0.5404  2.5041
   23MOL    H31 5355   3.021   1.563   0.212  1.0208 -0.8751  2.7148
   23MOL    H32 5356   3.116   1.735   0.404  0.9934 -1.2472  2.5817
   23MOL    H33 5357   3.331   1.767   0.273 -1.0598  0.3922 -0.2106
   23MOL    H34 5358   3.381   1.630   0.360  1.1170  0.4715 -2.2063
   23MOL    H35 5359   3.283   1.884   0.470 -0.2596 -0.0517  0.1599
   23MOL    H36 5360   3.298   1.739   0.580 -0.6755  0.8229  0.2616
   23MOL    H37 5361   3.433   1.814   0.490  0.4056 -1.7298  0.0974
   23MOL    C38 5362   3.144   1.525   0.446 -0.0461 -0.4355  0.5864
   23MOL    C39 5363   2.992   1.501   0.483 -0.0438  0.2836  0.2664
   23MOL    C40 5364   2.978   1.473   0.628 -0.1153 -0.2480 -0.0072
   23MOL    C41 5365   3.006   1.596   0.720  0.0886  0.1301 -0.1152
   23MOL    H42 5366   3.195   1.544   0.540  1.4157  1.6769 -0.5943
   23MOL    H43 5367   3.190   1.433   0.410 -1.4531 -1.1647  0.5985
   23MOL    H44 5368   2.924   1.584   0.464 -2.8668 -1.3900  2.6502
   23MOL    H45 5369   3.027   1.386   0.671 -0.2720 -0.0180  0.6504
   23MOL    H46 5370   2.871   1.454   0.638 -0.2632 -1.1591 -2.7927
   23MOL    H47 5371   2.965   1.688   0.679  0.9010 -0.3512 -2.0657
   23MOL    H48 5372   2.967   1.567   0.818  1.4302 -1.6091 -0.0534
   23MOL    H49 5373   3.114   1.614   0.724  0.2775 -0.7370 -1.2419
   23MOL    C50 5374   2.916   1.373   0.417  0.2304 -0.0818 -0.5314
   23MOL    C51 5375   2.762   1.402   0.385  0.2130 -0.5598  0.0531
   23MOL    C52 5376   2.705   1.267   0.354  0.0532 -0.5789  0.0806
   23MOL    C53 5377   2.680   1.179   0.472 -0.2040  0.6218  0.0436
   23MOL    H54 5378   2.932   1.285   0.480  1.8811  1.8146  1.8066
   23MOL    H55 5379   2.969   1.353   0.324  1.1324  1.3398 -0.3336
   23MOL    H56 5380   2.714   1.441   0.475  0.8147  0.1408  0.0792
   23MOL    H57 5381   2.772   1.214   0.286  0.3782 -1.3787  0.9906
   23MOL    H58 5382   2.615   1.264   0.294 -0.5866 -0.6684  1.0323
   23MOL    H59 5383   2.584   1.188   0.524 -0.4592 -1.6736  0.0481
   23MOL    H60 5384   2.666   1.078   0.434 -2.3149  1.5523 -1.6964
   23MOL    H61 5385   2.767   1.178   0.538 -0.8955 -1.6408  1.0025
   23MOL    C62 5386   2.744   1.501   0.265 -0.4173  0.1440  0.1784
   23MOL    C63 5387   2.596   1.514   0.201 -0.2806 -0.3668  0.3657
   23MOL    C64 5388   2.590   1.597   0.072  0.0408  0.3497 -0.4577
   23MOL    C65 5389   2.643   1.529   7.653  0.7511  0.1984 -0.2395
   23MOL    H66 5390   2.812   1.470   0.185 -0.5129 -1.4909  0.7066
   23MOL    H67 5391   2.780   1.602   0.285 -0.9586  0.6627 -1.3931
   23MOL    H68 5392   2.557   1.417   0.170 -1.7602  0.8720 -1.7054
   23MOL    H69 5393   2.636   1.694   0.090 -0.0167 -0.1945  2.9325
   23MOL    H70 5394   2.488   1.629   0.050 -0.9019 -1.7125  0.7471
   23MOL    H71 5395   2.600   1.571   7.562 -1.3128 -2.9124 -0.7815
   23MOL    H72 5396   2.752   1.531   7.643  0.8875  2.7608  1.3166
   23MOL    H73 5397   2.613   1.424   7.653 -1.4587  0.8115 -1.2287
   23MOL    C74 5398   2.507   1.583   0.298  0.0599  0.6550 -0.4092
   23MOL    C75 5399   2.355   1.569   0.275  0.3081  0.1104  0.0615
   23MOL    C76 5400   2.280   1.656   0.379 -0.5787 -0.3174  0.8614
   23MOL    C77 5401   2.283   1.809   0.351  0.2210  0.5931  0.0402
   23MOL    H78 5402   2.532   1.689   0.301  0.7134  0.4551  2.2818
   23MOL    H79 5403   2.535   1.550   0.398 -1.0099  0.6860 -0.0935
   23MOL    H80 5404   2.323   1.608   0.178 -0.2638 -0.1264  0.1545
   23MOL    H81 5405   2.312   1.633   0.481  1.0524  2.8289  1.1485
   23MOL    H82 5406   2.173   1.635   0.379 -0.4345 -1.0736  1.5330
   23MOL    H83 5407   2.216   1.870   0.412  3.6461  1.8186  2.7166
   23MOL    H84 5408   2.384   1.847   0.363  0.4221  0.2290 -0.5040
   23MOL    H85 5409   2.258   1.825   0.247  1.2824 -0.5932 -0.4197
   23MOL    C86 5410   2.309   1.425   0.285  0.6325 -0.1327  0.0745
   23MOL    C87 5411   2.161   1.390   0.297  0.0713  0.0797 -0.0707
   23MOL    C88 5412   2.138   1.240   0.298 -0.0176 -0.5019  0.8573
   23MOL    C89 5413   2.009   1.198   0.358  0.1636  0.1633 -0.1127
   23MOL    H90 5414   2.358   1.384   0.373 -0.7009  0.2978  1.0365
   23MOL    H91 5415   2.354   1.374   0.200  2.0991  1.6730 -0.2498
   23MOL    H92 5416   2.124   1.428   0.392  1.7737 -2.2434  1.5876
   23MOL    H93 5417   2.217   1.190   0.355 -0.6050 -0.7743  1.4514
   23MOL    H94 5418   2.148   1.201   0.197  1.6387  1.2188  0.3286
   23MOL    H95 5419   1.970   1.112   0.305  0.6307 -0.5676  0.7183
   23MOL    H96 5420   2.028   1.179   0.464 -1.6659 -0.9451  0.0358
   23MOL    H97 5421   1.929   1.272   0.354  0.5745  0.5985 -0.3020
   23MOL    C98 5422   2.076   1.447   0.176  0.5791 -0.3798  0.1242
   23MOL    C99 5423   1.993   1.575   0.201 -0.8345 -0.8412 -0.4894
   23MOL   C100 5424   1.890   1.554   0.314 -1.4027  0.0234 -0.0996
   23MOL   C101 5425   1.804   1.671   0.370 -0.5691  0.0287 -0.7306
   23MOL   H102 5426   1.999   1.376   0.145  1.4243 -0.7010 -1.2710
   23MOL   H103 5427   2.149   1.472   0.099 -1.3031  0.3828 -1.4127
   23MOL   H104 5428   2.055   1.664   0.209 -2.7513  0.4112  0.7364
   23MOL   H105 5429   1.938   1.512   0.402 -1.5395 -0.6615 -0.3529
   23MOL   H106 5430   1.825   1.473   0.283 -0.7302  0.1737 -1.9938
   23MOL   H107 5431   1.757   1.629   0.460  0.9577  1.7430  0.9105
   23MOL   H108 5432   1.865   1.757   0.398 -2.2837  0.7916  0.7951
   23MOL   H109 5433   1.728   1.701   0.298 -2.4930  0.4592  1.3988
   23MOL   C110 5434   1.922   1.597   0.069 -0.6031 -0.8361 -1.0196
   23MOL   C111 5435   2.002   1.658   7.659  0.2624 -0.0535 -0.6619
   23MOL   C112 5436   1.981   1.815   7.654  0.0688 -0.1111 -0.1727
   23MOL   C113 5437   1.844   1.876   7.612  0.5654 -0.1763 -0.4983
   23MOL   H114 5438   1.828   1.650   0.084 -0.5992 -1.2786  0.7498
   23MOL   H115 5439   1.883   1.500   0.039 -1.0024 -1.1929  0.5983
   23MOL   H116 5440   2.110   1.651   7.673  0.0856 -0.1998  0.6541
   23MOL   H117 5441   2.061   1.853   7.591  0.5791 -1.3678 -0.2850
   23MOL   H118 5442   2.001   1.860   0.045 -0.0743 -2.0027  0.7515
   23MOL   H119 5443   1.768   1.828   7.672  0.1229 -0.5100 -1.3135
   23MOL   H120 5444   1.835   1.983   7.627 -1.7322 -0.6644  1.8792
   23MOL   H121 5445   1.824   1.853   7.507 -2.9830  1.9140 -0.3368
   23MOL   C122 5446   1.976   1.600   7.521  0.0383 -0.6883 -0.5926
   23MOL   C123 5447   2.030   1.450   7.515 -0.3626 -0.8176  0.5971
   23MOL   C124 5448   2.183   1.445   7.491 -0.3113  0.0690 -0.1978
   23MOL   C125 5449   2.256   1.320   7.546 -0.2694  0.4648 -0.2587
   23MOL   H126 5450   2.030   1.663   7.452 -0.1838  1.9608  1.5698
   23MOL   H127 5451   1.869   1.605   7.504 -0.5202  0.9174  2.8386
   23MOL   H128 5452   2.006   1.417   7.616  0.0043  1.1878  1.3675
   23MOL   H129 5453   2.238   1.530   7.533 -0.6502  1.4640 -2.5274
   23MOL   H130 5454   2.193   1.466   7.385 -0.2919  1.5667  0.0821
   23MOL   H131 5455   2.261   1.323   7.655 -0.2160 -1.7139 -0.1675
   23MOL   H132 5456   2.205   1.230   7.511 -1.8384  1.3390 -0.2241
   23MOL   H133 5457   2.355   1.304   7.502 -0.4237 -0.9210 -0.1229
   23MOL   C134 5458   1.954   1.379   7.400 -0.0345  0.4064 -0.2582
   23MOL   C135 5459   1.800   1.346   7.416  0.2182  0.1811 -0.2521
   23MOL   C136 5460   1.757   1.217   7.487 -0.4639 -0.0884  0.4066
   23MOL   C137 5461   1.818   1.085   7.431  0.0114  0.3324  0.1269
   23MOL   H138 5462   2.002   1.282   7.392 -0.0078  0.3199  0.8855
   23MOL   H139 5463   1.978   1.433   7.309 -2.0603 -0.2350 -1.2138
   23MOL   H140 5464   1.756   1.430   7.469  1.9026  1.0728 -0.2483
   23MOL   H141 5465   1.650   1.194   7.479 -0.4991 -0.1335  0.9662
   23MOL   H142 5466   1.789   1.231   7.590 -3.4980 -0.9302  1.5119
   23MOL   H143 5467   1.811   1.093   7.323  3.3337  1.7510 -0.0390
   23MOL   H144 5468   1.925   1.081   7.451  0.1289  2.6447  0.1397
   23MOL   H145 5469   1.764   0.995   7.459  1.4491 -0.6189 -0.0992
   23MOL   C146 5470   1.730   1.355   7.273  0.4933  1.1114  0.5331
   23MOL   C147 5471   1.716   1.498   7.214 -0.4522 -0.5345 -0.5114
   23MOL   C148 5472   1.597   1.565   7.287 -0.1185  0.1476 -0.4525
   23MOL   C149 5473   1.620   1.706   7.321  0.0563  0.1370  0.0154
   23MOL   H150 5474   1.629   1.314   7.281  0.7154  0.2757 -0.7518
   23MOL   H151 5475   1.784   1.293   7.202 -3.6375 -0.7583 -1.1296
   23MOL   H152 5476   1.803   1.557   7.243 -0.4628  0.3120 -2.1076
   23MOL   H153 5477   1.568   1.503   7.372  1.4534  0.8193  0.5945
   23MOL   H154 5478   1.501   1.560   7.236 -0.5536  0.3798  0.3324
   23MOL   H155 5479   1.662   1.769   7.243 -0.1436  0.5235  0.2187
   23MOL   H156 5480   1.526   1.747   7.357 -1.5165 -0.3828 -3.4029
   23MOL   H157 5481   1.697   1.716   7.398  1.0575  1.0826 -1.1018
   23MOL   C158 5482   1.700   1.504   7.067 -0.2208 -0.5368 -0.1764
   23MOL   C159 5483   1.683   1.640   6.994 -0.3256 -0.0099 -0.0326
   23MOL   C160 5484   1.624   1.619   6.846 -0.4253 -0.5074 -0.3555
   23MOL   C161 5485   1.484   1.556   6.844  0.8837 -0.2873  0.4445
   23MOL   H162 5486   1.615   1.440   7.045 -0.5753 -0.4450  0.8973
   23MOL   H163 5487   1.789   1.457   7.024  0.3767 -1.4662  2.0119
   23MOL   H164 5488   1.605   1.702   7.039  0.5059  0.9564  0.0926
   23MOL   H165 5489   1.684   1.544   6.793 -2.7077 -2.6555 -0.0016
   23MOL   H166 5490   1.633   1.704   6.779 -1.3522  1.0703  1.4722
   23MOL   H167 5491   1.433   1.539   6.750 -0.0476 -2.8561  1.3771
   23MOL   H168 5492   1.479   1.458   6.892  0.1650 -0.7033 -0.4826
   23MOL   H169 5493   1.422   1.624   6.903  1.8035 -0.6293  1.8484
   23MOL   C170 5494   1.815   1.718   6.982 -0.0595  0.1774  0.4812
   23MOL   C171 5495   1.816   1.857   6.915  0.1732 -0.5927 -1.0604
   23MOL   C172 5496   1.950   1.894   6.846 -0.6221  0.5609  0.3113
   23MOL   C173 5497   2.063   1.902   6.942  0.3506  0.3374  0.2921
   23MOL   H174 5498   1.881   1.661   6.918 -0.2495  0.8997 -0.3604
   23MOL   H175 5499   1.864   1.729   7.079  3.3177  0.2317 -1.1625
   23MOL   H176 5500   1.749   1.863   6.829  1.0989 -2.6470 -1.9612
   23MOL   H177 5501   1.953   1.987   6.790  3.0742 -1.1491 -2.4881
   23MOL   H178 5502   1.963   1.816   6.771  0.0737 -1.0077  2.0227
   23MOL   H179 5503   2.153   1.900   6.880 -0.0328 -2.1540 -0.2476
   23MOL   H180 5504   2.084   1.993   6.998  3.4026  0.1353 -0.4259
   23MOL   H181 5505   2.054   1.819   7.012 -3.4060  0.6424  0.2630
   23MOL   C182 5506   1.764   1.966   7.020  0.1695 -0.3233  0.2829
   23MOL   C183 5507   1.709   2.094   6.950 -0.2154  0.5125 -0.2115
   23MOL   C184 5508   1.709   2.215   7.044 -0.2398  0.7739 -0.0628
   23MOL   C185 5509   1.838   2.291   7.033  0.9251  0.4829 -0.3468
   23MOL   H186 5510   1.838   1.995   7.095 -0.5308  0.6769  0.5920
   23MOL   H187 5511   1.683   1.930   7.083 -0.3407  0.1435 -0.1018
   23MOL   H188 5512   1.778   2.115   6.869  1.4786  0.3729  1.1720
   23MOL   H189 5513   1.694   2.194   7.150  1.7997  0.9170  0.2619
   23MOL   H190 5514   1.629   2.285   7.020 -1.4415 -0.7705 -0.6446
   23MOL   H191 5515   1.920   2.225   7.062  2.2885  1.9122 -0.8472
   23MOL   H192 5516   1.849   2.336   6.934  0.9501  1.1790 -0.0295
   23MOL   H193 5517   1.845   2.367   7.110 -1.1830 -1.9067  2.2821
   23MOL   C194 5518   1.571   2.072   6.897  0.0887 -0.7395  0.1120
   23MOL   C195 5519   1.537   2.166   6.779  0.0868 -0.7247  0.3263
   23MOL   C196 5520   1.385   2.136   6.747 -0.1329  0.2196 -0.3575
   23MOL   C197 5521   1.274   2.191   6.842 -0.0696  0.1858 -0.5408
   23MOL   H198 5522   1.500   2.072   6.980  0.8750  0.5043  0.8174
   23MOL   H199 5523   1.568   1.975   6.847 -1.8101 -0.1131 -1.0043
   23MOL   H200 5524   1.538   2.267   6.820 -0.5131 -1.6365  2.6637
   23MOL   H201 5525   1.374   2.028   6.758  1.3789 -0.1800 -2.5278
   23MOL   H202 5526   1.356   2.156   6.643 -2.9590 -0.0796  0.3319
   23MOL   H203 5527   1.289   2.299   6.840  0.8264  0.0582 -0.9964
   23MOL   H204 5528   1.173   2.174   6.805  0.2912 -1.8555 -0.6644
   23MOL   H205 5529   1.292   2.167   6.947  1.5214  0.3332 -0.7604
   23MOL   C206 5530   1.648   2.150   6.663  0.6951 -0.3916  0.4223
   23MOL   C207 5531   1.617   2.260   6.549  0.1888  0.4107 -0.3245
   23MOL   C208 5532   1.663   2.209   6.410  0.1575  0.4635 -0.3985
   23MOL   C209 5533   1.814   2.187   6.390 -0.1037 -0.0846  0.1686
   23MOL   H210 5534   1.636   2.048   6.626  0.1206 -0.4881  0.8714
   23MOL   H211 5535   1.754   2.167   6.682  0.5228  2.3753 -0.7763
   23MOL   H212 5536   1.510   2.275   6.535  0.0473 -2.2458 -2.6433
   23MOL   H213 5537   1.632   2.279   6.332 -0.6279  0.4202 -0.1283
   23MOL   H214 5538   1.616   2.117   6.375  2.3632 -0.7890 -0.1855
   23MOL   H215 5539   1.876   2.276   6.377  1.3070 -0.8805  1.2395
   23MOL   H216 5540   1.861   2.115   6.457  1.0583  0.7695  0.2918
   23MOL   H217 5541   1.838   2.149   6.291 -0.4642  2.4673 -0.9378
   23MOL   C218 5542   1.682   2.394   6.582 -0.0437  0.5146 -0.5557
   23MOL   C219 5543   1.621   2.513   6.514  0.3382  0.2565  0.3354
   23MOL   C220 5544   1.725   2.629   6.514 -0.3081  0.9382  0.3499
   23MOL   C221 5545   1.814   2.626   6.389 -0.5965 -0.6324 -0.0493
   23MOL   H222 5546   1.790   2.385   6.568  0.1088  0.9817  0.2986
   23MOL   H223 5547   1.675   2.416   6.689 -0.2745 -0.5694 -0.3341
   23MOL   H224 5548   1.595   2.493   6.410 -0.9323 -0.3642  0.7511
   23MOL   H225 5549   1.795   2.638   6.596  1.7547 -1.5489 -1.0536
   23MOL   H226 5550   1.676   2.726   6.504 -1.3801  0.3745  0.0004
   23MOL   H227 5551   1.776   2.659   6.293 -1.2119  0.0521  0.4246
   23MOL   H228 5552   1.903   2.686   6.410 -0.8007  0.1318 -1.3351
   23MOL   H229 5553   1.855   2.533   6.351  0.7483  0.9106 -2.5072
   23MOL   C230 5554   1.490   2.559   6.587 -0.0318  0.5316 -0.0345
   23MOL   C231 5555   1.351   2.526   6.517  0.2420  0.0013 -0.0743
   23MOL   C232 5556   1.231   2.601   6.576 -0.0559  0.1486  0.2843
   23MOL   C233 5557   1.100   2.579   6.495  0.4688 -0.8098  0.5961
   23MOL   H234 5558   1.490   2.667   6.601 -2.5542  0.5359  0.1801
   23MOL   H235 5559   1.491   2.530   6.692  0.8365  0.4270 -0.0732
   23MOL   H236 5560   1.352   2.535   6.408 -1.0557  1.3791  0.0055
   23MOL   H237 5561   1.254   2.708   6.583 -0.2494  0.3561 -1.7690
   23MOL   H238 5562   1.220   2.576   6.681 -0.1939  2.0254  0.7439
   23MOL   H239 5563   1.082   2.476   6.466 -2.7524 -0.3826  0.8767
   23MOL   H240 5564   1.012   2.616   6.549  0.4174 -0.6676  0.4136
   23MOL   H241 5565   1.108   2.644   6.408  0.7152 -0.9835  0.4861
   23MOL   H242 5566   1.339   2.418   6.524  1.8143 -0.1944 -0.3635
   24MOL     C1 5567   0.601   1.354   0.679 -0.5870  0.2030 -0.1401
   24MOL     C2 5568   0.641   1.502   0.692 -0.5536  0.5965 -0.4448
   24MOL     C3 5569   0.788   1.508   0.667 -0.4174 -0.4500 -0.1011
   24MOL     C4 5570   0.879   1.428   0.767 -0.0677  0.5883  0.2922
   24MOL     H5 5571   0.639   1.310   0.587  0.3272 -0.4097  0.5194
   24MOL     H6 5572   0.634   1.299   0.767  2.0647 -1.0392 -1.8268
   24MOL     H7 5573   0.607   1.546   0.598 -1.0414 -0.0954 -0.6044
   24MOL     H8 5574   0.810   1.614   0.673 -0.7610 -0.1960 -2.6010
   24MOL     H9 5575   0.814   1.484   0.564  1.5903  0.1025  0.2540
   24MOL    H10 5576   0.849   1.438   0.871 -3.2292  0.9267 -0.6077
   24MOL    H11 5577   0.867   1.324   0.737 -2.0188  0.5009  1.3643
   24MOL    H12 5578   0.984   1.455   0.754  0.5575 -0.4951  2.9208
   24MOL    H13 5579   0.494   1.340   0.668 -0.5844 -1.2671  1.3644
   24MOL    C14 5580   0.603   1.575   0.820  0.4760 -0.5261  0.4277
   24MOL    C15 5581   0.452   1.611   0.829 -0.4404 -0.5929 -0.1078
   24MOL    C16 5582   0.400   1.707   0.719 -0.0192  0.4548 -0.1324
   24MOL    C17 5583   0.470   1.844   0.716  0.2948 -0.1141  0.2449
   24MOL    H18 5584   0.671   1.653   0.853  0.0434  0.6240 -1.3249
   24MOL    H19 5585   0.618   1.495   0.893  1.7752  0.4703  1.2767
   24MOL    H20 5586   0.404   1.515   0.810  0.1187 -0.9231  0.1333
   24MOL    H21 5587   0.293   1.724   0.725 -0.6903 -3.7545  1.6191
   24MOL    H22 5588   0.425   1.654   0.627  0.1006  0.0010  0.1555
   24MOL    H23 5589   0.480   1.879   0.614 -0.5361 -2.1996 -0.5907
   24MOL    H24 5590   0.415   1.924   0.765  0.2653  0.1661 -0.2447
   24MOL    H25 5591   0.569   1.836   0.761  0.8495 -1.7476 -1.2120
   24MOL    C26 5592   0.411   1.660   0.977  0.2856  0.6689  0.1133
   24MOL    C27 5593   0.255   1.652   1.001 -0.4760  0.3429  0.3378
   24MOL    C28 5594   0.231   1.718   1.136 -0.0505 -0.1573  0.0435
   24MOL    C29 5595   0.298   1.637   1.247 -0.5015 -0.0977 -0.6765
   24MOL    H30 5596   0.444   1.761   1.002  3.2101 -0.1084 -0.3329
   24MOL    H31 5597   0.461   1.587   1.041  0.3382  1.7163  1.2879
   24MOL    H32 5598   0.208   1.715   0.925  0.0652 -1.1396 -1.2712
   24MOL    H33 5599   0.125   1.724   1.161  0.3502  1.4647  1.4468
   24MOL    H34 5600   0.273   1.819   1.140  0.7492 -0.5340  2.0498
   24MOL    H35 5601   0.406   1.643   1.258 -0.3830 -3.2587  0.1919
   24MOL    H36 5602   0.258   1.670   1.343  0.0301 -1.2623 -0.0538
   24MOL    H37 5603   0.289   1.530   1.230  2.2888 -0.5789  0.6402
   24MOL    C38 5604   0.188   1.511   0.993 -0.1367  0.0567 -0.1422
   24MOL    C39 5605   0.039   1.508   0.987  0.3436 -0.7776 -0.3734
   24MOL    C40 5606   7.679   1.363   1.003  0.4096 -0.5944  0.6425
   24MOL    C41 5607   0.001   1.266   0.888  0.6647 -0.0219  0.0512
   24MOL    H42 5608   0.226   1.441   1.067 -0.0357 -0.3496 -0.5688
   24MOL    H43 5609   0.224   1.470   0.898 -1.9572  0.2792 -0.9570
   24MOL    H44 5610   7.703   1.571   1.066 -1.3523 -1.4140 -0.7522
   24MOL    H45 5611   7.570   1.369   1.011  0.2118 -1.5025 -1.0482
   24MOL    H46 5612   0.016   1.317   1.092  0.3630 -0.8223  0.5504
   24MOL    H47 5613   0.098   1.276   0.840  0.4280  0.4677 -0.3275
   24MOL    H48 5614   7.695   1.164   0.925 -1.1878 -0.1413 -0.8063
   24MOL    H49 5615   7.630   1.283   0.813  0.2116 -1.5520  0.1605
   24MOL    C50 5616   7.687   1.578   0.859 -0.7701  0.4110  0.7281
   24MOL    C51 5617   7.534   1.614   0.855 -0.3037 -0.8041  0.4996
   24MOL    C52 5618   7.492   1.662   0.721 -0.9046 -0.3031 -0.5843
   24MOL    C53 5619   7.344   1.661   0.695  0.5398 -0.0970 -0.0443
   24MOL    H54 5620   0.005   1.514   0.774 -1.4840  0.0506  0.7943
   24MOL    H55 5621   0.033   1.671   0.837 -3.4368  1.7203 -0.3013
   24MOL    H56 5622   7.475   1.523   0.866 -1.2442  0.0043  2.6802
   24MOL    H57 5623   7.529   1.607   0.634 -0.6489 -0.2553 -0.5060
   24MOL    H58 5624   7.527   1.764   0.705  0.6735 -0.5030  1.4454
   24MOL    H59 5625   7.290   1.706   0.779 -0.1617 -0.2738 -0.3909
   24MOL    H60 5626   7.309   1.718   0.608 -3.9786 -2.4439  0.0766
   24MOL    H61 5627   7.295   1.564   0.695  0.0552  0.1431 -0.8176
   24MOL    C62 5628   7.491   1.707   0.974  0.6773  0.1375  0.1855
   24MOL    C63 5629   7.411   1.650   1.091  0.7288 -0.4254 -0.5277
   24MOL    C64 5630   7.267   1.605   1.047  0.4305  0.7744 -0.0554
   24MOL    C65 5631   7.204   1.487   1.124 -0.5440  0.4296  0.8541
   24MOL    H66 5632   7.426   1.784   0.932 -1.2188 -1.8512 -0.5873
   24MOL    H67 5633   7.579   1.760   1.012  0.6900  0.6351 -0.5198
   24MOL    H68 5634   7.468   1.562   1.120 -3.6434 -2.1869  3.2565
   24MOL    H69 5635   7.266   1.572   0.943 -1.2028  1.8239 -0.3998
   24MOL    H70 5636   7.193   1.685   1.038  1.5232  2.0189  1.8985
   24MOL    H71 5637   7.130   1.430   1.068 -0.7610  0.6084  0.9576
   24MOL    H72 5638   7.282   1.415   1.149 -1.9068 -0.5553  2.3734
   24MOL    H73 5639   7.164   1.528   1.217 -3.2237 -2.0251  0.8898
   24MOL    C74 5640   7.415   1.739   1.221  0.0400 -0.0710  0.0636
   24MOL    C75 5641   7.542   1.733   1.304 -0.4174 -0.6123 -0.0907
   24MOL    C76 5642   7.569   1.599   1.375 -0.2644 -0.8023  0.1284
   24MOL    C77 5643   7.468   1.547   1.483 -0.2618 -0.7744 -0.1587
   24MOL    H78 5644   7.330   1.721   1.287 -0.5040  0.1113 -0.5762
   24MOL    H79 5645   7.399   1.841   1.186  0.5839 -0.6490 -1.9793
   24MOL    H80 5646   7.630   1.742   1.241 -0.6845  1.6941 -0.1787
   24MOL    H81 5647   7.665   1.595   1.426  0.3180  1.2055 -0.7708
   24MOL    H82 5648   7.579   1.520   1.300 -2.3659 -0.3612 -0.6634
   24MOL    H83 5649   7.510   1.473   1.551 -1.8737 -1.9213 -0.3931
   24MOL    H84 5650   7.443   1.633   1.546  1.2019 -0.5813  0.1833
   24MOL    H85 5651   7.373   1.510   1.447 -0.3625 -1.5151  0.8451
   24MOL    C86 5652   7.540   1.842   1.417  0.3610 -0.2298  0.7117
   24MOL    C87 5653   7.606   1.973   1.379 -0.2257  0.1301  0.0953
   24MOL    C88 5654   0.053   1.955   1.370 -0.3615  0.1018  0.1866
   24MOL    C89 5655   0.126   1.898   1.494  0.8693 -0.0280  0.3897
   24MOL    H90 5656   7.567   1.806   1.516 -0.4830 -1.6806  0.4210
   24MOL    H91 5657   7.437   1.875   1.436  0.3448  0.2749 -0.1730
   24MOL    H92 5658   7.569   1.986   1.277 -1.4907  0.2424  0.5618
   24MOL    H93 5659   0.105   2.040   1.327  3.3207 -2.6600 -1.1658
   24MOL    H94 5660   0.080   1.886   1.290 -0.7827  1.9029 -1.5558
   24MOL    H95 5661   0.231   1.873   1.484  1.1481  1.0722  0.5023
   24MOL    H96 5662   0.135   1.963   1.581 -1.1485 -0.1251  0.7027
   24MOL    H97 5663   0.072   1.812   1.533  0.0430  0.4649  0.3416
   24MOL    C98 5664   7.570   2.096   1.467 -0.2248 -0.1696  0.7226
   24MOL    C99 5665   7.587   2.232   1.396 -0.0585 -0.1385 -0.7338
   24MOL   C100 5666   7.569   2.337   1.500 -0.9043 -0.4325  0.3428
   24MOL   C101 5667   7.689   2.359   1.598 -0.3852 -0.1783  0.1834
   24MOL   H102 5668   7.647   2.091   1.544  0.2295 -0.7864  0.2393
   24MOL   H103 5669   7.469   2.092   1.509  0.0782 -0.3958  1.4336
   24MOL   H104 5670   7.686   2.245   1.353 -0.5193 -0.0217 -1.7740
   24MOL   H105 5671   7.473   2.343   1.551 -1.3028  1.0903 -0.5538
   24MOL   H106 5672   7.579   2.433   1.450  0.1588 -0.6347  0.1653
   24MOL   H107 5673   0.070   2.382   1.536 -0.9577  3.9465  0.7475
   24MOL   H108 5674   7.660   2.436   1.670 -2.0543 -0.0107 -0.6332
   24MOL   H109 5675   0.003   2.274   1.663  1.6660  1.8017  2.2775
   24MOL   C110 5676   7.475   2.245   1.287 -0.3912 -0.5273  0.7473
   24MOL   C111 5677   7.529   2.294   1.147 -1.4334 -0.0930  0.4743
   24MOL   C112 5678   7.409   2.321   1.048 -0.6969  0.2910 -0.4349
   24MOL   C113 5679   7.344   2.461   1.067 -0.5082  0.4165 -0.2557
   24MOL   H114 5680   7.395   2.312   1.317 -1.9294 -1.6344 -0.7572
   24MOL   H115 5681   7.429   2.147   1.282 -1.9719  0.1509  1.6866
   24MOL   H116 5682   7.586   2.385   1.169 -1.4278  0.4956 -1.8934
   24MOL   H117 5683   7.335   2.244   1.071  0.2023 -0.4125  0.1027
   24MOL   H118 5684   7.446   2.306   0.946  1.7018  0.2422  0.4107
   24MOL   H119 5685   7.258   2.454   1.000 -1.5475 -1.5454  1.2279
   24MOL   H120 5686   7.315   2.477   1.171 -0.9302  2.3983 -0.6506
   24MOL   H121 5687   7.411   2.541   1.034  0.9318 -0.8698 -0.4900
   24MOL   C122 5688   7.634   2.198   1.076 -0.6515  0.5547 -0.2664
   24MOL   C123 5689   7.699   2.239   0.939 -0.2553  0.5441  0.0637
   24MOL   C124 5690   0.091   2.133   0.883  0.3985 -0.0848  0.7119
   24MOL   C125 5691   0.210   2.113   0.972  0.0032  0.5625  0.3136
   24MOL   H126 5692   7.577   2.106   1.060 -1.6496  0.6973  2.3197
   24MOL   H127 5693   0.010   2.174   1.143  1.1079  2.4108 -1.7253
   24MOL   H128 5694   7.624   2.224   0.861  0.9867  1.6622 -1.3831
   24MOL   H129 5695   0.137   2.161   0.788  1.6899 -3.1550  0.3816
   24MOL   H130 5696   0.035   2.046   0.851 -1.3059  1.1540  0.2443
   24MOL   H131 5697   0.264   2.208   0.972  0.0260  0.5566  1.1251
   24MOL   H132 5698   0.191   2.101   1.079  0.8590 -0.2966  0.3742
   24MOL   H133 5699   0.280   2.034   0.947  0.6908  1.1772  0.2786
   24MOL   C134 5700   0.053   2.380   0.939 -0.1269  0.3394  0.8457
   24MOL   C135 5701   0.113   2.434   0.810 -0.7783 -0.4174 -0.1452
   24MOL   C136 5702   0.163   2.576   0.831  0.0220  0.0593  0.5385
   24MOL   C137 5703   0.295   2.578   0.915  0.0675  0.1227  0.2847
   24MOL   H138 5704   0.121   2.386   1.024  0.1525 -0.8372  0.7166
   24MOL   H139 5705   7.677   2.446   0.966 -0.5641 -0.7449  2.2695
   24MOL   H140 5706   0.204   2.377   0.788  0.5769  1.4153  0.5605
   24MOL   H141 5707   0.094   2.639   0.888  0.4557  2.2329 -1.2639
   24MOL   H142 5708   0.169   2.629   0.736  0.3774  0.7651  0.9428
   24MOL   H143 5709   0.270   2.540   1.014 -0.0702  0.8943  0.5519
   24MOL   H144 5710   0.380   2.524   0.875 -0.1870 -0.2414  0.2271
   24MOL   H145 5711   0.334   2.679   0.931 -0.9521  0.1288  2.9749
   24MOL   C146 5712   0.007   2.429   0.702  0.4931  0.0098  0.1033
   24MOL   C147 5713   0.061   2.462   0.557  0.4530  0.3814  0.3968
   24MOL   C148 5714   7.697   2.587   0.505  0.3765  0.1941  0.5363
   24MOL   C149 5715   0.058   2.656   0.382  0.0114 -0.7245 -0.7690
   24MOL   H150 5716   7.629   2.487   0.740  0.2893 -0.6813  0.7099
   24MOL   H151 5717   7.666   2.332   0.693  0.9362 -0.2883  0.9966
   24MOL   H152 5718   0.166   2.487   0.570  0.6071 -0.1167  0.1479
   24MOL   H153 5719   0.005   2.655   0.588 -2.1599  1.5674 -0.0852
   24MOL   H154 5720   7.593   2.564   0.483  0.9132 -0.3104 -1.5761
   24MOL   H155 5721   0.046   2.764   0.390  0.1157 -0.6409 -1.6089
   24MOL   H156 5722   0.163   2.632   0.369  0.9563  1.9865  1.4242
   24MOL   H157 5723   0.001   2.635   0.290 -0.9455 -2.7029  0.2357
   24MOL   C158 5724   0.040   2.350   0.456 -0.7975  1.3212 -0.1423
   24MOL   C159 5725   0.143   2.236   0.464  0.3423 -0.4958  0.0145
   24MOL   C160 5726   0.278   2.278   0.403 -0.2882 -0.1355  0.3092
   24MOL   C161 5727   0.389   2.172   0.408 -0.1012  0.3035  0.6072
   24MOL   H162 5728   0.011   2.375   0.354  0.7080  1.1403 -0.6242
   24MOL   H163 5729   7.649   2.307   0.483 -0.9596  2.6413  1.4477
   24MOL   H164 5730   0.156   2.224   0.571  0.5744 -0.1637  0.0227
   24MOL   H165 5731   0.315   2.368   0.452 -0.3363  1.4250 -2.4205
   24MOL   H166 5732   0.260   2.301   0.298 -0.6009 -2.4253 -0.1719
   24MOL   H167 5733   0.403   2.120   0.503  0.6933  1.8918  1.3824
   24MOL   H168 5734   0.365   2.099   0.331 -0.3753  0.9275  0.0962
   24MOL   H169 5735   0.480   2.223   0.376 -1.1088  0.6569 -1.7507
   24MOL   C170 5736   0.073   2.110   0.397 -0.0240 -0.4922  0.1055
   24MOL   C171 5737   0.038   2.001   0.501  0.2886  1.0062  0.3669
   24MOL   C172 5738   0.153   1.902   0.529  0.8091  0.2702  0.2156
   24MOL   C173 5739   0.180   1.807   0.414 -0.4263 -0.4847 -0.5587
   24MOL   H174 5740   0.144   2.077   0.321 -0.1973  0.0660 -0.3017
   24MOL   H175 5741   7.692   2.143   0.340  0.7083  0.5480 -0.4267
   24MOL   H176 5742   0.015   2.048   0.597 -3.1125 -0.3460  0.2859
   24MOL   H177 5743   0.116   1.841   0.612 -0.5646  0.7875  0.0007
   24MOL   H178 5744   0.250   1.945   0.554  1.5998 -1.2565 -0.1408
   24MOL   H179 5745   0.248   1.726   0.441 -2.4726 -1.5875  1.5481
   24MOL   H180 5746   0.084   1.759   0.395 -1.3483  1.6234 -1.3930
   24MOL   H181 5747   0.219   1.856   0.325 -0.8125 -0.7413 -0.8721
   24MOL   C182 5748   7.608   1.934   0.451 -0.0899  0.2539 -0.2593
   24MOL   C183 5749   7.487   2.022   0.486  0.1967  0.5907  0.1337
   24MOL   C184 5750   7.462   2.022   0.639 -0.5188  0.6629 -0.3844
   24MOL   C185 5751   7.406   2.144   0.696 -0.3317  0.0783  0.4715
   24MOL   H186 5752   7.593   1.836   0.496 -1.7280 -0.2394 -1.8079
   24MOL   H187 5753   7.614   1.912   0.344 -1.0259 -0.7443 -0.1070
   24MOL   H188 5754   7.501   2.125   0.452  1.8915 -0.2802 -1.9238
   24MOL   H189 5755   7.545   2.006   0.708 -0.4524 -2.2899 -1.0521
   24MOL   H190 5756   7.396   1.940   0.666  1.2407 -0.8829 -0.6313
   24MOL   H191 5757   7.444   2.239   0.658 -1.6807 -0.3876 -2.1508
   24MOL   H192 5758   7.298   2.152   0.689 -0.3606  0.7138  1.4594
   24MOL   H193 5759   7.416   2.152   0.804 -1.9215  0.4318  0.5992
   24MOL   C194 5760   7.353   1.988   0.410 -0.8372  0.4611  0.4740
   24MOL   C195 5761   7.344   2.017   0.259 -0.3518 -0.0486  0.1187
   24MOL   C196 5762   7.353   2.165   0.222 -0.3725  0.1449 -0.0769
   24MOL   C197 5763   7.256   2.251   0.303 -0.0831 -0.4177 -0.6096
   24MOL   H198 5764   7.268   2.025   0.467 -1.2725 -1.2558  0.9706
   24MOL   H199 5765   7.342   1.881   0.422 -0.6559  0.5661  1.6370
   24MOL   H200 5766   7.433   1.965   0.224  1.1213  1.0655  2.0504
   24MOL   H201 5767   7.373   2.181   0.116 -1.5434 -1.7967 -0.6201
   24MOL   H202 5768   7.443   2.205   0.269  0.4118 -1.1727 -0.4457
   24MOL   H203 5769   7.289   2.355   0.297 -1.3923  0.0975  0.7904
   24MOL   H204 5770   7.161   2.246   0.249 -1.7482  0.1962  2.1325
   24MOL   H205 5771   7.245   2.230   0.410  0.0263 -1.9415 -0.9016
   24MOL   C206 5772   7.225   1.946   0.193  0.4277  0.2159 -0.3401
   24MOL   C207 5773   7.222   1.938   0.037 -0.0493 -0.5370  0.3875
   24MOL   C208 5774   7.082   1.904   7.699  0.0896  0.1411 -0.0695
   24MOL   C209 5775   7.055   1.929   7.551 -0.5685 -0.8125  0.4696
   24MOL   H210 5776   7.137   2.003   0.224  0.9111 -0.2512  1.9375
   24MOL   H211 5777   7.211   1.849   0.239 -0.1898  0.5741  0.2509
   24MOL   H212 5778   7.253   2.035   7.704 -0.3693  0.1504  1.7958
   24MOL   H213 5779   7.010   1.950   0.061 -1.3666 -1.9140 -0.1429
   24MOL   H214 5780   7.054   1.799   0.004  1.6883 -0.3635 -0.6876
   24MOL   H215 5781   7.118   1.871   7.484 -1.6060  0.2931 -1.5237
   24MOL   H216 5782   6.955   1.908   7.512  0.6462  0.4415 -3.5317
   24MOL   H217 5783   7.074   2.032   7.519  0.2025 -1.0151  0.2661
   24MOL   C218 5784   7.333   1.842   7.679 -0.6785  0.7783 -0.4937
   24MOL   C219 5785   7.326   1.690   0.009 -0.3769 -0.4371 -0.6599
   24MOL   C220 5786   7.457   1.626   0.050  0.4616 -0.1546  0.3495
   24MOL   C221 5787   7.502   1.675   0.181  0.0652 -0.1654 -0.1215
   24MOL   H222 5788   7.434   1.872   0.002 -0.6240 -1.0117  1.3094
   24MOL   H223 5789   7.334   1.852   7.571 -0.5520  0.2810 -0.5402
   24MOL   H224 5790   7.264   1.680   0.098  1.7037 -1.6522  0.7043
   24MOL   H225 5791   7.531   1.637   7.677  0.4669 -0.8022  0.2617
   24MOL   H226 5792   7.442   1.518   0.059  1.6542 -0.1596  2.4664
   24MOL   H227 5793   7.542   1.777   0.181 -0.8331  0.1931 -0.0386
   24MOL   H228 5794   7.427   1.694   0.258  1.2967 -1.2841  1.3981
   24MOL   H229 5795   7.580   1.610   0.221  0.8998  1.5466  1.0761
   24MOL   C230 5796   7.251   1.613   7.608 -0.3560  0.4621 -0.8974
   24MOL   C231 5797   7.179   1.489   7.662 -0.0223 -0.2840  0.1416
   24MOL   C232 5798   7.115   1.406   7.550  0.2419  0.1340 -0.4181
   24MOL   C233 5799   6.980   1.461   7.499  0.0700  0.0033  0.3241
   24MOL   H234 5800   7.318   1.579   7.529  0.8880 -0.4610  0.5360
   24MOL   H235 5801   7.172   1.660   7.550 -0.8864  1.0354  0.2757
   24MOL   H236 5802   7.242   1.419   0.010  0.0306 -0.9232 -0.7251
   24MOL   H237 5803   7.089   1.305   7.582  0.5941  0.2810  0.3374
   24MOL   H238 5804   7.193   1.393   7.475  2.7769 -1.2802  2.4026
   24MOL   H239 5805   6.946   1.389   7.424 -0.8316 -0.2771  1.0078
   24MOL   H240 5806   6.907   1.470   7.578  0.2036 -0.4092  0.4970
   24MOL   H241 5807   6.996   1.562   7.460 -2.8877  1.0435  1.7143
   24MOL   H242 5808   7.104   1.519   0.030  0.6896  0.3670  0.6064
   25MOL     C1 5809   4.862   6.063   6.485 -0.0172 -0.0536  0.0222
   25MOL     C2 5810   4.743   6.107   6.413 -0.3535 -0.1832  0.5805
   25MOL     C3 5811   4.706   6.004   6.299 -0.0031  0.3937  0.5091
   25MOL     C4 5812   4.562   6.026   6.239 -0.1441 -0.2878  0.1414
   25MOL     H5 5813   4.876   6.128   6.571 -1.6160 -0.5056  0.6338
   25MOL     H6 5814   4.860   5.957   6.511 -0.7525 -0.9013 -3.2132
   25MOL     H7 5815   4.657   6.097   6.480 -2.0732  0.9357 -1.3632
   25MOL     H8 5816   4.704   5.906   6.347  0.8894  0.5035  0.7819
   25MOL     H9 5817   4.781   5.986   6.222 -0.3485 -0.5101  0.3731
   25MOL    H10 5818   4.484   6.021   6.315  1.2215  1.0787  1.6684
   25MOL    H11 5819   4.549   6.110   6.171 -1.4620 -0.2036  0.4850
   25MOL    H12 5820   4.535   5.937   6.182  1.6175 -0.5128 -0.3754
   25MOL    H13 5821   4.952   6.070   6.423  0.0375  2.6791  0.3654
   25MOL    C14 5822   4.745   6.249   6.354 -0.0161 -0.5537 -0.2634
   25MOL    C15 5823   4.744   6.362   6.458  0.1342 -0.3392 -0.6030
   25MOL    C16 5824   4.607   6.365   6.526  0.1398  0.6796  0.6633
   25MOL    C17 5825   4.596   6.451   6.654  0.1242  0.6842  0.1913
   25MOL    H18 5826   4.659   6.263   6.289  0.0506 -2.3625 -0.7589
   25MOL    H19 5827   4.829   6.260   6.286 -0.3038 -2.9982 -1.0579
   25MOL    H20 5828   4.819   6.347   6.535  0.7393  0.8982 -0.9371
   25MOL    H21 5829   4.561   6.270   6.552  1.1784 -0.0219 -0.0381
   25MOL    H22 5830   4.532   6.400   6.455 -0.5581 -3.2535 -0.6580
   25MOL    H23 5831   4.506   6.421   6.708 -0.1750  0.2205 -0.5694
   25MOL    H24 5832   4.683   6.433   6.717 -2.1441 -2.7769  2.5154
   25MOL    H25 5833   4.586   6.558   6.634  1.6595  0.3158 -2.8228
   25MOL    C26 5834   4.760   6.497   6.391 -0.1378  0.2739  0.5854
   25MOL    C27 5835   4.896   6.526   6.324 -0.6868 -0.6037  0.6262
   25MOL    C28 5836   5.005   6.536   6.431  0.7067  0.5306  0.1095
   25MOL    C29 5837   5.153   6.507   6.396  0.3047  0.3935  0.8854
   25MOL    H30 5838   4.741   6.576   6.464  3.7433  2.1595 -0.3036
   25MOL    H31 5839   4.687   6.513   6.311 -0.2728 -0.6804  0.5126
   25MOL    H32 5840   4.919   6.449   6.250 -0.0091 -0.2359  0.4421
   25MOL    H33 5841   4.987   6.478   6.522 -0.9919  0.2109 -0.4215
   25MOL    H34 5842   5.003   6.638   6.469  0.6071  0.3683  0.5432
   25MOL    H35 5843   5.206   6.582   6.338 -0.9346  0.7046  0.1433
   25MOL    H36 5844   5.211   6.483   6.485  1.6103  0.1507 -0.0086
   25MOL    H37 5845   5.151   6.419   6.332 -1.6069  0.2117  1.1793
   25MOL    C38 5846   4.884   6.662   6.236 -0.6469 -0.0688 -0.8418
   25MOL    C39 5847   4.834   6.648   6.090 -0.8163 -0.1562  0.0697
   25MOL    C40 5848   4.952   6.630   5.995  0.5977  0.1552 -0.2236
   25MOL    C41 5849   5.042   6.753   5.970  0.1772 -0.3192  0.2085
   25MOL    H42 5850   4.984   6.705   6.242 -0.9185  0.2284  2.3797
   25MOL    H43 5851   4.818   6.726   6.294 -0.4489 -0.6923  0.0784
   25MOL    H44 5852   4.769   6.561   6.075 -0.5329  0.1065 -2.9549
   25MOL    H45 5853   4.916   6.594   5.898  1.9604 -1.6942 -0.0492
   25MOL    H46 5854   5.002   6.545   6.040  0.9450  0.6791  0.3770
   25MOL    H47 5855   4.985   6.845   5.957 -0.9403 -0.8065  1.4083
   25MOL    H48 5856   5.103   6.779   6.056  0.4450  0.1512 -0.1257
   25MOL    H49 5857   5.108   6.735   5.885  0.1918 -0.0908  0.1738
   25MOL    C50 5858   4.746   6.765   6.052 -0.3375 -0.2950  0.0935
   25MOL    C51 5859   4.612   6.779   6.134  0.0404  0.1012  0.1188
   25MOL    C52 5860   4.501   6.663   6.126  0.5149 -0.2495  0.0669
   25MOL    C53 5861   4.397   6.661   6.238  0.4740 -0.9485 -0.2060
   25MOL    H54 5862   4.720   6.755   5.947 -2.6535  2.5814  0.3216
   25MOL    H55 5863   4.808   6.854   6.061  1.1261 -1.4885  2.3995
   25MOL    H56 5864   4.638   6.784   6.240  2.4852  1.5893 -0.4979
   25MOL    H57 5865   4.549   6.566   6.140 -0.6099 -0.5676  1.8216
   25MOL    H58 5866   4.446   6.653   6.032 -0.0483 -0.2027  0.3902
   25MOL    H59 5867   4.437   6.706   6.329  0.8728 -1.2899 -0.2108
   25MOL    H60 5868   4.297   6.693   6.207 -0.2656 -2.5586  0.4677
   25MOL    H61 5869   4.368   6.560   6.265 -1.0781 -0.7761 -1.1484
   25MOL    C62 5870   4.546   6.920   6.106 -0.1790  0.1413  0.3149
   25MOL    C63 5871   4.490   6.932   5.968 -0.1336  0.3952  0.4001
   25MOL    C64 5872   4.520   7.074   5.916  0.0513 -1.1247  0.5857
   25MOL    C65 5873   4.667   7.091   5.877 -0.8378 -0.0933  0.0260
   25MOL    H66 5874   4.625   6.991   6.133 -0.3280  0.8035 -0.9397
   25MOL    H67 5875   4.468   6.938   6.179 -2.4714  2.5190 -2.6158
   25MOL    H68 5876   4.540   6.860   5.904 -2.1881  0.3378 -1.1946
   25MOL    H69 5877   4.496   7.150   5.990  0.6881 -2.0318  1.7421
   25MOL    H70 5878   4.456   7.097   5.831 -0.0584 -0.6138  0.8041
   25MOL    H71 5879   4.719   6.998   5.857  0.9197  0.3303  2.4348
   25MOL    H72 5880   4.666   7.160   5.792 -1.8015  2.1419  1.7889
   25MOL    H73 5881   4.727   7.141   5.953 -1.4764  0.1814  0.3585
   25MOL    C74 5882   4.335   6.903   5.958 -0.1953  0.2366  0.2183
   25MOL    C75 5883   4.268   6.885   5.815 -0.5421  0.3354 -0.0628
   25MOL    C76 5884   4.117   6.866   5.830 -0.1650  0.1510 -0.4920
   25MOL    C77 5885   4.036   6.992   5.872 -0.6563  0.3199  0.1478
   25MOL    H78 5886   4.280   6.985   6.005  0.8555  0.4777  1.0439
   25MOL    H79 5887   4.318   6.807   6.005 -2.1333  0.3130 -0.2885
   25MOL    H80 5888   4.281   6.982   5.768  1.1785  0.0748 -0.1530
   25MOL    H81 5889   4.085   6.785   5.895  0.2756 -0.5150 -1.0947
   25MOL    H82 5890   4.077   6.840   5.732  0.4290  0.0797 -0.7209
   25MOL    H83 5891   3.928   6.996   5.856 -0.3953 -1.1269 -2.2830
   25MOL    H84 5892   4.039   7.013   5.979 -0.0977  0.6064  0.0776
   25MOL    H85 5893   4.081   7.075   5.818  0.1386 -0.3266 -0.1844
   25MOL    C86 5894   4.331   6.773   5.737  0.5361  0.0585 -0.5457
   25MOL    C87 5895   4.319   6.795   5.587  0.9402  0.2004 -0.3286
   25MOL    C88 5896   4.367   6.673   5.518  0.7216 -0.4342 -0.8871
   25MOL    C89 5897   4.308   6.667   5.383 -0.0770  0.3874  0.8586
   25MOL    H90 5898   4.274   6.682   5.757 -1.1300  0.6881 -2.2926
   25MOL    H91 5899   4.431   6.738   5.765 -0.9395 -2.8904  1.3318
   25MOL    H92 5900   4.212   6.798   5.568  1.3290 -0.9188 -2.9645
   25MOL    H93 5901   4.323   6.580   5.554 -0.5806  0.4384 -0.2068
   25MOL    H94 5902   4.475   6.661   5.531  1.0299  0.5896 -2.3532
   25MOL    H95 5903   4.344   6.737   5.308 -2.4538  1.2765  0.4819
   25MOL    H96 5904   4.352   6.575   5.344  1.0065  1.7373 -1.1840
   25MOL    H97 5905   4.200   6.668   5.363 -0.0061  1.4528  0.5073
   25MOL    C98 5906   4.393   6.930   5.545 -0.2202 -0.1414 -0.2600
   25MOL    C99 5907   4.294   7.038   5.504 -0.1709 -0.7030 -0.2666
   25MOL   C100 5908   4.228   7.023   5.365  0.2995 -0.3962  0.1408
   25MOL   C101 5909   4.318   7.049   5.238  0.5080  0.3120 -0.0117
   25MOL   H102 5910   4.456   6.901   5.461 -0.2783  3.3433 -1.6232
   25MOL   H103 5911   4.454   6.972   5.626  1.2946 -4.4150  0.9531
   25MOL   H104 5912   4.216   7.037   5.580  0.2526  0.8433  0.2002
   25MOL   H105 5913   4.148   7.097   5.362  1.1475  0.4591 -1.7214
   25MOL   H106 5914   4.181   6.924   5.360 -0.4909  0.0367 -1.4274
   25MOL   H107 5915   4.415   7.001   5.245  1.1686  1.4682 -1.1695
   25MOL   H108 5916   4.268   7.013   5.148  2.2213  0.8465 -1.1962
   25MOL   H109 5917   4.328   7.157   5.228  2.8306  0.0166 -1.1177
   25MOL   C110 5918   4.353   7.177   5.520 -0.6153 -0.1485  0.2737
   25MOL   C111 5919   4.277   7.312   5.497 -0.5032 -0.1737  0.2854
   25MOL   C112 5920   4.360   7.433   5.531  0.6477  0.3376 -0.6523
   25MOL   C113 5921   4.488   7.441   5.448  0.3486 -0.8309  0.7901
   25MOL   H114 5922   4.444   7.177   5.460 -0.7217 -1.3735  0.1054
   25MOL   H115 5923   4.386   7.189   5.623  0.6262 -2.4578  0.1686
   25MOL   H116 5924   4.254   7.312   5.390  2.0558  0.4651 -0.2970
   25MOL   H117 5925   4.380   7.435   5.638 -1.0140  0.7991 -0.3320
   25MOL   H118 5926   4.299   7.521   5.511 -0.9891 -0.4063  0.9684
   25MOL   H119 5927   4.568   7.376   5.485 -0.4591 -2.5308 -0.3915
   25MOL   H120 5928   4.470   7.414   5.345 -1.0351 -0.2553  0.8750
   25MOL   H121 5929   4.520   7.545   5.451 -1.1327 -0.2517 -2.2151
   25MOL   C122 5930   4.144   7.317   5.585 -0.3165 -0.1525  0.2484
   25MOL   C123 5931   4.048   7.423   5.535  0.1242  0.5537  0.4061
   25MOL   C124 5932   3.930   7.433   5.631 -0.0357 -0.1497 -0.3934
   25MOL   C125 5933   3.962   7.496   5.774 -0.0210  0.2749 -0.3020
   25MOL   H126 5934   4.172   7.330   5.689  0.4395  1.9353 -0.1972
   25MOL   H127 5935   4.102   7.216   5.584 -0.2661 -0.1925  1.5203
   25MOL   H128 5936   4.104   7.517   5.538  1.3125 -0.0024 -2.3979
   25MOL   H129 5937   3.884   7.334   5.640 -0.1898  0.1486  2.5397
   25MOL   H130 5938   3.854   7.502   5.594 -0.4094  0.8757  2.2247
   25MOL   H131 5939   3.987   7.602   5.768 -0.5784  0.3166 -2.2955
   25MOL   H132 5940   3.865   7.484   5.822 -0.2450 -0.0457 -0.8340
   25MOL   H133 5941   4.025   7.438   5.841  0.0375 -0.4198 -0.9558
   25MOL   C134 5942   4.004   7.402   5.391  0.4226 -0.1950 -0.6041
   25MOL   C135 5943   4.027   7.521   5.294 -0.3431 -0.0962  0.2510
   25MOL   C136 5944   3.949   7.651   5.324 -0.2518 -0.2309 -0.5804
   25MOL   C137 5945   4.015   0.080   5.281 -0.3852  0.3843 -0.2099
   25MOL   H138 5946   3.898   7.379   5.400  0.5744 -1.8733 -2.5103
   25MOL   H139 5947   4.036   7.304   5.354  2.2181 -0.3987  1.4134
   25MOL   H140 5948   4.132   7.548   5.289 -0.8662  1.7131 -1.8925
   25MOL   H141 5949   3.934   7.661   5.431  1.2661  3.4651 -0.6224
   25MOL   H142 5950   3.848   7.640   5.284  0.1391 -1.1740 -1.3284
   25MOL   H143 5951   4.021   0.074   5.172 -3.3096  2.0926 -0.5103
   25MOL   H144 5952   3.943   0.159   5.304  0.1549  0.8966 -0.2451
   25MOL   H145 5953   4.117   0.073   5.320 -0.5675  2.2272  0.6508
   25MOL   C146 5954   4.001   7.478   5.153  0.8017 -0.1785  0.1421
   25MOL   C147 5955   4.112   7.402   5.081  0.8415  0.0129  0.4371
   25MOL   C148 5956   4.191   7.511   5.004  0.3512 -0.2165 -0.2361
   25MOL   C149 5957   4.317   7.460   4.935  0.3377 -0.6613  0.2163
   25MOL   H150 5958   3.972   7.568   5.097  0.5620 -0.6050 -0.4237
   25MOL   H151 5959   3.909   7.422   5.138  0.6315  0.0672  0.2707
   25MOL   H152 5960   4.178   7.358   5.156  2.2294  0.5434 -0.4654
   25MOL   H153 5961   4.225   7.595   5.065 -1.0978  0.2134 -0.0125
   25MOL   H154 5962   4.122   7.568   4.942 -0.0283  0.6828  1.0046
   25MOL   H155 5963   4.286   7.377   4.872  0.6532 -0.2152 -0.5371
   25MOL   H156 5964   4.361   7.540   4.874 -1.0311 -0.0959 -0.0529
   25MOL   H157 5965   4.387   7.422   5.009 -1.4090 -0.7506  1.8602
   25MOL   C158 5966   4.065   7.275   5.004  0.2407 -0.3647  0.2972
   25MOL   C159 5967   4.012   7.298   4.861 -0.0027  0.0769 -0.0669
   25MOL   C160 5968   3.883   7.386   4.852 -0.3728 -0.4592  0.2042
   25MOL   C161 5969   3.851   7.431   4.705 -0.4676 -0.1555  0.0624
   25MOL   H162 5970   4.004   7.207   5.063  0.4914  0.3774  1.4411
   25MOL   H163 5971   4.160   7.224   4.989  0.1435 -0.5794  0.4079
   25MOL   H164 5972   4.085   7.362   4.812  0.4660  1.3797  2.2448
   25MOL   H165 5973   3.894   7.479   4.909 -0.6932  1.2112 -2.3538
   25MOL   H166 5974   3.785   7.351   4.884 -0.5515 -0.7958 -0.6995
   25MOL   H167 5975   3.860   7.359   4.625 -1.1158  0.5867 -0.6913
   25MOL   H168 5976   3.748   7.466   4.710 -0.7001 -1.0105  1.4338
   25MOL   H169 5977   3.912   7.518   4.678 -0.3449 -0.3511 -0.2870
   25MOL   C170 5978   3.988   7.158   4.802 -0.4513 -0.1405  0.4985
   25MOL   C171 5979   4.119   7.094   4.739  0.0890 -0.0314  1.1993
   25MOL   C172 5980   4.137   7.160   4.601 -0.2944 -0.1607 -1.0076
   25MOL   C173 5981   4.269   7.123   4.531 -0.2145 -0.0376  0.2824
   25MOL   H174 5982   3.920   7.158   4.717 -0.4266 -0.5098  0.4772
   25MOL   H175 5983   3.932   7.091   4.867 -2.5221  1.2741  0.1957
   25MOL   H176 5984   4.203   7.118   4.803  0.6037  0.0267  0.5055
   25MOL   H177 5985   4.143   7.268   4.617  1.6637 -0.4199  0.3016
   25MOL   H178 5986   4.053   7.125   4.541 -0.4360 -0.8263 -0.4158
   25MOL   H179 5987   4.275   7.015   4.517  0.5083 -0.5286  3.8234
   25MOL   H180 5988   4.280   7.181   4.440  1.5431 -1.1554 -0.2574
   25MOL   H181 5989   4.353   7.145   4.598 -0.0727  1.0560 -0.2598
   25MOL   C182 5990   4.111   6.938   4.727  0.2664  0.1507  0.1811
   25MOL   C183 5991   4.128   6.841   4.844  0.8672 -0.0490  0.2870
   25MOL   C184 5992   4.029   6.854   4.959 -0.2855 -0.6598  0.5955
   25MOL   C185 5993   4.037   6.748   5.068  0.0553  0.0290 -0.7654
   25MOL   H186 5994   4.188   6.904   4.658  1.3309  2.1786  0.3258
   25MOL   H187 5995   4.019   6.910   4.677  0.5319 -1.1403  0.3824
   25MOL   H188 5996   4.109   6.750   4.787 -1.9862  1.4670 -1.2736
   25MOL   H189 5997   3.935   6.862   4.903  0.2375 -0.1862 -0.2222
   25MOL   H190 5998   4.041   6.946   5.015  1.0064 -0.3390 -0.1804
   25MOL   H191 5999   4.021   6.648   5.027  1.0017 -0.2173 -0.5470
   25MOL   H192 6000   4.135   6.766   5.111  0.5029 -0.0865 -1.7259
   25MOL   H193 6001   3.970   6.771   5.151  2.5301 -0.5242  1.4623
   25MOL   C194 6002   4.278   6.815   4.878  0.3149  0.4066  0.2868
   25MOL   C195 6003   4.382   6.775   4.764  0.3271 -0.2365  0.4568
   25MOL   C196 6004   4.345   6.649   4.679 -0.3710 -0.3696 -0.0079
   25MOL   C197 6005   4.339   6.521   4.749  0.4306  0.4607  0.2849
   25MOL   H198 6006   4.295   6.745   4.959 -1.8483 -0.2994  0.1608
   25MOL   H199 6007   4.304   6.916   4.911  2.9839  0.1538 -0.8884
   25MOL   H200 6008   4.389   6.854   4.690  2.8132 -0.6311  0.2124
   25MOL   H201 6009   4.432   6.633   4.615  0.7401 -0.4916  1.5048
   25MOL   H202 6010   4.265   6.661   4.606 -0.3753  0.9898  0.2062
   25MOL   H203 6011   4.434   6.505   4.799  1.1911 -0.4273 -1.3883
   25MOL   H204 6012   4.262   6.523   4.825 -0.5987  0.4614 -0.7456
   25MOL   H205 6013   4.338   6.429   4.690  0.6641 -1.3417  3.0377
   25MOL   C206 6014   4.525   6.766   4.814 -0.6069 -0.1812  0.0602
   25MOL   C207 6015   4.589   6.875   4.896  0.1189 -0.5201  0.1255
   25MOL   C208 6016   4.585   7.017   4.838  0.4255 -0.4463  0.8890
   25MOL   C209 6017   4.583   7.132   4.953 -0.4072  0.6678  0.8172
   25MOL   H210 6018   4.595   6.726   4.741 -0.2666 -1.6155  1.1316
   25MOL   H211 6019   4.525   6.684   4.887  0.3053 -1.3381 -1.2124
   25MOL   H212 6020   4.538   6.874   4.993 -1.5105 -1.6838 -0.7133
   25MOL   H213 6021   4.490   7.029   4.786  0.2147 -2.5855  0.7348
   25MOL   H214 6022   4.671   7.043   4.777 -0.2766 -0.3644 -0.0703
   25MOL   H215 6023   4.571   7.227   4.900 -1.0979  0.8115  1.2360
   25MOL   H216 6024   4.495   7.123   5.015 -2.6361 -0.3953 -2.3582
   25MOL   H217 6025   4.673   7.156   5.010 -0.5655 -0.6109  1.6161
   25MOL   C218 6026   4.733   6.839   4.938  1.0769  0.1115  0.8849
   25MOL   C219 6027   4.756   6.710   5.028 -0.3755  0.8140 -0.7978
   25MOL   C220 6028   4.705   6.731   5.171  0.6519  0.2192  0.1672
   25MOL   C221 6029   4.714   6.622   5.277 -0.2348  0.4055  0.2169
   25MOL   H222 6030   4.778   6.929   4.981  1.7471  0.1521  0.1154
   25MOL   H223 6031   4.792   6.825   4.847 -1.6648  1.6091 -1.2025
   25MOL   H224 6032   4.690   6.629   4.997  0.4811 -0.7283  1.2626
   25MOL   H225 6033   4.598   6.751   5.177  0.6818  0.7186 -0.8224
   25MOL   H226 6034   4.760   6.817   5.209  1.2247 -0.3549  0.6543
   25MOL   H227 6035   4.673   6.534   5.228 -0.1060  1.0567 -1.0777
   25MOL   H228 6036   4.816   6.610   5.313  0.4996  1.7447 -1.3556
   25MOL   H229 6037   4.648   6.661   5.355 -1.0679  0.4158 -0.4796
   25MOL   C230 6038   4.905   6.673   5.038  0.1413  1.1286  0.0565
   25MOL   C231 6039   4.951   6.599   4.911 -0.6931  0.3927  0.1550
   25MOL   C232 6040   4.906   6.453   4.916  0.0886 -0.5799  0.3457
   25MOL   C233 6041   4.986   6.357   4.829  1.2048  0.0491 -0.1710
   25MOL   H234 6042   4.925   6.601   5.117  1.5940  1.9019  0.4129
   25MOL   H235 6043   4.957   6.765   5.063 -0.2507  1.6768 -1.0646
   25MOL   H236 6044   4.934   6.648   4.815 -0.2819 -1.2639 -0.7785
   25MOL   H237 6045   4.802   6.455   4.884  0.5682  0.5887 -1.2437
   25MOL   H238 6046   4.906   6.411   5.017 -0.2933  0.3743  0.7424
   25MOL   H239 6047   5.092   6.368   4.851  1.2413  0.1862 -0.4127
   25MOL   H240 6048   4.959   6.253   4.843 -1.4378  0.6570 -0.4419
   25MOL   H241 6049   4.980   6.378   4.722 -0.2656 -2.4119 -0.5969
   25MOL   H242 6050   5.059   6.605   4.903 -0.6021  1.0902  1.8170
   26MOL     C1 6051   1.325   0.981   3.083  0.5274 -0.0932  0.8193
   26MOL     C2 6052   1.196   1.000   3.175  0.8852  0.4119  0.0316
   26MOL     C3 6053   1.156   0.863   3.237  0.3485 -0.9245 -0.0232
   26MOL     C4 6054   1.257   0.793   3.332 -0.2197  0.1187  0.6583
   26MOL     H5 6055   1.342   1.061   3.010 -2.7837 -1.0929 -1.1386
   26MOL     H6 6056   1.419   0.973   3.137  0.2238 -1.3211  1.1672
   26MOL     H7 6057   1.217   1.062   3.262 -1.5107  0.3948  0.6567
   26MOL     H8 6058   1.131   0.788   3.162 -0.6566 -2.4422  1.7756
   26MOL     H9 6059   1.067   0.880   3.298  0.4536  0.1598 -0.1723
   26MOL    H10 6060   1.232   0.691   3.364  2.5097 -0.0067  2.5316
   26MOL    H11 6061   1.350   0.792   3.275 -0.5054  0.1672  0.1866
   26MOL    H12 6062   1.273   0.852   3.422 -1.7282 -0.1235  1.1015
   26MOL    H13 6063   1.326   0.884   3.035  0.8120 -0.9582  2.5427
   26MOL    C14 6064   1.078   1.048   3.084 -0.1489 -0.2110  0.1343
   26MOL    C15 6065   0.940   1.088   3.148  0.6100  0.2629  0.3125
   26MOL    C16 6066   0.833   1.098   3.041 -0.4545  0.6627  0.4780
   26MOL    C17 6067   0.818   1.233   2.966 -0.2669  0.4762  0.5789
   26MOL    H18 6068   1.054   0.968   3.014 -1.8177 -1.2926  1.9066
   26MOL    H19 6069   1.107   1.132   3.020 -0.9769  0.1009  0.1548
   26MOL    H20 6070   0.913   0.997   3.201  0.8524 -0.3340 -0.5770
   26MOL    H21 6071   0.738   1.105   3.094  0.4910  3.6519  1.8724
   26MOL    H22 6072   0.841   1.022   2.963  1.1670  1.6539 -0.3366
   26MOL    H23 6073   0.911   1.259   2.915 -0.0107  2.6153  2.0793
   26MOL    H24 6074   0.744   1.242   2.886  1.6615 -0.3214 -1.3768
   26MOL    H25 6075   0.810   1.312   3.040 -0.3332  0.8740  0.1499
   26MOL    C26 6076   0.959   1.195   3.253 -0.0714 -0.2250  0.8810
   26MOL    C27 6077   0.849   1.196   3.363 -0.4675  0.8992  0.5551
   26MOL    C28 6078   0.828   1.339   3.411  0.4598 -0.5934 -0.7286
   26MOL    C29 6079   0.750   1.435   3.328 -0.0590 -0.2569  0.5850
   26MOL    H30 6080   0.957   1.292   3.205  0.0406  0.1728  1.6751
   26MOL    H31 6081   1.052   1.202   3.310 -0.3857 -1.5979  1.6037
   26MOL    H32 6082   0.754   1.170   3.315  0.1599 -0.5049  0.0448
   26MOL    H33 6083   0.920   1.386   3.447 -0.8069  1.3570  0.0972
   26MOL    H34 6084   0.770   1.326   3.503  1.1477 -0.5031 -0.2825
   26MOL    H35 6085   0.806   1.472   3.242 -0.3022  0.6022  0.7911
   26MOL    H36 6086   0.660   1.384   3.293 -0.5149  0.7849  0.2216
   26MOL    H37 6087   0.718   1.518   3.391 -0.3799  0.3964 -0.4219
   26MOL    C38 6088   0.885   1.096   3.475 -0.5531 -0.1466 -0.1471
   26MOL    C39 6089   0.773   1.045   3.573 -1.3439 -0.1123 -0.1983
   26MOL    C40 6090   0.834   0.973   3.695  0.3137 -0.4061 -0.4904
   26MOL    C41 6091   0.927   0.855   3.665  0.1233 -0.1467 -0.0882
   26MOL    H42 6092   0.966   1.146   3.527 -1.5976 -1.1913  2.5658
   26MOL    H43 6093   0.930   1.009   3.425 -0.5752  0.5699 -1.4408
   26MOL    H44 6094   0.717   1.131   3.612 -1.0129 -0.4870  1.1036
   26MOL    H45 6095   0.753   0.932   3.756  1.3569 -0.1504  1.0849
   26MOL    H46 6096   0.885   1.039   3.765  1.4202 -1.6559 -0.0943
   26MOL    H47 6097   0.889   0.777   3.600 -0.9955 -0.0431  0.4234
   26MOL    H48 6098   1.018   0.893   3.618  0.5237 -1.7006 -0.6071
   26MOL    H49 6099   0.941   0.799   3.757 -2.6618 -1.3033 -0.3229
   26MOL    C50 6100   0.667   0.955   3.500  0.9491  0.4547  0.4677
   26MOL    C51 6101   0.520   0.972   3.560  0.7154 -0.5151 -0.3625
   26MOL    C52 6102   0.438   0.853   3.516 -0.1462  0.7856  0.3209
   26MOL    C53 6103   0.453   0.734   3.604 -0.5502  0.7537  0.2373
   26MOL    H54 6104   0.695   0.850   3.513  0.8908  0.4136  0.2590
   26MOL    H55 6105   0.663   0.978   3.394 -1.6571 -0.7516  0.2675
   26MOL    H56 6106   0.514   0.982   3.668  0.2986  2.3455 -0.6118
   26MOL    H57 6107   0.462   0.826   3.414  1.3285 -0.3867  0.9567
   26MOL    H58 6108   0.332   0.876   3.504 -0.5832 -1.4721 -0.3895
   26MOL    H59 6109   0.382   0.740   3.687 -1.3477  0.4167 -0.4085
   26MOL    H60 6110   0.433   0.635   3.564  0.8314  0.1100  1.1411
   26MOL    H61 6111   0.558   0.721   3.629  0.0657  3.1469 -0.8678
   26MOL    C62 6112   0.459   1.104   3.497  0.4127 -0.0409 -0.7245
   26MOL    C63 6113   0.329   1.154   3.578 -0.1566  0.3870  0.3407
   26MOL    C64 6114   0.212   1.199   3.494 -0.7574  0.6082  0.2814
   26MOL    C65 6115   0.237   1.339   3.434  0.2403 -0.1463 -0.2613
   26MOL    H66 6116   0.436   1.091   3.391  0.0134  2.1466 -0.9451
   26MOL    H67 6117   0.534   1.181   3.516  0.0608 -0.1992  1.4537
   26MOL    H68 6118   0.282   1.063   3.615  0.1091 -1.2176 -3.0172
   26MOL    H69 6119   0.119   1.191   3.550 -1.2086 -2.0290 -0.8030
   26MOL    H70 6120   0.215   1.129   3.411  2.8438  1.2206 -0.1968
   26MOL    H71 6121   0.161   1.376   3.365  1.8233  0.5960 -1.6782
   26MOL    H72 6122   0.244   1.425   3.501  1.1790  0.0032 -0.5324
   26MOL    H73 6123   0.333   1.333   3.382  1.3962 -0.1454  1.7982
   26MOL    C74 6124   0.355   1.249   3.700 -0.0942 -0.2826 -0.2646
   26MOL    C75 6125   0.434   1.211   3.814  0.1893  0.3372  0.1981
   26MOL    C76 6126   0.367   1.103   3.888 -0.0394  0.1338  0.2114
   26MOL    C77 6127   0.460   1.020   3.982 -0.5908 -0.3002  0.4317
   26MOL    H78 6128   0.257   1.286   3.733  0.9421  1.8350  0.5486
   26MOL    H79 6129   0.411   1.330   3.654  0.2455  0.3947  1.3029
   26MOL    H80 6130   0.528   1.178   3.772 -0.3761 -2.5079  1.0889
   26MOL    H81 6131   0.316   1.032   3.823  2.3190 -2.2451  0.8537
   26MOL    H82 6132   0.290   1.152   3.947  1.7291  0.4616  2.3097
   26MOL    H83 6133   0.531   0.951   3.936 -1.0413 -1.2470  1.1531
   26MOL    H84 6134   0.509   1.087   4.053  1.4480 -2.3443  1.0025
   26MOL    H85 6135   0.401   0.948   4.039 -0.0689 -0.3442  0.9167
   26MOL    C86 6136   0.479   1.329   3.908 -0.3670 -1.2500 -0.3948
   26MOL    C87 6137   0.598   1.411   3.849  0.3443 -0.2302 -0.8534
   26MOL    C88 6138   0.732   1.349   3.898 -0.5396 -0.3750  0.4698
   26MOL    C89 6139   0.862   1.401   3.826  0.3137 -0.7329 -0.2684
   26MOL    H90 6140   0.487   1.298   4.012 -0.6262 -0.6850 -0.2059
   26MOL    H91 6141   0.392   1.394   3.910 -0.6864 -1.6748 -0.2676
   26MOL    H92 6142   0.608   1.393   3.742 -0.0230  0.6191 -1.0373
   26MOL    H93 6143   0.738   1.240   3.894 -0.8709 -0.3475 -0.9607
   26MOL    H94 6144   0.748   1.373   4.003 -2.6220 -0.4469  0.8272
   26MOL    H95 6145   0.877   1.342   3.735  1.7925 -2.6833  1.1792
   26MOL    H96 6146   0.856   1.504   3.792 -1.0269 -0.6397  0.2262
   26MOL    H97 6147   0.940   1.396   3.903  1.4047  0.9237 -1.2381
   26MOL    C98 6148   0.588   1.562   3.877 -0.6005 -0.7406  0.6161
   26MOL    C99 6149   0.486   1.632   3.789  0.4373 -0.4351  0.5117
   26MOL   C100 6150   0.529   1.651   3.643  0.0505 -0.2186  0.5797
   26MOL   C101 6151   0.636   1.756   3.611  0.8519 -0.3199  0.7955
   26MOL   H102 6152   0.683   1.611   3.858 -2.1293  0.9909 -3.0769
   26MOL   H103 6153   0.561   1.584   3.981  0.4047  4.5241 -0.0620
   26MOL   H104 6154   0.396   1.572   3.774  0.0074 -0.3901  2.6831
   26MOL   H105 6155   0.440   1.683   3.588  0.3862 -1.9985 -1.0343
   26MOL   H106 6156   0.567   1.564   3.589 -0.6870  0.7172 -1.4648
   26MOL   H107 6157   0.635   1.777   3.504 -0.3646 -0.1385  0.8276
   26MOL   H108 6158   0.608   1.845   3.667 -3.8968 -0.5885 -0.8688
   26MOL   H109 6159   0.730   1.711   3.642 -0.7778 -2.2575  3.2285
   26MOL   C110 6160   0.444   1.764   3.852 -0.4485  0.3718 -0.1034
   26MOL   C111 6161   0.328   1.841   3.791 -0.1151 -0.4073 -0.2909
   26MOL   C112 6162   0.360   1.989   3.771 -0.4492  0.3363  0.1922
   26MOL   C113 6163   0.384   2.068   3.910 -0.2796  0.0873 -0.2410
   26MOL   H114 6164   0.531   1.827   3.867 -0.6452  0.0558  2.6601
   26MOL   H115 6165   0.423   1.747   3.958  2.1539 -1.1627  0.2070
   26MOL   H116 6166   0.306   1.806   3.690 -3.4243  2.9532 -0.8292
   26MOL   H117 6167   0.271   2.030   3.724  0.0470  0.7972 -0.3612
   26MOL   H118 6168   0.447   2.003   3.706 -1.8812 -0.3939 -1.9226
   26MOL   H119 6169   0.491   2.059   3.927 -0.2628  0.2633 -0.2559
   26MOL   H120 6170   0.363   2.175   3.900  0.1148  0.5947  3.5354
   26MOL   H121 6171   0.335   2.017   3.993  1.4498 -2.4176 -0.6987
   26MOL   C122 6172   0.191   1.808   3.868 -0.2502  0.4222 -0.3745
   26MOL   C123 6173   0.138   1.660   3.870  0.3785 -0.1236  0.2861
   26MOL   C124 6174   0.078   1.623   3.735  0.1919 -0.0997  0.4001
   26MOL   C125 6175   0.016   1.488   3.705  0.8097 -0.0713 -0.6646
   26MOL   H126 6176   0.114   1.871   3.822 -1.3608  0.5242  1.5921
   26MOL   H127 6177   0.211   1.845   3.969  0.5978 -1.8672  0.3177
   26MOL   H128 6178   0.224   1.596   3.888 -1.1025 -2.1850  0.2044
   26MOL   H129 6179   0.158   1.629   3.661  1.0737  0.6093  1.3975
   26MOL   H130 6180   0.002   1.697   3.711 -0.3361 -0.4665  0.9263
   26MOL   H131 6181   0.077   1.404   3.738 -3.2239 -2.4622  1.1425
   26MOL   H132 6182   7.618   1.469   3.733  1.6720 -1.8070  1.5448
   26MOL   H133 6183   0.010   1.494   3.596  2.0084  1.7907 -0.6614
   26MOL   C134 6184   0.041   1.646   3.990  0.1097  0.2030  0.2265
   26MOL   C135 6185   0.098   1.635   4.132 -0.0021  0.4435 -0.0376
   26MOL   C136 6186   0.204   1.529   4.142 -0.0924  0.3944 -0.2705
   26MOL   C137 6187   0.176   1.380   4.089 -0.3763  0.0520 -0.4719
   26MOL   H138 6188   7.685   1.560   3.968  2.7064 -1.2390 -1.7721
   26MOL   H139 6189   7.684   1.735   3.986  0.7581  0.6143 -4.1315
   26MOL   H140 6190   0.151   1.728   4.152 -1.9731  1.2604  1.4748
   26MOL   H141 6191   0.232   1.527   4.247 -0.2209  0.6235 -0.2312
   26MOL   H142 6192   0.297   1.563   4.096 -0.1265  2.0089  0.8438
   26MOL   H143 6193   0.256   1.312   4.117 -1.8006 -0.8681  1.4524
   26MOL   H144 6194   0.085   1.351   4.142 -0.4174  1.6463  0.3919
   26MOL   H145 6195   0.154   1.366   3.983 -0.4734  0.2192 -0.4745
   26MOL   C146 6196   7.689   1.612   4.233  0.4248  0.0990 -0.1836
   26MOL   C147 6197   0.025   1.631   4.387 -0.2053 -0.6347 -0.0041
   26MOL   C148 6198   7.618   1.560   4.479 -0.2578  0.1160  0.3983
   26MOL   C149 6199   7.480   1.632   4.493  0.3792 -0.1933 -0.4456
   26MOL   H150 6200   7.652   1.510   4.223  1.3426 -0.2594 -0.0555
   26MOL   H151 6201   7.610   1.680   4.202  0.4983  0.3963  0.2617
   26MOL   H152 6202   0.118   1.574   4.398 -1.2231 -2.0227  1.6613
   26MOL   H153 6203   7.642   1.551   4.585  0.9011  0.5083  0.1815
   26MOL   H154 6204   7.609   1.454   4.455 -0.0299  0.3963 -1.0180
   26MOL   H155 6205   7.501   1.728   4.540  1.0794 -0.4870 -0.1465
   26MOL   H156 6206   7.442   1.645   4.392 -1.9980  0.2641  0.4908
   26MOL   H157 6207   7.410   1.577   4.555  0.9988 -0.4903  0.0018
   26MOL   C158 6208   0.052   1.782   4.423  0.3168 -0.4486 -0.2745
   26MOL   C159 6209   0.184   1.801   4.507 -0.0224 -0.4822  0.3877
   26MOL   C160 6210   0.159   1.751   4.650 -0.5763 -0.3024 -0.3134
   26MOL   C161 6211   0.288   1.727   4.731 -0.2151  0.3131  0.1804
   26MOL   H162 6212   7.676   1.839   4.466 -0.9367 -3.4363  1.4568
   26MOL   H163 6213   0.068   1.837   4.330  0.5049 -0.6761 -0.3765
   26MOL   H164 6214   0.267   1.737   4.479  1.2027 -0.4485  3.7157
   26MOL   H165 6215   0.105   1.656   4.652 -2.0497  0.5165 -0.5780
   26MOL   H166 6216   0.091   1.825   4.691 -2.0003 -1.4530 -0.5605
   26MOL   H167 6217   0.256   1.666   4.815 -0.5745 -1.8193 -1.4577
   26MOL   H168 6218   0.365   1.671   4.678 -0.3290 -0.3822  0.7532
   26MOL   H169 6219   0.332   1.821   4.765 -0.3977  0.6152 -0.4087
   26MOL   C170 6220   0.256   1.944   4.502  0.8750  0.5526 -0.1445
   26MOL   C171 6221   0.301   2.002   4.364  0.2191 -0.7166 -0.1765
   26MOL   C172 6222   0.394   1.901   4.290  0.1091  0.7455 -0.1345
   26MOL   C173 6223   0.523   1.863   4.368 -0.3321  0.7258 -0.0787
   26MOL   H174 6224   0.342   1.935   4.570  1.3885 -1.8660 -1.0597
   26MOL   H175 6225   0.182   2.006   4.552  0.2426 -0.0230 -0.3650
   26MOL   H176 6226   0.214   2.002   4.298 -0.0566 -2.1405  0.1646
   26MOL   H177 6227   0.414   1.948   4.193 -0.1718  0.0382 -0.5333
   26MOL   H178 6228   0.332   1.813   4.277  0.6892  0.3561 -0.2938
   26MOL   H179 6229   0.591   1.829   4.290  0.7040 -0.7935  1.4606
   26MOL   H180 6230   0.565   1.949   4.420  0.3381  0.8262 -0.7709
   26MOL   H181 6231   0.489   1.789   4.440  0.6021 -0.5337 -0.9079
   26MOL   C182 6232   0.362   2.144   4.376  0.6796  0.9816  0.1116
   26MOL   C183 6233   0.261   2.259   4.385 -1.1275 -0.2518 -0.6088
   26MOL   C184 6234   0.216   2.311   4.242  0.1271  0.6588 -0.0129
   26MOL   C185 6235   0.091   2.394   4.242  0.2032  0.2041  0.4053
   26MOL   H186 6236   0.415   2.167   4.283  0.4900 -0.8564 -0.4772
   26MOL   H187 6237   0.430   2.137   4.461  1.6163 -2.1789 -0.8206
   26MOL   H188 6238   0.177   2.212   4.436  0.5855 -1.0535  1.5627
   26MOL   H189 6239   0.210   2.218   4.185  1.3766 -0.1531  1.1686
   26MOL   H190 6240   0.298   2.366   4.196  0.7073  0.6837  1.0309
   26MOL   H191 6241   0.016   2.352   4.309 -0.3219 -0.6082 -0.6640
   26MOL   H192 6242   0.116   2.494   4.278 -2.1377  1.3187 -0.9551
   26MOL   H193 6243   0.046   2.418   4.146 -0.1932 -2.1445 -0.0372
   26MOL   C194 6244   0.306   2.371   4.484 -0.0962 -0.3021 -0.1432
   26MOL   C195 6245   0.319   2.339   4.639 -0.2403 -0.5751 -0.4946
   26MOL   C196 6246   0.181   2.302   4.703  0.2603 -0.4092 -0.6966
   26MOL   C197 6247   0.180   2.261   4.857  0.2126  0.3609  0.1107
   26MOL   H198 6248   0.237   2.452   4.463 -1.6855 -1.7306 -0.4895
   26MOL   H199 6249   0.403   2.409   4.451  0.8502 -0.5436  2.2132
   26MOL   H200 6250   0.397   2.265   4.658 -0.4735 -0.7360 -0.1439
   26MOL   H201 6251   0.143   2.219   4.643  1.6734  0.0621 -2.2676
   26MOL   H202 6252   0.111   2.383   4.682 -0.0896 -1.3024 -3.1411
   26MOL   H203 6253   0.115   2.179   4.887  2.8683 -1.9378 -0.2281
   26MOL   H204 6254   0.280   2.223   4.878 -0.7415 -2.5084 -0.4356
   26MOL   H205 6255   0.155   2.343   4.925  0.0400  1.3309 -1.0902
   26MOL   C206 6256   0.364   2.473   4.723  0.0209 -0.3376  0.2848
   26MOL   C207 6257   0.509   2.524   4.691 -0.5308 -0.7818  0.1601
   26MOL   C208 6258   0.610   2.426   4.749  0.2466 -0.4913  0.1922
   26MOL   C209 6259   0.758   2.462   4.714  0.5746  0.0821 -0.1356
   26MOL   H210 6260   0.370   2.463   4.831 -0.9830  0.3203  0.4140
   26MOL   H211 6261   0.291   2.553   4.709  2.0390  1.7248  1.2022
   26MOL   H212 6262   0.526   2.537   4.584 -0.0308 -1.8891  0.0884
   26MOL   H213 6263   0.589   2.332   4.699 -1.3806  0.3920 -0.8224
   26MOL   H214 6264   0.601   2.429   4.858  2.2560  2.4703  0.3382
   26MOL   H215 6265   0.788   2.549   4.773 -0.4447 -0.0231  0.5453
   26MOL   H216 6266   0.821   2.382   4.753 -1.0153 -2.3626 -2.4314
   26MOL   H217 6267   0.777   2.470   4.607  0.1087 -0.0524 -0.2254
   26MOL   C218 6268   0.537   2.670   4.743  0.0510  0.1847 -0.2779
   26MOL   C219 6269   0.463   2.785   4.672 -0.1503  0.0096  0.7664
   26MOL   C220 6270   0.477   2.790   4.520  0.5451  0.6644  0.0850
   26MOL   C221 6271   0.620   2.783   4.467  0.1830 -0.7104 -0.4831
   26MOL   H222 6272   0.642   2.698   4.748 -0.2002  0.8590  1.9322
   26MOL   H223 6273   0.510   2.671   4.848  2.6167  0.9767  0.4035
   26MOL   H224 6274   0.356   2.774   4.692  0.5266 -1.6303  3.7550
   26MOL   H225 6275   0.433   2.884   4.487 -0.2222  0.3499  0.2080
   26MOL   H226 6276   0.416   2.714   4.471  1.3877 -1.1887  1.8474
   26MOL   H227 6277   0.682   2.872   4.482  0.8693 -0.9827 -1.6553
   26MOL   H228 6278   0.668   2.692   4.504 -1.8543 -1.7556 -0.3537
   26MOL   H229 6279   0.617   2.768   4.360  0.9509 -1.6709 -0.3806
   26MOL   C230 6280   0.501   2.925   4.734 -0.2848  0.0891  0.1093
   26MOL   C231 6281   0.440   2.931   4.874  0.6690  0.5180 -0.4833
   26MOL   C232 6282   0.470   3.076   4.937 -0.1600  0.6620 -0.1839
   26MOL   C233 6283   0.431   3.082   5.086 -0.0867  0.7202  0.1720
   26MOL   H234 6284   0.455   3.008   4.681  0.2031 -0.6251 -1.4613
   26MOL   H235 6285   0.610   2.933   4.737 -0.3728  0.9850  3.8048
   26MOL   H236 6286   0.331   2.926   4.867  0.6616  0.2148 -0.1606
   26MOL   H237 6287   0.431   3.162   4.883  2.1570  1.9310  0.0985
   26MOL   H238 6288   0.577   3.096   4.941 -0.3388  1.8964 -1.5276
   26MOL   H239 6289   0.326   3.055   5.096 -0.0719  0.4595 -0.3560
   26MOL   H240 6290   0.493   3.027   5.157 -0.2913  0.1457 -0.0874
   26MOL   H241 6291   0.443   3.185   5.120  3.4981  0.8975 -1.3768
   26MOL   H242 6292   0.459   2.845   4.939 -0.6874  1.0020  0.5896
   27MOL     C1 6293   6.335   2.272   2.118  0.1007  0.9617 -0.5387
   27MOL     C2 6294   6.375   2.388   2.021  0.6794  0.6462 -0.3151
   27MOL     C3 6295   6.275   2.390   1.900  0.1135 -0.1667  0.2802
   27MOL     C4 6296   6.134   2.452   1.934 -0.1838  0.0929 -0.1809
   27MOL     H5 6297   6.401   2.256   2.204  0.9626 -1.2564 -1.5772
   27MOL     H6 6298   6.237   2.289   2.162 -0.1095  0.2681 -0.7247
   27MOL     H7 6299   6.351   2.479   2.076 -0.4191  1.1245 -1.5643
   27MOL     H8 6300   6.271   2.283   1.880 -0.2492 -0.4759  1.9217
   27MOL     H9 6301   6.302   2.437   1.806 -0.3751 -0.4226  0.0155
   27MOL    H10 6302   6.072   2.461   1.845  2.6023 -2.0968 -2.4300
   27MOL    H11 6303   6.090   2.376   1.998 -0.3383  1.9864  2.0380
   27MOL    H12 6304   6.135   2.548   1.987 -1.2309  0.4142 -0.7387
   27MOL    H13 6305   6.340   2.177   2.064  1.7006  0.6771  0.0564
   27MOL    C14 6306   6.524   2.389   1.981  0.0093  0.9165  0.0464
   27MOL    C15 6307   6.577   2.523   1.936 -0.8509 -0.9231 -0.4460
   27MOL    C16 6308   6.709   2.508   1.858  0.2757 -0.4553 -0.1742
   27MOL    C17 6309   6.822   2.441   1.938 -0.2937  0.3195 -0.1335
   27MOL    H18 6310   6.543   2.313   1.905  0.1864 -0.4730  1.4435
   27MOL    H19 6311   6.579   2.361   2.072  0.0385 -0.9869 -0.5305
   27MOL    H20 6312   6.501   2.558   1.867 -1.3443 -2.8736 -0.9398
   27MOL    H21 6313   6.744   2.607   1.830 -0.5125 -0.7535 -2.3831
   27MOL    H22 6314   6.690   2.451   1.766 -1.5330 -1.3630  0.7407
   27MOL    H23 6315   6.916   2.481   1.898 -1.1119  1.5036 -0.9114
   27MOL    H24 6316   6.816   2.456   2.045 -0.5948  1.2252 -0.2759
   27MOL    H25 6317   6.819   2.335   1.912 -1.3810  0.5524 -1.0087
   27MOL    C26 6318   6.582   2.628   2.054  0.2301  0.3217 -0.2190
   27MOL    C27 6319   6.576   2.781   2.007 -0.3195  0.4232 -0.1123
   27MOL    C28 6320   6.629   2.869   2.121  0.1470 -0.3625  0.9846
   27MOL    C29 6321   6.534   2.884   2.241 -0.2151  0.2280  0.4132
   27MOL    H30 6322   6.678   2.614   2.104 -0.4359 -0.1422  0.9490
   27MOL    H31 6323   6.496   2.612   2.119  0.2334  1.5095  0.0884
   27MOL    H32 6324   6.660   2.796   1.939  1.0715  1.8562  1.8730
   27MOL    H33 6325   6.652   2.973   2.100 -1.2357 -0.0345  1.0284
   27MOL    H34 6326   6.712   2.818   2.170  1.7122  1.6267  0.4448
   27MOL    H35 6327   6.586   2.928   2.327 -0.1740 -0.4916  0.7620
   27MOL    H36 6328   6.446   2.940   2.208 -0.4367 -1.2147 -1.5322
   27MOL    H37 6329   6.510   2.786   2.281  0.0527  0.0730  0.1901
   27MOL    C38 6330   6.442   2.828   1.943 -0.1003  0.5029  0.0377
   27MOL    C39 6331   6.442   2.943   1.851  0.5334 -0.3833  0.4064
   27MOL    C40 6332   6.302   3.009   1.866  0.0560  0.1130  0.9386
   27MOL    C41 6333   6.192   2.924   1.831 -0.2481  0.0415 -0.0578
   27MOL    H42 6334   6.367   2.851   2.020 -1.1158 -0.4054 -0.6684
   27MOL    H43 6335   6.390   2.747   1.892  0.2230 -1.0841  2.1314
   27MOL    H44 6336   6.514   3.017   1.887  0.1038 -0.1695  0.8457
   27MOL    H45 6337   6.301   3.099   1.804  0.4255 -0.9355 -0.6081
   27MOL    H46 6338   6.285   3.050   1.967 -1.4460  0.5921  0.5163
   27MOL    H47 6339   6.095   2.964   1.862  1.2932  1.7260  2.7358
   27MOL    H48 6340   6.191   2.902   1.724  2.3749 -2.2618  0.3432
   27MOL    H49 6341   6.194   2.823   1.872 -0.0551 -0.7216 -1.9111
   27MOL    C50 6342   6.483   2.898   1.703  0.2500  0.5004  0.0718
   27MOL    C51 6343   6.509   3.009   1.594 -0.0971 -0.1770 -0.2136
   27MOL    C52 6344   6.487   2.974   1.452  0.3766 -0.3431  0.1475
   27MOL    C53 6345   6.345   2.911   1.427  0.0023  0.1434 -0.0768
   27MOL    H54 6346   6.409   2.824   1.672  1.5936 -0.5062 -0.8217
   27MOL    H55 6347   6.572   2.835   1.705  0.1374  0.2738 -1.2221
   27MOL    H56 6348   6.440   3.091   1.610  1.3816  0.6873  1.9194
   27MOL    H57 6349   6.559   2.898   1.423 -0.7111 -0.8290 -1.3406
   27MOL    H58 6350   6.506   3.064   1.393 -1.3165  0.1927  0.3816
   27MOL    H59 6351   6.321   2.920   1.321 -0.6317 -0.6232 -0.0029
   27MOL    H60 6352   6.335   2.805   1.451  0.5720 -0.0297 -0.6072
   27MOL    H61 6353   6.260   2.961   1.473 -1.8184 -2.1655 -0.8799
   27MOL    C62 6354   6.651   3.072   1.606 -0.6742 -0.1127  0.0076
   27MOL    C63 6355   6.651   3.209   1.683 -1.1228 -0.3841  0.4250
   27MOL    C64 6356   6.596   3.319   1.592  0.4254  0.1374 -0.2079
   27MOL    C65 6357   6.552   3.438   1.679 -0.0031 -0.2918  0.3847
   27MOL    H66 6358   6.713   3.078   1.517  1.3242  2.2253  1.4861
   27MOL    H67 6359   6.714   3.012   1.672  0.7009  1.0581 -0.2004
   27MOL    H68 6360   6.584   3.197   1.767 -1.4610  1.4055  0.4335
   27MOL    H69 6361   6.520   3.280   1.525  0.2939  1.6914 -1.0057
   27MOL    H70 6362   6.672   3.360   1.525 -0.5636  2.4621  0.0338
   27MOL    H71 6363   6.502   3.512   1.618  1.9236  0.8125  0.0905
   27MOL    H72 6364   6.477   3.409   1.753 -0.0779  4.1436  2.1729
   27MOL    H73 6365   6.631   3.491   1.733  0.3869  0.6383 -1.0654
   27MOL    C74 6366   6.783   3.246   1.743  0.8024 -0.1676  0.9123
   27MOL    C75 6367   6.817   3.172   1.876 -0.3292 -0.1426  0.0751
   27MOL    C76 6368   6.782   3.239   2.008  0.1824  0.1127 -0.0019
   27MOL    C77 6369   6.640   3.294   2.036 -0.2628 -0.8588  0.4395
   27MOL    H78 6370   6.781   3.350   1.777 -1.4232  0.0048  0.2864
   27MOL    H79 6371   6.864   3.240   1.670  2.0326 -0.5821  2.2864
   27MOL    H80 6372   6.761   3.079   1.870  0.6988 -0.6828 -1.5145
   27MOL    H81 6373   6.857   3.318   2.021  0.2461  0.2218 -0.9510
   27MOL    H82 6374   6.817   3.168   2.083 -0.9591 -0.7726 -0.3018
   27MOL    H83 6375   6.637   3.335   2.137 -0.5944  1.5220 -0.4943
   27MOL    H84 6376   6.605   3.377   1.974 -2.4930 -0.5736  2.0165
   27MOL    H85 6377   6.572   3.211   2.018  0.4634 -1.6104  1.0972
   27MOL    C86 6378   6.965   3.132   1.877  0.3722  1.0130  0.7697
   27MOL    C87 6379   7.010   3.006   1.793 -0.2756  0.0776  0.3567
   27MOL    C88 6380   6.947   2.876   1.831 -0.2882  0.0196 -0.1069
   27MOL    C89 6381   6.962   2.823   1.976  0.0242  0.0000 -0.1737
   27MOL    H90 6382   7.009   3.120   1.975  0.0117 -0.4258  0.7695
   27MOL    H91 6383   7.021   3.216   1.837  0.2254  1.0256  0.5891
   27MOL    H92 6384   6.981   3.024   1.690  1.4194  0.7375 -0.0268
   27MOL    H93 6385   6.971   2.804   1.753  0.5584 -0.5692  0.6934
   27MOL    H94 6386   6.839   2.887   1.822 -0.7548 -1.5895  2.9824
   27MOL    H95 6387   6.927   2.894   2.050  0.4751  0.0034  0.0328
   27MOL    H96 6388   6.888   2.745   1.998 -0.5989  0.5439 -0.3298
   27MOL    H97 6389   7.065   2.794   1.997 -0.2580  0.1780  1.4778
   27MOL    C98 6390   7.169   2.996   1.786 -0.6765  0.0816 -0.3286
   27MOL    C99 6391   7.247   3.114   1.726 -0.9671  0.0758 -0.3330
   27MOL   C100 6392   7.222   3.138   1.579  0.2177 -0.0010  0.7327
   27MOL   C101 6393   7.249   3.033   1.471  0.4285  0.3577 -1.0496
   27MOL   H102 6394   7.181   2.909   1.721  0.1006  0.9093 -1.3256
   27MOL   H103 6395   7.202   2.975   1.887  1.9707  1.1651 -0.9251
   27MOL   H104 6396   7.210   3.209   1.765 -0.8106  0.7231 -1.7387
   27MOL   H105 6397   7.269   3.230   1.544 -1.0943  0.9549  1.4178
   27MOL   H106 6398   7.117   3.163   1.563 -0.0645 -1.4377  0.2727
   27MOL   H107 6399   7.216   3.073   1.375 -0.3271  0.4009 -0.7827
   27MOL   H108 6400   7.351   2.997   1.466 -0.6345 -2.8689 -1.0746
   27MOL   H109 6401   7.183   2.948   1.488  0.9225  0.3561  1.0746
   27MOL   C110 6402   7.393   3.098   1.762 -0.4339 -0.2035 -0.1205
   27MOL   C111 6403   7.491   3.206   1.709  0.2492 -0.0500  0.3503
   27MOL   C112 6404   7.642   3.174   1.743  0.2385  0.1142  0.2242
   27MOL   C113 6405   7.705   3.054   1.657  1.2124 -0.3307  0.7009
   27MOL   H114 6406   7.426   2.996   1.739 -1.1528 -0.4437 -0.0861
   27MOL   H115 6407   7.394   3.097   1.871  1.4801 -0.8386 -0.1333
   27MOL   H116 6408   7.491   3.204   1.600 -1.0037  1.5868  0.2998
   27MOL   H117 6409   7.649   3.161   1.851 -1.4992 -2.3223  0.1090
   27MOL   H118 6410   7.701   3.259   1.711 -0.8622  0.9325  0.3610
   27MOL   H119 6411   7.655   2.962   1.689 -1.5334  1.3618  1.4341
   27MOL   H120 6412   7.664   3.065   1.557 -0.0775  1.2535  1.3778
   27MOL   H121 6413   0.108   3.055   1.654  1.2156  1.8932  0.9300
   27MOL   C122 6414   7.454   3.353   1.749 -0.0956  0.4582 -0.4875
   27MOL   C123 6415   7.529   3.475   1.693  0.0172 -0.9368  0.1166
   27MOL   C124 6416   7.640   3.526   1.785  0.2586 -0.3959 -0.7763
   27MOL   C125 6417   0.044   3.583   1.702 -0.2416  0.0890 -0.2711
   27MOL   H126 6418   7.453   3.368   1.857  2.3714 -3.1235  0.1331
   27MOL   H127 6419   7.347   3.356   1.729  0.2320 -0.7054 -2.6147
   27MOL   H128 6420   7.569   3.447   1.596  1.4836 -1.1777  0.7833
   27MOL   H129 6421   7.673   3.446   1.851 -1.7494 -0.6061  0.0083
   27MOL   H130 6422   7.598   3.590   1.862 -1.2983 -1.2428 -0.8993
   27MOL   H131 6423   0.013   3.672   1.647  0.8070  1.1572  0.8184
   27MOL   H132 6424   0.124   3.613   1.771  1.1494  0.2770 -1.9442
   27MOL   H133 6425   0.092   3.516   1.631 -0.7650  0.2377 -0.7698
   27MOL   C134 6426   7.435   3.582   1.643  0.5788 -0.3717 -0.5121
   27MOL   C135 6427   7.372   3.557   1.500  0.5326  0.2386  0.0101
   27MOL   C136 6428   7.475   3.570   1.383  0.3100 -0.9865 -0.0700
   27MOL   C137 6429   7.415   3.562   1.240  0.5353 -0.0342  0.6888
   27MOL   H138 6430   7.485   3.679   1.648  2.2285 -1.2600  0.7296
   27MOL   H139 6431   7.354   3.584   1.716 -1.5929 -1.4498 -2.8545
   27MOL   H140 6432   7.340   3.454   1.511 -0.6427  0.3245 -2.4108
   27MOL   H141 6433   7.548   3.491   1.400  1.9185  0.8165  1.6883
   27MOL   H142 6434   7.525   3.665   1.398 -2.5158  0.4541  0.5605
   27MOL   H143 6435   7.338   3.488   1.258  0.4301 -0.3048 -0.7598
   27MOL   H144 6436   7.360   3.651   1.209  1.8683  0.4239 -0.4522
   27MOL   H145 6437   7.486   3.532   1.162  0.9535  2.7801 -0.0964
   27MOL   C146 6438   7.266   3.665   1.481 -0.4752  0.1233 -0.2195
   27MOL   C147 6439   7.137   3.666   1.572 -0.0212 -0.3086 -0.6113
   27MOL   C148 6440   7.072   3.530   1.590  0.2511 -0.1247  0.2469
   27MOL   C149 6441   7.028   3.459   1.467  0.6354 -0.5526  0.7117
   27MOL   H150 6442   7.227   3.649   1.381  2.4571 -2.6200 -1.0026
   27MOL   H151 6443   7.313   3.764   1.479  2.4782 -1.2261 -0.4190
   27MOL   H152 6444   7.167   3.701   1.671  1.3185 -1.5996 -0.5374
   27MOL   H153 6445   6.983   3.526   1.654 -1.0447  0.6272 -1.4808
   27MOL   H154 6446   7.136   3.451   1.629 -2.1294 -1.9140  0.6739
   27MOL   H155 6447   7.115   3.442   1.403  1.1815  0.2901  1.2093
   27MOL   H156 6448   6.977   3.364   1.481  0.5976 -0.7202 -0.5125
   27MOL   H157 6449   6.963   3.530   1.415 -0.2908 -1.6168  0.3974
   27MOL   C158 6450   7.034   3.771   1.535  0.1819  0.3177 -0.3024
   27MOL   C159 6451   6.904   3.789   1.614 -0.0068  0.7832  0.9233
   27MOL   C160 6452   6.814   3.909   1.555 -0.0524  0.2186 -0.0347
   27MOL   C161 6453   6.765   3.909   1.403 -0.0620 -0.4173  0.0550
   27MOL   H162 6454   6.996   3.756   1.434 -0.0885  0.0251 -0.1594
   27MOL   H163 6455   7.084   3.867   1.536 -0.0086  0.4286  1.9587
   27MOL   H164 6456   6.846   3.697   1.604  1.9848 -0.7408  3.0125
   27MOL   H165 6457   6.854   4.005   1.589 -0.3407  0.2681  0.1737
   27MOL   H166 6458   6.716   3.908   1.603 -1.1793 -1.9246 -2.2529
   27MOL   H167 6459   6.676   3.968   1.381  2.5123  3.8567  0.5150
   27MOL   H168 6460   6.846   3.949   1.343 -0.5665 -2.2332 -1.8824
   27MOL   H169 6461   6.748   3.806   1.373  2.1264 -0.0476 -2.5778
   27MOL   C170 6462   6.928   3.823   1.758  0.3622 -0.1920 -0.1897
   27MOL   C171 6463   6.816   3.861   1.860  0.1076 -0.2268  0.5199
   27MOL   C172 6464   6.885   3.862   2.005 -0.2350 -0.0926 -0.0889
   27MOL   C173 6465   6.991   3.977   2.021  0.4373  0.1955  0.6776
   27MOL   H174 6466   6.999   3.904   1.753 -0.2062  0.3033 -0.2920
   27MOL   H175 6467   6.985   3.741   1.802 -0.4380  0.4618  2.1339
   27MOL   H176 6468   6.784   3.963   1.836  1.1104  0.2407  1.1363
   27MOL   H177 6469   6.922   3.764   2.034 -1.4631 -1.0681 -1.6680
   27MOL   H178 6470   6.809   3.890   2.078 -0.5071  0.1784 -0.4731
   27MOL   H179 6471   6.951   4.071   1.984  1.3583  0.3690  0.1124
   27MOL   H180 6472   7.009   3.990   2.127 -2.1102  1.6863  0.9789
   27MOL   H181 6473   7.086   3.957   1.973 -0.6694 -0.7692 -1.2011
   27MOL   C182 6474   6.684   3.778   1.854 -0.7562  0.3492  0.3421
   27MOL   C183 6475   6.569   3.809   1.956  0.0195 -0.1002 -0.0786
   27MOL   C184 6476   6.474   3.684   1.942 -0.5350  0.2614 -0.1877
   27MOL   C185 6477   6.363   3.680   2.051 -0.4293 -0.4431  0.9439
   27MOL   H186 6478   6.729   3.683   1.881 -0.5261  0.8579  1.7828
   27MOL   H187 6479   6.641   3.766   1.754 -0.6895  2.9931 -0.0200
   27MOL   H188 6480   6.609   3.804   2.058  1.1095 -1.0369 -0.5342
   27MOL   H189 6481   6.539   3.596   1.939 -1.3949 -0.3755 -0.2577
   27MOL   H190 6482   6.437   3.684   1.840  0.1457  2.4256 -0.4506
   27MOL   H191 6483   6.297   3.766   2.064  1.3773  0.8775  1.7166
   27MOL   H192 6484   6.296   3.595   2.041 -1.2236 -0.0525  2.7118
   27MOL   H193 6485   6.397   3.657   2.152  0.0038  0.6017  1.0531
   27MOL   C194 6486   6.503   3.948   1.929 -0.0780  0.2275  0.5425
   27MOL   C195 6487   6.558   4.070   2.012 -0.1942 -0.1699  0.6305
   27MOL   C196 6488   6.514   4.049   2.158 -0.1560 -0.6281 -0.1162
   27MOL   C197 6489   6.598   4.128   2.257 -0.6116 -0.6812 -0.6606
   27MOL   H198 6490   6.394   3.950   1.940 -0.3828  1.7973 -2.4051
   27MOL   H199 6491   6.498   3.965   1.822  0.1705 -1.3428  0.2667
   27MOL   H200 6492   6.667   4.067   2.010 -0.2201 -1.6993  0.6946
   27MOL   H201 6493   6.503   3.948   2.196  2.1306 -0.4410  1.1413
   27MOL   H202 6494   6.411   4.087   2.159  0.0768  0.2885 -3.3029
   27MOL   H203 6495   6.567   4.232   2.251 -0.3363 -0.5663 -0.0888
   27MOL   H204 6496   6.580   4.100   2.360  0.9525  1.6107  0.2851
   27MOL   H205 6497   6.703   4.128   2.227 -0.8292 -0.8097 -1.4331
   27MOL   C206 6498   6.508   4.207   1.956  0.4282  0.0537  0.6802
   27MOL   C207 6499   6.586   4.279   1.843 -0.4984  0.4271 -0.2663
   27MOL   C208 6500   6.734   4.301   1.879 -0.1251  0.4845 -0.2274
   27MOL   C209 6501   6.772   4.381   1.999  0.1644  0.0315 -0.3835
   27MOL   H210 6502   6.498   4.266   2.047 -0.7001 -0.7167  1.0792
   27MOL   H211 6503   6.406   4.191   1.919  1.1356 -1.3423 -0.7003
   27MOL   H212 6504   6.592   4.206   1.762  2.2960 -0.5684  0.7413
   27MOL   H213 6505   6.781   4.345   1.790 -1.6499 -0.8971 -1.7540
   27MOL   H214 6506   6.792   4.210   1.893 -0.5981 -0.0318 -1.4771
   27MOL   H215 6507   6.698   4.455   2.030  1.1567  0.2497  1.5773
   27MOL   H216 6508   6.781   4.318   2.088 -3.3151  0.8423  0.6121
   27MOL   H217 6509   6.876   4.415   1.995 -0.2440  1.0943 -2.1170
   27MOL   C218 6510   6.517   4.404   1.792 -0.0617 -0.6354  0.0312
   27MOL   C219 6511   6.567   4.484   1.675 -0.6270 -0.3549 -0.1637
   27MOL   C220 6512   6.494   4.620   1.666 -0.1147  0.2874  0.1503
   27MOL   C221 6513   6.555   4.720   1.575  0.3301  0.3496 -0.0356
   27MOL   H222 6514   6.520   4.471   1.877 -1.4267 -0.7177  0.1530
   27MOL   H223 6515   6.414   4.373   1.779 -0.3781 -0.5053  2.0198
   27MOL   H224 6516   6.672   4.505   1.698 -1.0633  3.9542 -1.5999
   27MOL   H225 6517   6.507   4.664   1.765  0.1935 -0.1249  0.2929
   27MOL   H226 6518   6.389   4.613   1.639  0.2777 -0.4134 -1.2340
   27MOL   H227 6519   6.650   4.766   1.602  0.0139  1.2364 -0.3829
   27MOL   H228 6520   6.579   4.676   1.478 -1.7902 -0.6187 -0.1408
   27MOL   H229 6521   6.484   4.803   1.569 -0.1560 -0.1060 -0.6478
   27MOL   C230 6522   6.572   4.392   1.552  0.8263 -0.1412  0.5937
   27MOL   C231 6523   6.439   4.388   1.472 -0.7448  0.1437  0.4802
   27MOL   C232 6524   6.440   4.273   1.368 -0.6896 -0.0892 -0.0847
   27MOL   C233 6525   6.337   4.286   1.255  0.0393 -0.9003  0.2571
   27MOL   H234 6526   6.602   4.291   1.578  3.0259  0.1784 -0.5312
   27MOL   H235 6527   6.647   4.421   1.478 -0.6313  2.5739  0.1071
   27MOL   H236 6528   6.355   4.365   1.537  0.5597 -2.3839  1.3312
   27MOL   H237 6529   6.444   4.173   1.411 -1.0618 -0.9899 -2.1172
   27MOL   H238 6530   6.533   4.278   1.312 -0.5251  0.9392  0.2708
   27MOL   H239 6531   6.371   4.355   1.178  0.2267 -0.7518  0.4749
   27MOL   H240 6532   6.326   4.187   1.209  1.1944 -1.2588  0.7437
   27MOL   H241 6533   6.240   4.315   1.295 -1.7432 -1.9957 -3.0519
   27MOL   H242 6534   6.421   4.484   1.424  0.6434  0.6621  0.9861
   28MOL     C1 6535   6.797   6.931   4.619  0.6427  0.3480 -0.1792
   28MOL     C2 6536   6.749   6.855   4.741 -0.1042  0.0885 -0.7912
   28MOL     C3 6537   6.648   6.742   4.703  0.7082 -0.8444 -1.0850
   28MOL     C4 6538   6.714   6.617   4.641  0.1956 -0.7722 -0.4571
   28MOL     H5 6539   6.874   7.008   4.626 -0.2133  1.2574 -0.6415
   28MOL     H6 6540   6.842   6.861   4.549  0.2813  1.2737 -1.3718
   28MOL     H7 6541   6.834   6.798   4.778 -0.6357 -1.5293 -2.0126
   28MOL     H8 6542   6.565   6.783   4.647  2.0066  4.2231  0.4779
   28MOL     H9 6543   6.610   6.707   4.799  1.5554  1.3848  0.0997
   28MOL    H10 6544   6.640   6.542   4.613  1.9554 -1.6676 -2.8700
   28MOL    H11 6545   6.779   6.644   4.557 -2.0592  0.1985 -1.9507
   28MOL    H12 6546   6.774   6.568   4.717 -0.3880 -1.0308 -0.1589
   28MOL    H13 6547   6.708   6.971   4.571 -1.1173 -3.0846  0.0782
   28MOL    C14 6548   6.705   6.957   4.851  0.4048  0.0707  0.1908
   28MOL    C15 6549   6.790   7.079   4.880 -1.0846  0.6139  0.3263
   28MOL    C16 6550   6.929   7.036   4.934 -0.4077 -0.2595  0.4876
   28MOL    C17 6551   7.043   7.139   4.924 -0.5058 -0.3568  0.3626
   28MOL    H18 6552   6.701   6.892   4.939  0.4731 -1.9134 -1.2146
   28MOL    H19 6553   6.608   6.994   4.818  1.5967  0.6098 -2.8708
   28MOL    H20 6554   6.806   7.122   4.781 -0.1684 -2.0942 -0.7262
   28MOL    H21 6555   6.969   6.957   4.870 -0.6472  0.7900 -0.9830
   28MOL    H22 6556   6.927   6.989   5.032 -1.1409  0.6575  0.9186
   28MOL    H23 6557   7.064   7.161   4.819  0.8593 -1.3459  0.4187
   28MOL    H24 6558   7.017   7.232   4.975 -2.2192 -0.2467 -0.6407
   28MOL    H25 6559   7.134   7.097   4.965  0.3752 -0.4007 -1.5747
   28MOL    C26 6560   6.722   7.180   4.985 -0.4261  0.2464  1.0951
   28MOL    C27 6561   6.582   7.245   4.946  0.2934  0.2947  0.3237
   28MOL    C28 6562   6.578   7.293   4.805  0.2743 -0.5056  0.3500
   28MOL    C29 6563   6.656   7.410   4.755  0.3905 -0.0213 -0.1966
   28MOL    H30 6564   6.786   7.265   5.008 -1.1589  1.3993 -0.9651
   28MOL    H31 6565   6.708   7.122   5.076  1.6728 -1.6538  0.2664
   28MOL    H32 6566   6.511   7.164   4.958 -0.7002  1.0665 -0.1704
   28MOL    H33 6567   6.478   7.314   4.769  0.2776  1.4493  1.4475
   28MOL    H34 6568   6.606   7.212   4.737  1.3390 -1.0620  1.4339
   28MOL    H35 6569   6.605   7.501   4.788 -0.5456  0.1232 -1.9897
   28MOL    H36 6570   6.760   7.413   4.787 -0.0461 -0.1955  1.2872
   28MOL    H37 6571   6.652   7.409   4.646  1.1922 -0.0335 -0.2254
   28MOL    C38 6572   6.533   7.351   5.040  0.1986 -0.0562  0.2774
   28MOL    C39 6573   6.400   7.427   5.009 -0.7361  0.9479  0.0888
   28MOL    C40 6574   6.391   7.560   5.096  0.0792  0.0353  0.1658
   28MOL    C41 6575   6.347   7.543   5.240  0.2349  0.2850 -0.6793
   28MOL    H42 6576   6.605   7.433   5.034 -1.4056  1.3363 -0.2136
   28MOL    H43 6577   6.541   7.326   5.146  0.3087 -0.4147  0.1845
   28MOL    H44 6578   6.400   7.456   4.904 -1.8541 -1.2264 -0.5613
   28MOL    H45 6579   6.336   7.639   5.045  1.2310 -1.1216 -2.9565
   28MOL    H46 6580   6.488   7.609   5.105 -0.4410  0.8294  1.6967
   28MOL    H47 6581   6.390   7.621   5.303  2.0058 -0.4095 -0.9966
   28MOL    H48 6582   6.239   7.553   5.254  0.2364  0.4024 -0.7494
   28MOL    H49 6583   6.385   7.448   5.278 -2.0390 -0.6064 -0.5888
   28MOL    C50 6584   6.274   7.339   5.030  1.1840 -0.9116  0.1810
   28MOL    C51 6585   6.150   7.391   4.966  0.4293 -0.0516 -0.3749
   28MOL    C52 6586   6.038   7.360   5.061 -0.6569  0.2638 -0.0866
   28MOL    C53 6587   6.001   7.217   5.076 -0.1133 -0.1145  0.1286
   28MOL    H54 6588   6.257   7.309   5.133  2.1557 -0.1759  0.5558
   28MOL    H55 6589   6.287   7.239   4.988 -3.0182 -1.1764 -0.6855
   28MOL    H56 6590   6.157   7.499   4.980  0.0453  0.0630 -1.0304
   28MOL    H57 6591   5.950   7.424   5.056 -0.9066  0.0409  1.2112
   28MOL    H58 6592   6.074   7.403   5.155  4.2274 -0.4250 -1.5038
   28MOL    H59 6593   5.971   7.187   4.976  0.7783  2.2659 -0.9010
   28MOL    H60 6594   6.077   7.145   5.106 -0.6037 -0.4019  0.6857
   28MOL    H61 6595   5.916   7.211   5.143  1.1191  2.0760  1.9761
   28MOL    C62 6596   6.117   7.354   4.821 -0.4025  0.5173  0.4870
   28MOL    C63 6597   6.152   7.460   4.723  0.3071  0.2943  0.2151
   28MOL    C64 6598   6.037   7.565   4.727 -0.2284 -0.5941  0.2314
   28MOL    C65 6599   6.073   7.702   4.665  0.6816  0.5232  0.7671
   28MOL    H66 6600   6.013   7.327   4.804  0.5555 -1.9915 -1.6762
   28MOL    H67 6601   6.170   7.262   4.797 -2.6083 -0.8977  0.8839
   28MOL    H68 6602   6.248   7.511   4.732  1.4680 -1.7145 -0.5490
   28MOL    H69 6603   6.003   7.586   4.828  0.6144 -0.9051  0.5863
   28MOL    H70 6604   5.951   7.533   4.669 -0.4954 -0.9363  0.8077
   28MOL    H71 6605   5.983   0.050   4.636 -0.1058 -1.5553 -0.7082
   28MOL    H72 6606   6.121   0.071   4.729 -0.1709  2.3893 -0.7414
   28MOL    H73 6607   6.118   7.704   4.566 -1.6890  4.1228 -0.3468
   28MOL    C74 6608   6.150   7.405   4.587 -0.4765  0.3032  0.0853
   28MOL    C75 6609   6.277   7.331   4.530  0.2724 -0.7218 -0.1805
   28MOL    C76 6610   6.387   7.426   4.476 -0.5107 -0.5754  0.0962
   28MOL    C77 6611   6.344   7.503   4.351 -0.4167  0.0965  0.5249
   28MOL    H78 6612   6.128   7.478   4.509 -0.5000 -1.4098 -1.5523
   28MOL    H79 6613   6.061   7.345   4.569 -1.7028  1.7394  1.2221
   28MOL    H80 6614   6.325   7.267   4.604  1.6198  0.2155 -0.2196
   28MOL    H81 6615   6.484   7.378   4.462 -0.4573  0.0637 -1.8071
   28MOL    H82 6616   6.409   7.506   4.547 -0.1676  0.5124 -1.2319
   28MOL    H83 6617   6.251   7.560   4.354 -1.1769 -1.0736 -0.3921
   28MOL    H84 6618   6.423   7.569   4.314  0.7964 -2.2744 -1.1988
   28MOL    H85 6619   6.332   7.437   4.265 -0.8723  0.7846  0.0538
   28MOL    C86 6620   6.243   7.219   4.421  0.3868  0.3829  0.5766
   28MOL    C87 6621   6.161   7.091   4.456  0.2225  0.1770  0.5764
   28MOL    C88 6622   6.245   6.975   4.505  0.5054 -0.1785  0.1944
   28MOL    C89 6623   6.346   7.009   4.618  0.6949 -0.4260 -0.2075
   28MOL    H90 6624   6.330   7.186   4.365 -0.5846 -0.1173 -0.6890
   28MOL    H91 6625   6.174   7.266   4.350 -0.0833 -1.5029 -0.2645
   28MOL    H92 6626   6.092   7.126   4.533 -2.5233 -0.0105 -1.7008
   28MOL    H93 6627   6.312   6.941   4.426  2.2778  3.8899 -0.2116
   28MOL    H94 6628   6.191   6.890   4.545  2.1250 -0.5794  1.5998
   28MOL    H95 6629   6.293   7.052   4.703  0.7865 -0.0223 -0.3540
   28MOL    H96 6630   6.397   6.916   4.642  1.1086 -0.5762 -1.6535
   28MOL    H97 6631   6.419   7.076   4.572  3.4209 -2.7498  0.6124
   28MOL    C98 6632   6.059   7.049   4.336 -0.4256  0.2435 -0.6377
   28MOL    C99 6633   5.928   7.142   4.342  1.3205 -0.2325  0.5345
   28MOL   C100 6634   5.828   7.116   4.451  0.2896  0.0422 -0.8300
   28MOL   C101 6635   5.773   6.974   4.477 -0.4355 -0.3862 -0.0546
   28MOL   H102 6636   6.026   6.945   4.342  2.3825 -0.5789  1.5786
   28MOL   H103 6637   6.105   7.048   4.237 -2.0309 -1.1793 -1.4122
   28MOL   H104 6638   5.967   7.242   4.363  1.9871 -0.1631 -1.0028
   28MOL   H105 6639   5.742   7.183   4.445  1.0716  1.1998  0.5922
   28MOL   H106 6640   5.874   7.149   4.544  2.1186 -1.2971 -1.2269
   28MOL   H107 6641   5.851   6.897   4.481 -1.6896 -1.6727 -0.1297
   28MOL   H108 6642   5.710   6.961   4.565 -0.3452  1.2650  0.2690
   28MOL   H109 6643   5.708   6.943   4.396  1.1529 -2.1891 -0.6833
   28MOL   C110 6644   5.867   7.148   4.194  0.7591 -0.0337  0.5984
   28MOL   C111 6645   5.737   7.232   4.159 -0.4586 -0.5591  0.2445
   28MOL   C112 6646   5.627   7.152   4.082  0.3059  0.0687  0.1970
   28MOL   C113 6647   5.482   7.208   4.088  0.2495 -0.3822 -0.0989
   28MOL   H114 6648   5.849   7.046   4.160  1.9581  0.0074 -0.1937
   28MOL   H115 6649   5.950   7.185   4.134  0.2923  1.8926  1.1234
   28MOL   H116 6650   5.690   7.260   4.253 -0.0232 -1.2625  0.6748
   28MOL   H117 6651   5.631   7.048   4.114  2.9920 -0.4486 -1.5771
   28MOL   H118 6652   5.665   7.137   3.981  0.1565  1.4279 -0.0790
   28MOL   H119 6653   5.493   7.313   4.062  0.8430 -0.4869 -0.2957
   28MOL   H120 6654   5.418   7.165   4.011 -1.6116  1.4803  0.3671
   28MOL   H121 6655   5.435   7.201   4.186  0.7708  0.0543  0.1844
   28MOL   C122 6656   5.780   7.354   4.080  0.2425  0.7753  0.7091
   28MOL   C123 6657   5.854   7.475   4.141  0.0089  0.4291  0.4565
   28MOL   C124 6658   5.774   7.543   4.254  0.1198 -0.1552 -0.3113
   28MOL   C125 6659   5.859   7.611   4.362  0.5572  0.2391  0.2596
   28MOL   H126 6660   5.691   7.402   4.039 -0.6930 -3.6830 -2.9904
   28MOL   H127 6661   5.834   7.327   3.990 -0.5591  0.4105  0.3308
   28MOL   H128 6662   5.946   7.445   4.190 -0.0279 -1.5296 -0.5901
   28MOL   H129 6663   5.716   7.465   4.304  1.1790 -1.2668 -0.7899
   28MOL   H130 6664   5.703   7.609   4.205 -0.7579 -0.6462  0.2697
   28MOL   H131 6665   5.802   7.658   4.442  0.8822 -0.3129  0.8216
   28MOL   H132 6666   5.924   7.536   4.407 -1.1548 -1.1398  0.5042
   28MOL   H133 6667   5.916   7.685   4.306  1.3657 -1.2827 -0.9829
   28MOL   C134 6668   5.891   7.582   4.038 -0.6383 -0.6468  0.0275
   28MOL   C135 6669   6.007   7.535   3.943 -0.2564  0.2887  0.1489
   28MOL   C136 6670   6.150   7.544   4.006  0.6117 -0.0168  0.0150
   28MOL   C137 6671   6.248   7.451   3.946 -0.3992  0.4758 -0.0340
   28MOL   H138 6672   5.928   7.673   4.086 -1.8735 -0.0187 -0.1934
   28MOL   H139 6673   5.803   7.608   3.979 -0.7701 -3.3339 -1.0328
   28MOL   H140 6674   5.995   7.432   3.908 -0.6028  0.8974 -1.5654
   28MOL   H141 6675   6.131   7.514   4.109 -0.4387 -0.7975 -0.3998
   28MOL   H142 6676   6.184   7.648   4.015  0.2670 -0.0970  2.4309
   28MOL   H143 6677   6.330   7.440   4.017  1.2020 -0.0817 -1.9325
   28MOL   H144 6678   6.215   7.348   3.932 -1.3183  0.7481  0.1054
   28MOL   H145 6679   6.297   7.483   3.854 -3.7274 -0.0965 -2.0893
   28MOL   C146 6680   5.996   7.609   3.808 -0.0692 -0.5463  0.3681
   28MOL   C147 6681   5.892   7.563   3.704 -0.8235  0.0795  0.1007
   28MOL   C148 6682   5.919   7.423   3.642 -0.6643  0.5745 -0.0446
   28MOL   C149 6683   5.787   7.349   3.606 -0.1577 -0.1341  0.1533
   28MOL   H150 6684   6.095   7.582   3.772 -1.3526 -1.7097 -2.4127
   28MOL   H151 6685   6.005   0.011   3.820 -1.1089 -0.6427  2.1316
   28MOL   H152 6686   5.796   7.569   3.755 -0.3866 -1.4423  1.1128
   28MOL   H153 6687   5.980   7.360   3.706 -1.4109  0.5971  0.6885
   28MOL   H154 6688   5.975   7.431   3.549 -0.0334 -4.1268 -0.1568
   28MOL   H155 6689   5.804   7.270   3.533  2.1742  0.4784  0.0006
   28MOL   H156 6690   5.736   7.300   3.689  0.6594 -1.7256 -0.2643
   28MOL   H157 6691   5.719   7.421   3.561  0.9434 -0.0907 -1.5036
   28MOL   C158 6692   5.876   7.668   3.589  0.8792  0.6960 -0.1649
   28MOL   C159 6693   5.796   0.098   3.612  0.1171  0.0763  0.1553
   28MOL   C160 6694   5.654   0.096   3.677 -0.9548  0.1324 -0.0730
   28MOL   C161 6695   5.562   0.015   3.583 -0.1629  0.3315  0.2431
   28MOL   H162 6696   5.826   7.617   3.507  2.3403  0.6862 -1.0675
   28MOL   H163 6697   5.969   7.676   3.533  0.6910  2.7903 -0.2019
   28MOL   H164 6698   5.861   0.155   3.678  0.8071 -1.1259  0.5250
   28MOL   H165 6699   5.614   0.197   3.687  0.0544  0.4197  1.0976
   28MOL   H166 6700   5.672   0.058   3.777 -1.7681  1.4132  0.5733
   28MOL   H167 6701   5.539   0.060   3.487  1.6103  0.0128 -0.3501
   28MOL   H168 6702   5.604   7.621   3.568 -0.3939  0.1785  0.6143
   28MOL   H169 6703   5.469   0.005   3.639  0.4155  1.2853  1.3976
   28MOL   C170 6704   5.789   0.180   3.481  0.3050  0.3080  0.1605
   28MOL   C171 6705   5.922   0.234   3.419  0.0690 -0.6175  0.0485
   28MOL   C172 6706   6.022   0.296   3.517 -0.0994  0.1040  0.0433
   28MOL   C173 6707   6.134   0.196   3.546  0.2878  0.1388 -0.2948
   28MOL   H174 6708   5.728   0.264   3.514 -0.0635 -0.4877  1.5345
   28MOL   H175 6709   5.736   0.138   3.396  0.8185 -0.1746  0.0761
   28MOL   H176 6710   5.972   0.148   3.374  1.2066 -0.3090  0.6864
   28MOL   H177 6711   5.974   0.333   3.608 -1.7977  1.4578 -1.3584
   28MOL   H178 6712   6.070   0.382   3.470  0.3590 -1.2237 -1.9603
   28MOL   H179 6713   6.208   0.258   3.596  0.5626 -2.1263  2.1728
   28MOL   H180 6714   6.119   0.119   3.621  1.0926  1.1807  0.9609
   28MOL   H181 6715   6.177   0.149   3.457 -2.5982 -1.1895 -1.0371
   28MOL   C182 6716   5.885   0.344   3.315 -0.4268  0.3808 -0.4916
   28MOL   C183 6717   5.984   0.357   3.197 -0.2686 -0.4009  0.1787
   28MOL   C184 6718   5.936   0.477   3.116  0.1189  0.4170  0.3572
   28MOL   C185 6719   6.035   0.562   3.039  0.1721  0.8375 -0.0178
   28MOL   H186 6720   5.866   0.437   3.369  1.1827  0.0497  0.6663
   28MOL   H187 6721   5.787   0.310   3.279  1.0160 -2.0613 -2.2555
   28MOL   H188 6722   6.087   0.383   3.221 -0.3943  0.2978 -0.0378
   28MOL   H189 6723   5.879   0.551   3.173 -0.1240 -0.3622  1.1314
   28MOL   H190 6724   5.877   0.436   3.035 -0.4417  0.7820  0.5782
   28MOL   H191 6725   6.096   0.497   2.977 -0.8547  1.5956 -1.8777
   28MOL   H192 6726   5.985   0.637   2.977  0.8736 -0.7123 -2.5456
   28MOL   H193 6727   6.094   0.618   3.112 -1.1157  2.2312 -0.0109
   28MOL   C194 6728   5.997   0.238   3.108 -0.7500  0.6749  0.5348
   28MOL   C195 6729   6.124   0.155   3.123  0.4456  0.3054 -0.5589
   28MOL   C196 6730   6.251   0.228   3.060 -0.1726 -0.2002  0.6675
   28MOL   C197 6731   6.383   0.254   3.144  0.3347 -0.0342 -0.3725
   28MOL   H198 6732   5.998   0.262   3.001  1.9270  2.3336  0.8925
   28MOL   H199 6733   5.911   0.177   3.134 -0.6114  0.4473  0.4664
   28MOL   H200 6734   6.141   0.142   3.230  0.5666 -0.1285 -0.6293
   28MOL   H201 6735   6.224   0.330   3.034  0.7183  0.4222  2.1481
   28MOL   H202 6736   6.288   0.166   2.978  0.2323 -1.0137  1.4496
   28MOL   H203 6737   6.366   0.324   3.226  0.2333 -1.0840  0.5119
   28MOL   H204 6738   6.420   0.157   3.178  0.7593  0.7140  1.3511
   28MOL   H205 6739   6.464   0.294   3.083 -0.6985  0.3796 -1.4918
   28MOL   C206 6740   6.100   0.008   3.069 -0.3988  0.4895 -0.1229
   28MOL   C207 6741   6.202   7.606   3.104  0.0421  0.0639 -0.2988
   28MOL   C208 6742   6.221   7.498   3.001 -0.2843 -0.1177  0.3714
   28MOL   C209 6743   6.102   7.412   2.969  0.1080 -0.1054 -0.8102
   28MOL   H210 6744   6.105   0.008   2.960 -1.5837 -0.4500 -0.1938
   28MOL   H211 6745   5.995   7.696   3.088  0.0810  0.1351  2.3446
   28MOL   H212 6746   6.300   7.653   3.116  0.9470 -2.2165  1.6279
   28MOL   H213 6747   6.313   7.444   3.020  0.6818  1.5390  0.5113
   28MOL   H214 6748   6.245   7.537   2.902 -0.1895  0.4546  0.6178
   28MOL   H215 6749   6.017   7.479   2.954  0.5828  0.9681  1.0932
   28MOL   H216 6750   6.127   7.344   2.888  0.1095  1.0748 -1.8142
   28MOL   H217 6751   6.080   7.337   3.045  3.1656 -1.3518 -1.0803
   28MOL   C218 6752   6.182   7.546   3.241 -0.3028  0.1532  0.4528
   28MOL   C219 6753   6.293   7.451   3.296  0.0356  0.1543  0.0510
   28MOL   C220 6754   6.234   7.400   3.432 -0.3700 -0.0738  1.5533
   28MOL   C221 6755   6.337   7.318   3.513  0.0473 -0.0672  0.3079
   28MOL   H222 6756   6.087   7.494   3.235  0.3689 -0.9591 -0.6744
   28MOL   H223 6757   6.157   7.625   3.312  0.9104 -0.2517  1.3556
   28MOL   H224 6758   6.300   7.367   3.227  4.0231  1.7511 -1.6541
   28MOL   H225 6759   6.146   7.343   3.402 -1.1125  1.4434  0.8386
   28MOL   H226 6760   6.195   7.487   3.486  0.2769  2.3945 -1.8362
   28MOL   H227 6761   6.359   7.228   3.457 -2.9668 -0.6408 -0.0296
   28MOL   H228 6762   6.436   7.362   3.529 -0.3947  0.4866  1.6242
   28MOL   H229 6763   6.298   7.286   3.610  0.7247  0.0749  0.6319
   28MOL   C230 6764   6.438   7.519   3.304  0.4740 -0.8296  0.3791
   28MOL   C231 6765   6.443   7.633   3.405  0.7281  0.6888  0.0834
   28MOL   C232 6766   6.589   7.666   3.443  0.7543  0.1688 -0.5752
   28MOL   C233 6767   6.597   0.072   3.546 -0.3800 -0.6810 -0.2258
   28MOL   H234 6768   6.474   7.527   3.201  1.2388 -0.8843  0.6393
   28MOL   H235 6769   6.500   7.435   3.335  1.1963 -0.0652  1.0261
   28MOL   H236 6770   6.395   0.017   3.366 -0.8851 -0.0588  0.3159
   28MOL   H237 6771   6.636   7.695   3.349  1.2704 -1.1294 -0.7210
   28MOL   H238 6772   6.643   7.585   3.491 -1.7440 -0.5587  1.0733
   28MOL   H239 6773   6.552   0.037   3.639 -0.9825  3.3575  1.1004
   28MOL   H240 6774   6.701   0.104   3.552  0.0985 -2.3921  1.0893
   28MOL   H241 6775   6.531   0.156   3.525 -0.5760 -0.5984  0.6991
   28MOL   H242 6776   6.382   7.598   3.488 -0.5833  0.3511 -1.0039
   29MOL     C1 6777   1.674   6.304   5.433  0.8961 -0.6644  0.6699
   29MOL     C2 6778   1.593   6.208   5.532 -0.2680  0.4029  0.1139
   29MOL     C3 6779   1.696   6.135   5.624  0.0116  0.0701 -0.0030
   29MOL     C4 6780   1.814   6.066   5.552 -0.1273  0.0746  0.0441
   29MOL     H5 6781   1.701   6.250   5.342 -2.9239  0.2754 -1.1156
   29MOL     H6 6782   1.603   6.382   5.406 -0.0671 -1.9502 -0.5734
   29MOL     H7 6783   1.534   6.261   5.608  0.5971 -0.9379  1.7709
   29MOL     H8 6784   1.644   6.055   5.676 -0.8941  0.0687 -0.9012
   29MOL     H9 6785   1.726   6.211   5.696  0.5899 -0.3665  0.2195
   29MOL    H10 6786   1.882   6.019   5.622  2.2391  2.1898 -0.7617
   29MOL    H11 6787   1.781   5.986   5.485 -0.5800  0.9960 -0.8598
   29MOL    H12 6788   1.883   6.134   5.502  0.1526 -1.2441 -1.4138
   29MOL    H13 6789   1.752   6.362   5.483 -0.0289  1.2531 -0.0631
   29MOL    C14 6790   1.509   6.105   5.448  0.5644 -0.4703  0.4918
   29MOL    C15 6791   1.379   6.153   5.379  0.4332 -0.5113 -0.6561
   29MOL    C16 6792   1.281   6.215   5.486  0.4821 -0.0888 -0.1296
   29MOL    C17 6793   1.224   6.099   5.578 -0.5233 -0.1983  0.8011
   29MOL    H18 6794   1.479   6.019   5.508  0.6802 -1.7873 -1.2706
   29MOL    H19 6795   1.585   6.061   5.382  1.4381  2.9409 -0.8632
   29MOL    H20 6796   1.412   6.243   5.329  2.2456 -1.0225 -0.4139
   29MOL    H21 6797   1.195   6.252   5.431 -0.6474  0.3942  1.8916
   29MOL    H22 6798   1.315   6.298   5.548  1.7347 -0.8094  0.1765
   29MOL    H23 6799   1.134   6.124   5.635 -0.9335 -1.6662  0.8218
   29MOL    H24 6800   1.192   6.019   5.511 -1.2367  0.7704 -0.0277
   29MOL    H25 6801   1.309   6.062   5.635 -0.4247  0.6533  1.2092
   29MOL    C26 6802   1.320   6.056   5.268  0.3963  0.0044  0.4441
   29MOL    C27 6803   1.214   6.123   5.170 -0.4215 -0.3603  0.0152
   29MOL    C28 6804   1.161   6.021   5.073 -0.6891 -0.0040 -0.0478
   29MOL    C29 6805   1.267   5.956   4.977  0.3308 -0.6624  0.3014
   29MOL    H30 6806   1.275   5.967   5.310 -1.2154  0.8462  0.5250
   29MOL    H31 6807   1.398   6.026   5.198  0.1909  0.1488  0.1507
   29MOL    H32 6808   1.127   6.154   5.227 -0.7545 -0.7155 -0.2951
   29MOL    H33 6809   1.082   6.057   5.007  0.3059  1.8229 -0.2756
   29MOL    H34 6810   1.119   5.942   5.135 -1.2748  0.8342  0.6399
   29MOL    H35 6811   1.289   6.022   4.893 -1.9142  2.0557  1.7833
   29MOL    H36 6812   1.363   5.922   5.015  1.3555  1.0742 -0.6575
   29MOL    H37 6813   1.209   5.872   4.939 -0.8539  1.4360 -2.7403
   29MOL    C38 6814   1.272   6.252   5.087  0.3399 -0.7172  0.3489
   29MOL    C39 6815   1.164   6.342   5.010  0.3084 -0.1063 -0.2088
   29MOL    C40 6816   1.187   6.390   4.863  0.3882  0.1954  0.0372
   29MOL    C41 6817   1.318   6.473   4.846  0.1816  0.5618  0.2144
   29MOL    H42 6818   1.357   6.220   5.027 -0.2816  1.0904 -1.5777
   29MOL    H43 6819   1.324   6.320   5.154 -1.2519  0.2572  0.6239
   29MOL    H44 6820   1.079   6.275   4.997 -1.3298  1.4755  1.8529
   29MOL    H45 6821   1.103   6.445   4.822  0.7939 -0.7738 -2.1615
   29MOL    H46 6822   1.197   6.294   4.811 -0.2264  0.3316 -0.3416
   29MOL    H47 6823   1.306   6.559   4.912  0.5811  0.3747  0.5349
   29MOL    H48 6824   1.398   6.423   4.900  2.2122  1.3254 -1.9861
   29MOL    H49 6825   1.337   6.491   4.740 -0.5921 -4.1754 -0.8351
   29MOL    C50 6826   1.104   6.458   5.089 -0.1357 -0.1696  0.3970
   29MOL    C51 6827   0.962   6.501   5.052  0.1313 -0.6032  0.1816
   29MOL    C52 6828   0.940   6.653   5.072 -0.3883  0.7883 -0.5970
   29MOL    C53 6829   0.949   6.701   5.220 -0.0778  0.1825  0.2092
   29MOL    H54 6830   1.171   6.544   5.098  2.1815 -1.4681 -3.0477
   29MOL    H55 6831   1.098   6.417   5.190 -0.6941 -2.1356 -0.4065
   29MOL    H56 6832   0.952   6.498   4.944 -2.2094  1.2869  0.3059
   29MOL    H57 6833   0.841   6.676   5.034 -0.7438  1.1346  0.5374
   29MOL    H58 6834   1.003   6.720   5.013  0.8667  0.2047  0.0560
   29MOL    H59 6835   0.886   6.652   5.294  0.1424 -1.4338 -0.6254
   29MOL    H60 6836   1.054   6.693   5.251  0.5209  1.5721 -1.3608
   29MOL    H61 6837   0.934   6.808   5.211  0.5528  0.1340 -1.7967
   29MOL    C62 6838   0.850   6.419   5.126  0.0669 -0.0565  0.0540
   29MOL    C63 6839   0.798   6.289   5.058 -0.2593 -0.1452 -0.2106
   29MOL    C64 6840   0.736   6.313   4.914  0.1710  0.6008 -0.4535
   29MOL    C65 6841   0.602   6.393   4.916 -0.2512 -0.1337 -0.5832
   29MOL    H66 6842   0.756   6.475   5.130 -1.1607 -2.1517  0.8283
   29MOL    H67 6843   0.882   6.401   5.228  0.9011  0.1772 -0.1631
   29MOL    H68 6844   0.884   6.223   5.053  1.2102  1.5874  1.3347
   29MOL    H69 6845   0.730   6.219   4.860  1.3957  1.0064 -1.3289
   29MOL    H70 6846   0.813   6.377   4.869 -0.5856  0.9485 -1.2600
   29MOL    H71 6847   0.586   6.489   4.965  0.2786 -0.2037 -0.2796
   29MOL    H72 6848   0.572   6.399   4.811  2.1611  0.4262 -1.2543
   29MOL    H73 6849   0.519   6.328   4.946 -2.1837  2.2420 -0.6031
   29MOL    C74 6850   0.687   6.217   5.154  0.2006  0.5126 -0.2740
   29MOL    C75 6851   0.752   6.141   5.277  0.3424  0.1266 -0.1494
   29MOL    C76 6852   0.824   6.012   5.230 -0.1713 -0.1895  0.0117
   29MOL    C77 6853   0.929   5.954   5.332  0.0163  0.2755 -1.1063
   29MOL    H78 6854   0.616   6.155   5.101 -1.2525  0.7586  1.3332
   29MOL    H79 6855   0.615   6.296   5.179  0.4593  1.2272 -1.7465
   29MOL    H80 6856   0.824   6.208   5.323 -0.6360  1.2251 -0.1889
   29MOL    H81 6857   0.873   6.028   5.134 -0.3581 -0.8558 -0.1978
   29MOL    H82 6858   0.751   5.934   5.209 -0.7207  0.4210 -0.3622
   29MOL    H83 6859   0.990   5.870   5.298  1.1713  1.2397 -1.4816
   29MOL    H84 6860   1.003   6.031   5.355  0.1712 -0.1035 -0.2996
   29MOL    H85 6861   0.887   5.929   5.430  0.3005  0.0766 -1.0338
   29MOL    C86 6862   0.643   6.111   5.379 -0.4021 -1.1732  0.5184
   29MOL    C87 6863   0.593   6.233   5.466  0.1842 -0.2986  0.2858
   29MOL    C88 6864   0.711   6.315   5.520 -0.8294 -0.2672 -0.7669
   29MOL    C89 6865   0.827   6.245   5.591 -0.2618  0.7759 -0.4835
   29MOL    H90 6866   0.669   6.032   5.449  1.3253 -1.4852 -0.4523
   29MOL    H91 6867   0.555   6.071   5.328  1.4139 -2.5795 -1.6299
   29MOL    H92 6868   0.551   6.301   5.391 -1.0485  0.2754  1.4648
   29MOL    H93 6869   0.687   6.403   5.579 -0.6403 -0.3823 -0.5147
   29MOL    H94 6870   0.771   6.360   5.442 -1.6787 -1.3008 -2.0399
   29MOL    H95 6871   0.783   6.210   5.684  2.5879 -1.8257 -0.0374
   29MOL    H96 6872   0.879   6.164   5.541  1.5843  1.1730  0.7701
   29MOL    H97 6873   0.912   6.307   5.617 -0.7712  2.0056 -1.6738
   29MOL    C98 6874   0.478   6.203   5.567  0.1881 -0.2425  0.2499
   29MOL    C99 6875   0.366   6.121   5.510  0.2735 -0.1844 -0.4633
   29MOL   C100 6876   0.262   6.207   5.431 -0.5234  0.2183  0.2094
   29MOL   C101 6877   0.158   6.135   5.348  0.1813 -0.3166 -0.8491
   29MOL   H102 6878   0.451   6.298   5.614  3.2411  0.2382  1.1083
   29MOL   H103 6879   0.524   6.140   5.643 -1.7243 -0.9953  0.8018
   29MOL   H104 6880   0.401   6.035   5.452 -1.4567 -0.7964 -0.6230
   29MOL   H105 6881   0.317   6.283   5.375  1.7214 -2.0888 -0.8340
   29MOL   H106 6882   0.209   6.267   5.505 -2.8409 -0.8152 -0.5934
   29MOL   H107 6883   0.086   6.070   5.398 -1.8568  3.3603  1.2339
   29MOL   H108 6884   0.079   6.195   5.303  0.2999  0.8797  0.4914
   29MOL   H109 6885   0.208   6.076   5.272  0.1678  0.3191 -1.3483
   29MOL   C110 6886   0.296   6.055   5.630  0.5899  0.7769 -0.0944
   29MOL   C111 6887   0.368   5.946   5.715  0.0183  0.1640  0.3183
   29MOL   C112 6888   0.341   5.809   5.648  0.3207 -0.4881 -0.5866
   29MOL   C113 6889   0.449   5.698   5.680  0.6390 -0.0299  0.2642
   29MOL   H114 6890   0.201   6.014   5.593  0.7360 -0.2178  0.6173
   29MOL   H115 6891   0.262   6.140   5.689  1.6098  2.4270 -1.8334
   29MOL   H116 6892   0.475   5.953   5.695 -0.2095 -1.2153 -1.5794
   29MOL   H117 6893   0.328   5.819   5.540  2.2485 -3.4219 -1.1516
   29MOL   H118 6894   0.245   5.768   5.680  0.2360 -0.1192 -0.3722
   29MOL   H119 6895   0.547   5.713   5.635  0.4964 -0.5189 -0.2163
   29MOL   H120 6896   0.456   5.677   5.787 -1.8266 -0.8289  0.3147
   29MOL   H121 6897   0.416   5.601   5.643 -0.4983 -0.2090  1.6821
   29MOL   C122 6898   0.346   5.950   5.864 -0.0996 -0.1953  0.0400
   29MOL   C123 6899   0.412   6.061   5.949  0.5301  0.2166 -0.1844
   29MOL   C124 6900   0.567   6.028   5.956  0.0063 -0.2469  0.0942
   29MOL   C125 6901   0.648   6.151   5.969  0.5934 -0.7013 -0.1118
   29MOL   H126 6902   0.388   5.859   5.907  2.1707 -0.0786 -1.7758
   29MOL   H127 6903   0.241   5.960   5.889 -1.3058  2.0883 -5.0783
   29MOL   H128 6904   0.400   6.146   5.883 -0.9615  1.6745  1.8946
   29MOL   H129 6905   0.617   5.989   5.867  1.5944  0.2155  0.7618
   29MOL   H130 6906   0.583   5.965   6.044  2.0578  1.4081  0.9570
   29MOL   H131 6907   0.757   6.140   5.975  0.4316 -2.6100 -0.2536
   29MOL   H132 6908   0.640   6.218   5.884 -0.0887  1.6125  1.7282
   29MOL   H133 6909   0.628   6.212   6.057  2.9874 -2.2923  1.6072
   29MOL   C134 6910   0.347   6.093   6.091 -0.4759 -0.1489 -0.2631
   29MOL   C135 6911   0.226   6.193   6.096 -0.5666 -0.9152 -0.0488
   29MOL   C136 6912   0.277   6.342   6.094 -0.7854  0.1228 -0.7162
   29MOL   C137 6913   0.168   6.431   6.030  0.4846  0.4494 -0.1706
   29MOL   H138 6914   0.430   6.125   6.154  2.0248 -1.0733 -2.9551
   29MOL   H139 6915   0.318   5.995   6.129  0.1342  0.0965  0.8623
   29MOL   H140 6916   0.171   6.173   6.005  0.1757 -0.3502 -0.6279
   29MOL   H141 6917   0.361   6.352   6.026 -2.3532  1.4033 -2.5069
   29MOL   H142 6918   0.306   6.380   6.192 -2.3463 -0.3040 -0.0679
   29MOL   H143 6919   0.080   6.413   6.092  1.8560  3.1239  2.6708
   29MOL   H144 6920   0.196   6.536   6.028  2.4029 -0.0608 -2.2879
   29MOL   H145 6921   0.136   6.396   5.931  0.9530  1.6047 -0.7419
   29MOL   C146 6922   0.124   6.157   6.204  0.2275  0.0868  0.4806
   29MOL   C147 6923   0.054   6.022   6.209  0.1432 -0.1876 -0.7447
   29MOL   C148 6924   7.660   6.003   6.091  0.1572  0.3597  0.4007
   29MOL   C149 6925   7.565   6.120   6.050  0.3327 -0.1831 -0.2979
   29MOL   H150 6926   0.052   6.237   6.224 -0.3598 -0.2213 -0.3428
   29MOL   H151 6927   0.189   6.161   6.291  0.6459  0.7941  0.1394
   29MOL   H152 6928   0.132   5.947   6.195  1.8369  1.5365 -0.8201
   29MOL   H153 6929   7.603   5.910   6.104  1.7562 -0.6745  0.1147
   29MOL   H154 6930   0.002   5.964   6.001 -0.4838  0.9846 -0.2183
   29MOL   H155 6931   7.486   6.088   5.983  0.2950  2.6389 -1.6790
   29MOL   H156 6932   7.506   6.150   6.137 -0.3446  3.5712 -1.9553
   29MOL   H157 6933   7.623   6.205   6.014  0.7532 -0.3243  0.0354
   29MOL   C158 6934   7.698   6.007   6.354  0.1785 -0.3233  0.6299
   29MOL   C159 6935   7.628   5.878   6.385 -0.1954  0.8188  0.0812
   29MOL   C160 6936   7.549   5.898   6.525 -0.2891  0.3316 -0.3333
   29MOL   C161 6937   7.636   5.944   6.646 -0.3055  0.3942  0.0995
   29MOL   H162 6938   7.623   6.085   6.370  1.3106  0.5643  1.7374
   29MOL   H163 6939   0.064   6.021   6.435 -0.6874 -0.5211  1.4521
   29MOL   H164 6940   7.550   5.849   6.314 -0.2937  0.4593  0.3373
   29MOL   H165 6941   7.492   5.805   6.539  0.7455 -0.3739 -0.7567
   29MOL   H166 6942   7.470   5.974   6.529 -2.9412 -2.3809  1.4847
   29MOL   H167 6943   7.669   6.047   6.643  2.6510 -0.4387  1.7529
   29MOL   H168 6944   7.594   5.911   6.742 -1.5710  0.8325 -0.2958
   29MOL   H169 6945   0.029   5.898   6.652  0.3910  1.7985 -0.5652
   29MOL   C170 6946   0.021   5.760   6.392  0.0195 -0.0762 -0.3012
   29MOL   C171 6947   7.679   5.615   6.420 -0.2302 -0.0597  0.2336
   29MOL   C172 6948   0.070   5.544   6.512 -0.2559 -0.3621 -0.4338
   29MOL   C173 6949   0.083   5.603   6.653 -0.0878  0.3141 -0.3139
   29MOL   H174 6950   0.091   5.791   6.469 -0.5269 -1.0829  0.6254
   29MOL   H175 6951   0.080   5.759   6.301 -0.0450  1.4919 -0.3629
   29MOL   H176 6952   7.590   5.621   6.483  0.0550  0.1524  0.6246
   29MOL   H177 6953   0.164   5.551   6.458  1.1547 -2.7802  1.5913
   29MOL   H178 6954   0.053   5.437   6.518 -1.4214 -0.1177  0.7160
   29MOL   H179 6955   7.698   5.643   6.698 -0.1325 -0.0483 -0.0750
   29MOL   H180 6956   0.118   5.528   6.724 -2.6321  0.0661  0.7276
   29MOL   H181 6957   0.153   5.686   6.652  0.4240 -0.0732  1.5782
   29MOL   C182 6958   7.649   5.540   6.290  0.4544 -0.0925  0.2913
   29MOL   C183 6959   7.562   5.417   6.306  0.2453 -0.1874  0.2846
   29MOL   C184 6960   7.623   5.284   6.243  0.9990  0.2570 -0.3356
   29MOL   C185 6961   0.035   5.234   6.329  0.4378 -0.1481 -0.1724
   29MOL   H186 6962   0.040   5.516   6.247 -0.5637 -0.8874 -1.6471
   29MOL   H187 6963   7.610   5.605   6.212 -1.1120 -0.2304  0.9317
   29MOL   H188 6964   7.546   5.394   6.412 -2.4860 -3.3836 -0.7206
   29MOL   H189 6965   7.666   5.312   6.147  1.7271  1.7145  0.3928
   29MOL   H190 6966   7.536   5.220   6.229  0.3792  1.3004 -1.3470
   29MOL   H191 6967   0.110   5.312   6.338  0.0952  0.1532  0.0614
   29MOL   H192 6968   0.010   5.223   6.435 -1.0711  1.1976 -0.3794
   29MOL   H193 6969   0.082   5.137   6.310 -0.5292 -0.4637 -0.9673
   29MOL   C194 6970   7.423   5.447   6.240 -0.1286 -0.6121  0.2165
   29MOL   C195 6971   7.331   5.547   6.310 -0.7172  0.1529  0.0852
   29MOL   C196 6972   7.292   5.505   6.464  0.8014 -0.3732 -0.4045
   29MOL   C197 6973   7.240   5.622   6.556 -0.2958 -0.2306  0.1262
   29MOL   H198 6974   7.369   5.354   6.223 -1.1240  0.2069 -1.1971
   29MOL   H199 6975   7.448   5.484   6.141 -0.1764  1.8051  1.0777
   29MOL   H200 6976   7.385   5.637   6.337  1.8573 -0.9891 -1.1512
   29MOL   H201 6977   7.371   5.462   6.526  0.9278  2.5053  1.5200
   29MOL   H202 6978   7.222   5.423   6.448  0.5698 -0.8149  2.6239
   29MOL   H203 6979   7.326   5.671   6.602 -1.3132  2.1346 -0.4391
   29MOL   H204 6980   7.181   5.695   6.501 -0.6306 -1.0226 -0.5894
   29MOL   H205 6981   7.179   5.598   6.643  0.4727  1.1404  1.0506
   29MOL   C206 6982   7.211   5.573   6.211  0.6613  0.2637 -0.4135
   29MOL   C207 6983   7.242   5.648   6.082 -0.2490  0.4014 -0.3458
   29MOL   C208 6984   7.309   5.783   6.103  0.7138 -0.4629 -0.5724
   29MOL   C209 6985   7.228   5.898   6.166  0.0700  0.2622  0.3385
   29MOL   H210 6986   7.135   5.624   6.270  0.5667 -2.1499  1.6339
   29MOL   H211 6987   7.149   5.484   6.200 -0.5839  0.8076  1.8896
   29MOL   H212 6988   7.321   5.601   6.023 -2.7904 -0.6012 -3.0818
   29MOL   H213 6989   7.363   5.817   6.014 -1.1106  1.9068 -0.8225
   29MOL   H214 6990   7.386   5.780   6.181 -0.6676 -0.1998  0.8234
   29MOL   H215 6991   7.294   5.978   6.199  0.0664 -0.0976  1.2282
   29MOL   H216 6992   7.168   5.940   6.086 -0.7562  1.7246  1.6995
   29MOL   H217 6993   7.167   5.860   6.248  0.8811 -2.1759 -0.1448
   29MOL   C218 6994   7.120   5.653   5.985  0.3717  0.3669  0.4867
   29MOL   C219 6995   7.080   5.523   5.914  0.0283 -0.2153  0.2819
   29MOL   C220 6996   7.189   5.453   5.834  0.5612  0.3326 -0.7406
   29MOL   C221 6997   7.270   5.541   5.740  0.4278  0.1950  0.2711
   29MOL   H222 6998   7.137   5.727   5.907 -2.4928  1.6368  0.9926
   29MOL   H223 6999   7.040   5.693   6.047  1.4573  0.5148  1.8085
   29MOL   H224 7000   7.048   5.453   5.990 -0.2309 -0.7491 -0.3127
   29MOL   H225 7001   7.133   5.376   5.782 -2.5468 -0.7451  3.8722
   29MOL   H226 7002   7.265   5.403   5.894 -0.3409 -0.5917 -0.3558
   29MOL   H227 7003   7.198   5.580   5.667 -1.1461  0.2348  1.8230
   29MOL   H228 7004   7.309   5.628   5.793  0.9244 -0.2755  0.6864
   29MOL   H229 7005   7.348   5.486   5.687 -0.9477 -0.9361 -0.6082
   29MOL   C230 7006   6.944   5.540   5.829 -0.0971 -0.1578  0.2299
   29MOL   C231 7007   6.825   5.605   5.909  0.2980  0.1013 -0.5913
   29MOL   C232 7008   6.688   5.631   5.826 -0.5346 -1.0285 -0.2146
   29MOL   C233 7009   6.692   5.743   5.717 -0.0247 -0.2223 -0.3508
   29MOL   H234 7010   6.911   5.445   5.788  0.8397 -1.5948  2.7253
   29MOL   H235 7011   6.972   5.591   5.737 -0.5237 -1.7430 -0.7838
   29MOL   H236 7012   6.785   5.541   5.987 -2.7680  4.6387  1.7975
   29MOL   H237 7013   6.607   5.657   5.893 -2.3915 -1.2759 -2.2890
   29MOL   H238 7014   6.652   5.536   5.784 -1.0291 -0.9956  0.1248
   29MOL   H239 7015   6.608   5.726   5.651  0.9110  0.3984 -1.7204
   29MOL   H240 7016   6.688   5.842   5.762 -0.4728 -0.6923  0.6670
   29MOL   H241 7017   6.782   5.738   5.655  1.3313 -1.1420  1.6154
   29MOL   H242 7018   6.862   5.699   5.949  2.8280 -1.6968  1.4374
   30MOL     C1 7019   0.418   0.897   1.179 -0.0685 -0.3319  0.1110
   30MOL     C2 7020   0.468   0.754   1.211 -0.0905 -0.0538 -0.6759
   30MOL     C3 7021   0.410   0.639   1.130 -0.2083 -1.0907 -0.1157
   30MOL     C4 7022   0.253   0.635   1.138 -0.1169  0.1289 -0.4850
   30MOL     H5 7023   0.478   0.975   1.226  0.1900  0.1616 -1.0294
   30MOL     H6 7024   0.421   0.914   1.072 -0.3111 -0.8882  0.0132
   30MOL     H7 7025   0.576   0.761   1.198 -0.0450  0.3373 -0.1038
   30MOL     H8 7026   0.458   0.544   1.157 -0.5556 -1.6602 -1.4640
   30MOL     H9 7027   0.445   0.660   1.029 -2.3149 -0.9980 -0.8607
   30MOL    H10 7028   0.222   0.548   1.082  3.6414 -1.4085 -0.3191
   30MOL    H11 7029   0.218   0.628   1.241  1.2194 -0.6159 -0.0691
   30MOL    H12 7030   0.213   0.727   1.094  0.8993  1.7681  1.8897
   30MOL    H13 7031   0.320   0.915   1.223 -0.7897 -1.2968 -1.0613
   30MOL    C14 7032   0.456   0.721   1.362  0.3463 -0.3826  0.5552
   30MOL    C15 7033   0.563   0.778   1.454 -1.0196  0.7494 -0.7595
   30MOL    C16 7034   0.568   0.934   1.465 -0.3386 -0.6651  0.5593
   30MOL    C17 7035   0.607   0.979   1.604  0.0137 -0.5689  0.6219
   30MOL    H18 7036   0.459   0.614   1.380  0.4362 -0.4808 -0.0253
   30MOL    H19 7037   0.354   0.741   1.395  0.0744  0.2983 -0.6473
   30MOL    H20 7038   0.534   0.739   1.552  1.0074  0.0357 -0.4114
   30MOL    H21 7039   0.472   0.975   1.434  1.0874  1.5537 -1.0527
   30MOL    H22 7040   0.645   0.964   1.395  1.0888  0.8049  2.6889
   30MOL    H23 7041   0.704   0.940   1.636  1.2739 -0.0434 -2.4667
   30MOL    H24 7042   0.598   1.084   1.631 -0.4494 -1.1439  2.8475
   30MOL    H25 7043   0.543   0.926   1.675 -0.9008 -2.4950 -1.5712
   30MOL    C26 7044   0.697   0.715   1.431 -0.1575  0.1228 -0.4343
   30MOL    C27 7045   0.716   0.570   1.487  0.2857 -0.0176  0.5792
   30MOL    C28 7046   0.698   0.564   1.642 -1.0354 -0.3057  0.3610
   30MOL    C29 7047   0.561   0.521   1.682 -0.0130  0.0454  0.3431
   30MOL    H30 7048   0.767   0.779   1.484 -0.4965  1.6597 -1.7965
   30MOL    H31 7049   0.732   0.713   1.328 -2.3139 -0.7170 -1.1748
   30MOL    H32 7050   0.650   0.495   1.443  0.6121  1.0257 -1.7416
   30MOL    H33 7051   0.727   0.658   1.688  0.6558 -1.1452  1.0634
   30MOL    H34 7052   0.752   0.482   1.691 -1.3078 -1.0063 -0.5050
   30MOL    H35 7053   0.543   0.538   1.789  0.1029  2.9858 -0.0606
   30MOL    H36 7054   0.476   0.567   1.632  0.9114  1.5357  0.1248
   30MOL    H37 7055   0.537   0.417   1.658 -1.8064 -0.3767  3.5297
   30MOL    C38 7056   0.856   0.513   1.459 -0.5607 -0.0225 -0.2207
   30MOL    C39 7057   0.905   0.510   1.310  0.0977  0.9119 -0.4223
   30MOL    C40 7058   0.790   0.463   1.208  0.0160 -0.6250  0.2939
   30MOL    C41 7059   0.738   0.322   1.229  0.3000  0.7331 -0.1531
   30MOL    H42 7060   0.866   0.417   1.509  0.2379  0.4731  0.5685
   30MOL    H43 7061   0.925   0.578   1.512 -0.0960  0.3198 -1.2154
   30MOL    H44 7062   0.926   0.614   1.284  0.6190  0.6591 -1.0148
   30MOL    H45 7063   0.822   0.480   1.105 -0.3722  0.4172  0.3382
   30MOL    H46 7064   0.702   0.526   1.221  0.7800  0.5696 -0.2013
   30MOL    H47 7065   0.634   0.312   1.199  0.9862 -1.5455 -1.9596
   30MOL    H48 7066   0.802   0.243   1.189  1.8761  2.0876 -0.3607
   30MOL    H49 7067   0.729   0.311   1.337  0.6046 -2.0894 -0.3588
   30MOL    C50 7068   1.040   0.427   1.305  0.1938 -0.4407 -0.0038
   30MOL    C51 7069   1.140   0.466   1.190  0.3056 -0.4897 -0.0280
   30MOL    C52 7070   1.229   0.349   1.160 -0.2008  0.4755 -0.1048
   30MOL    C53 7071   1.144   0.224   1.109  0.2865 -0.1312  0.6090
   30MOL    H54 7072   1.002   0.325   1.301  1.5714 -0.9316 -0.8787
   30MOL    H55 7073   1.093   0.439   1.400 -0.8930 -1.7960  0.7800
   30MOL    H56 7074   1.087   0.494   1.099 -1.1545 -0.6060  0.7700
   30MOL    H57 7075   1.294   0.324   1.244 -0.2539 -1.3118 -0.5796
   30MOL    H58 7076   1.301   0.374   1.082 -1.2431  1.9341 -0.6222
   30MOL    H59 7077   1.115   0.176   1.202  0.3743  3.1648  2.3814
   30MOL    H60 7078   1.075   0.260   1.033  0.6204 -0.8994 -0.0695
   30MOL    H61 7079   1.204   0.149   1.057 -1.5644 -1.4902  0.3754
   30MOL    C62 7080   1.222   0.594   1.236  1.2341 -0.0040  0.0643
   30MOL    C63 7081   1.313   0.668   1.128  0.3728 -0.5834 -0.0146
   30MOL    C64 7082   1.390   0.788   1.191 -0.1521 -0.1822 -0.4072
   30MOL    C65 7083   1.526   0.752   1.256 -0.3145 -0.0914  0.7240
   30MOL    H66 7084   1.296   0.564   1.311  0.3459  0.3910  1.1050
   30MOL    H67 7085   1.149   0.660   1.282  0.5986 -1.0316  0.5367
   30MOL    H68 7086   1.393   0.600   1.099  2.5580  2.1112 -0.4997
   30MOL    H69 7087   1.339   0.840   1.272  0.7444 -2.6712  1.8084
   30MOL    H70 7088   1.413   0.867   1.119 -0.5650 -0.6061 -1.0135
   30MOL    H71 7089   1.516   0.697   1.350 -0.7293 -0.5649  0.4068
   30MOL    H72 7090   1.587   0.692   1.188  0.1193  1.1633 -0.0039
   30MOL    H73 7091   1.586   0.839   1.282 -0.9770  1.7046 -3.3935
   30MOL    C74 7092   1.232   0.711   1.009  0.0021 -0.1896  0.1325
   30MOL    C75 7093   1.236   0.629   0.877 -0.1664  0.3321  0.3481
   30MOL    C76 7094   1.358   0.675   0.793 -0.5087  0.2821  0.3002
   30MOL    C77 7095   1.492   0.621   0.846 -0.2119  0.5046  0.1440
   30MOL    H78 7096   1.244   0.818   0.992  0.7978 -0.0605  1.4070
   30MOL    H79 7097   1.126   0.719   1.034 -0.5145 -0.4004 -1.9601
   30MOL    H80 7098   1.258   0.526   0.907 -1.6561  0.1990  0.9954
   30MOL    H81 7099   1.362   0.784   0.781  0.2664  0.4423  1.8238
   30MOL    H82 7100   1.337   0.644   0.691  0.5617  2.3493 -0.5795
   30MOL    H83 7101   1.505   0.513   0.857 -0.0566  0.7586  2.8766
   30MOL    H84 7102   1.560   0.655   0.768 -1.2989  0.3462 -0.8695
   30MOL    H85 7103   1.528   0.673   0.935  1.6742 -1.3690  0.5249
   30MOL    C86 7104   1.109   0.653   0.807  0.0262  0.1752 -0.0731
   30MOL    C87 7105   1.033   0.527   0.751 -0.1088 -0.1071 -1.0213
   30MOL    C88 7106   1.107   0.447   0.649  0.3947  0.3696 -0.9409
   30MOL    C89 7107   1.121   0.505   0.509  0.1419  0.6029  0.4799
   30MOL    H90 7108   1.132   0.717   0.722  1.0531  0.5156  0.4598
   30MOL    H91 7109   1.038   0.724   0.850 -0.6517 -0.4870 -0.0806
   30MOL    H92 7110   1.031   0.460   0.838  1.4055  0.0569 -0.8423
   30MOL    H93 7111   1.057   0.350   0.643 -1.8616  1.3239  1.4068
   30MOL    H94 7112   1.207   0.426   0.686  0.4268  0.0971 -1.1800
   30MOL    H95 7113   1.032   0.521   0.447  1.1778  3.1803 -0.4180
   30MOL    H96 7114   1.185   0.593   0.513 -0.6209  1.2266 -0.7021
   30MOL    H97 7115   1.182   0.437   0.449 -1.2206  0.9284 -1.3347
   30MOL    C98 7116   0.893   0.562   0.699  0.7752 -0.2114 -1.0383
   30MOL    C99 7117   0.782   0.574   0.805  0.4072  0.0326  0.1348
   30MOL   C100 7118   0.724   0.436   0.831 -0.1786  0.2452 -0.4631
   30MOL   C101 7119   0.804   0.313   0.832  0.0916 -0.2193  0.2277
   30MOL   H102 7120   0.864   0.486   0.627  2.2755  0.1227 -1.9917
   30MOL   H103 7121   0.896   0.655   0.642  2.3379 -1.7245 -3.4693
   30MOL   H104 7122   0.834   0.613   0.892 -3.1547  2.6116  1.1957
   30MOL   H105 7123   0.650   0.416   0.753  0.2134  0.8789 -1.0093
   30MOL   H106 7124   0.682   0.432   0.931  0.3640 -3.3459 -0.3042
   30MOL   H107 7125   0.735   0.230   0.849 -1.0753  0.9529  1.3921
   30MOL   H108 7126   0.858   0.306   0.738 -0.5691  0.3108 -0.1955
   30MOL   H109 7127   0.878   0.312   0.912  1.2958  0.4065 -0.8647
   30MOL   C110 7128   0.673   0.677   0.771  0.4104 -0.1876 -0.4362
   30MOL   C111 7129   0.722   0.829   0.761 -0.0314  0.1312  0.7974
   30MOL   C112 7130   0.715   0.886   0.898  0.0577  0.1615  0.6754
   30MOL   C113 7131   0.820   0.997   0.919  0.0482  0.0382 -0.2191
   30MOL   H114 7132   0.583   0.672   0.832 -2.0305  1.8258 -3.6765
   30MOL   H115 7133   0.638   0.649   0.671 -0.0051  0.5174 -0.4922
   30MOL   H116 7134   0.828   0.826   0.735 -0.3480 -2.4013 -0.3653
   30MOL   H117 7135   0.740   0.814   0.977  0.2150 -0.3285  0.1819
   30MOL   H118 7136   0.613   0.921   0.912 -0.5112 -0.0249 -2.5447
   30MOL   H119 7137   0.803   1.028   1.022 -2.5816 -1.3247 -0.1932
   30MOL   H120 7138   0.925   0.968   0.919  0.2331  0.6899 -0.7931
   30MOL   H121 7139   0.803   1.088   0.860 -2.5697  2.2877  3.7780
   30MOL   C122 7140   0.629   0.909   0.665 -0.5303  0.3487 -1.0817
   30MOL   C123 7141   0.662   0.881   0.513  0.0994 -1.0063  0.0789
   30MOL   C124 7142   0.796   0.940   0.462 -0.1651  0.0875  0.8111
   30MOL   C125 7143   0.844   0.883   0.327 -0.0308  0.5802  0.0919
   30MOL   H126 7144   0.651   1.013   0.690  0.2364  0.2687 -1.4076
   30MOL   H127 7145   0.522   0.905   0.688 -0.3368  1.9168  0.1436
   30MOL   H128 7146   0.679   0.773   0.503  0.3892 -0.9816  0.3182
   30MOL   H129 7147   0.882   0.923   0.527 -1.5453 -0.5974  2.5254
   30MOL   H130 7148   0.796   1.049   0.466  0.4515  0.1207 -0.0214
   30MOL   H131 7149   0.815   0.779   0.314  0.8560  0.4070 -0.5492
   30MOL   H132 7150   0.800   0.930   0.238  1.6913 -0.1114 -1.1563
   30MOL   H133 7151   0.952   0.873   0.321  0.0002  1.2725 -0.7313
   30MOL   C134 7152   0.536   0.916   0.425 -0.0052 -0.8443  0.7086
   30MOL   C135 7153   0.411   0.827   0.423 -0.5565 -0.4952  0.3751
   30MOL   C136 7154   0.422   0.731   0.298 -0.9152  0.0779  0.2252
   30MOL   C137 7155   0.533   0.632   0.299 -0.1129  0.5256  0.8260
   30MOL   H138 7156   0.567   0.929   0.321 -0.2017  0.6553  0.8208
   30MOL   H139 7157   0.506   1.018   0.449 -1.7349 -1.1357 -0.0902
   30MOL   H140 7158   0.415   0.754   0.505  1.0288  1.0844  1.7352
   30MOL   H141 7159   0.420   0.794   0.210  0.5435 -1.3036 -0.8231
   30MOL   H142 7160   0.336   0.666   0.288 -0.4312 -0.7557  1.3816
   30MOL   H143 7161   0.524   0.579   0.394  0.7583 -1.4247 -0.1661
   30MOL   H144 7162   0.523   0.560   0.218  1.1473 -0.8087  1.8273
   30MOL   H145 7163   0.633   0.676   0.300  0.2666 -0.2368 -1.4086
   30MOL   C146 7164   0.278   0.898   0.432  0.2192 -0.2296  1.0144
   30MOL   C147 7165   0.259   0.987   0.556 -0.0765  0.6028  0.0543
   30MOL   C148 7166   0.238   0.905   0.688 -0.2677  0.2847  0.0086
   30MOL   C149 7167   0.254   0.986   0.816  0.0488  0.2494  0.3992
   30MOL   H150 7168   0.197   0.826   0.443  1.0692 -1.1549  1.2277
   30MOL   H151 7169   0.267   0.969   0.350  1.1969 -0.3026  0.8094
   30MOL   H152 7170   0.352   1.043   0.569 -0.2278  1.0258 -0.6577
   30MOL   H153 7171   0.305   0.819   0.693 -1.7660 -0.8821  0.1016
   30MOL   H154 7172   0.143   0.853   0.691  0.9542 -2.0445 -0.4942
   30MOL   H155 7173   0.272   0.936   0.911  0.2512  1.2546  0.9080
   30MOL   H156 7174   0.345   1.044   0.801  0.1561  0.6230  2.3359
   30MOL   H157 7175   0.171   1.055   0.833  0.2283  0.1453  1.7721
   30MOL   C158 7176   0.141   1.082   0.541 -0.6369 -0.5845 -0.0322
   30MOL   C159 7177   0.145   1.204   0.444  0.0725  0.1642  0.3860
   30MOL   C160 7178   0.221   1.332   0.503  0.0575  0.4889 -0.1318
   30MOL   C161 7179   0.288   1.422   0.408  0.2423 -0.2792  0.6485
   30MOL   H162 7180   0.115   1.127   0.637  0.3263  1.8158 -0.8582
   30MOL   H163 7181   0.055   1.019   0.516 -0.7857 -0.4252  0.0697
   30MOL   H164 7182   0.194   1.182   0.349  2.0927  0.2946  1.3606
   30MOL   H165 7183   0.302   1.280   0.556 -0.0586  0.4764  0.0338
   30MOL   H166 7184   0.167   1.383   0.582 -2.2461 -1.5392 -0.3434
   30MOL   H167 7185   0.315   1.363   0.321  0.9110  0.6559  0.2092
   30MOL   H168 7186   0.215   1.497   0.379  1.8368  0.7887 -0.7379
   30MOL   H169 7187   0.381   1.464   0.449  0.1380  1.2953 -0.6442
   30MOL   C170 7188   0.007   1.257   0.412  0.2626  0.1933  0.1699
   30MOL   C171 7189   7.627   1.179   0.310  0.1197 -0.0379  0.1739
   30MOL   C172 7190   7.616   1.267   0.186  1.3167 -0.4348 -0.4439
   30MOL   C173 7191   7.581   1.186   0.058 -1.0888 -0.2047  0.4530
   30MOL   H174 7192   0.026   1.355   0.368  0.2873  0.8918  1.7056
   30MOL   H175 7193   7.646   1.267   0.498 -1.6287 -2.3866 -0.9246
   30MOL   H176 7194   7.676   1.085   0.283 -0.8877 -0.7210  0.6721
   30MOL   H177 7195   0.003   1.320   0.166  0.6354  1.3473  0.9116
   30MOL   H178 7196   7.546   1.348   0.206  1.7728  0.6400 -2.9343
   30MOL   H179 7197   7.598   1.245   7.674  0.2342 -1.9343 -0.4683
   30MOL   H180 7198   7.650   1.104   0.039 -2.2479 -0.5666 -2.4365
   30MOL   H181 7199   7.488   1.130   0.063 -0.7619 -1.0527 -2.0151
   30MOL   C182 7200   7.486   1.131   0.352 -0.9424  0.3630  0.9018
   30MOL   C183 7201   7.483   1.030   0.473  0.3312  0.5065 -0.6895
   30MOL   C184 7202   7.532   0.891   0.421 -0.0637  0.4281  0.1112
   30MOL   C185 7203   7.547   0.781   0.534  0.5572 -0.3964  0.7809
   30MOL   H186 7204   7.433   1.083   0.270  0.4587  1.4275 -0.6593
   30MOL   H187 7205   7.424   1.216   0.377  0.0284  1.2210  0.4222
   30MOL   H188 7206   7.547   1.060   0.556  1.5191 -1.1288 -0.9768
   30MOL   H189 7207   7.635   0.895   0.385 -0.0794 -1.0749 -0.1198
   30MOL   H190 7208   7.475   0.854   0.336  0.0233 -0.8469  0.5976
   30MOL   H191 7209   7.602   0.831   0.614 -0.6948  4.5258 -1.2193
   30MOL   H192 7210   7.452   0.753   0.579  0.8614 -0.3609  1.4562
   30MOL   H193 7211   7.607   0.695   0.505 -1.1131 -1.5977  0.7977
   30MOL   C194 7212   7.341   1.010   0.531  0.0150 -0.0228 -0.2544
   30MOL   C195 7213   7.289   1.125   0.614 -0.5106 -0.1561 -0.3273
   30MOL   C196 7214   7.317   1.111   0.765 -0.6293 -0.3659  0.5534
   30MOL   C197 7215   7.300   1.229   0.861 -0.3499  0.0840 -0.0544
   30MOL   H198 7216   7.346   0.924   0.598 -1.0292 -1.5984 -2.1352
   30MOL   H199 7217   7.269   0.984   0.453  1.1995 -0.6998 -1.1270
   30MOL   H200 7218   7.343   1.212   0.577 -2.5969  1.0679 -0.6076
   30MOL   H201 7219   7.419   1.077   0.779 -1.2152 -1.6898  1.8335
   30MOL   H202 7220   7.247   1.031   0.793 -3.0524  1.8491  1.0278
   30MOL   H203 7221   7.373   1.309   0.843 -0.2702  0.0540  0.1381
   30MOL   H204 7222   7.200   1.267   0.844 -0.9403 -2.5000 -2.6510
   30MOL   H205 7223   7.315   1.199   0.965  1.5651  0.5878 -0.1502
   30MOL   C206 7224   7.139   1.147   0.581 -0.6303 -0.3792 -0.1912
   30MOL   C207 7225   7.107   1.223   0.441 -0.2160 -0.0764 -0.2282
   30MOL   C208 7226   7.115   1.373   0.467  0.0238 -1.5897 -0.0097
   30MOL   C209 7227   7.171   1.445   0.340  0.4712  0.3221  0.3056
   30MOL   H210 7228   7.085   1.203   0.657 -0.8351  1.6498 -1.7570
   30MOL   H211 7229   7.093   1.049   0.570 -1.3481  0.2220 -3.3142
   30MOL   H212 7230   7.187   1.192   0.374 -0.2302 -2.6389  0.8506
   30MOL   H213 7231   7.185   1.392   0.548  0.7250 -0.1346 -0.9252
   30MOL   H214 7232   7.020   1.416   0.497  0.4624 -0.8868  0.3918
   30MOL   H215 7233   7.105   1.427   0.255  1.5201 -0.7443 -0.2864
   30MOL   H216 7234   7.179   1.554   0.340 -0.0490  0.3723 -1.3994
   30MOL   H217 7235   7.271   1.409   0.319 -0.8232 -3.7622  0.7822
   30MOL   C218 7236   6.971   1.184   0.389  0.0836  0.4572  0.0242
   30MOL   C219 7237   6.960   1.039   0.331 -0.4406 -0.6357 -0.2858
   30MOL   C220 7238   7.063   1.007   0.215  0.8094  0.1519 -0.2293
   30MOL   C221 7239   7.068   1.115   0.108  0.6914  0.5798 -0.1384
   30MOL   H222 7240   6.933   1.253   0.314  0.1398  0.5418  0.0732
   30MOL   H223 7241   6.891   1.202   0.461 -0.5656 -0.5154 -0.4351
   30MOL   H224 7242   6.958   0.955   0.400  0.3600 -1.2720 -1.0233
   30MOL   H225 7243   7.024   0.912   0.179  0.8670 -0.9703  2.5383
   30MOL   H226 7244   7.166   1.002   0.249  1.2731 -0.2668 -1.6858
   30MOL   H227 7245   7.095   1.204   0.164  1.1208  0.0420  0.5144
   30MOL   H228 7246   7.144   1.087   0.034  0.7647  0.4117  0.0002
   30MOL   H229 7247   6.978   1.116   0.046  0.8042  3.3292 -0.2970
   30MOL   C230 7248   6.818   1.013   0.262  0.0650 -0.1592  0.3875
   30MOL   C231 7249   6.717   0.988   0.380  0.5201 -0.3588 -0.1594
   30MOL   C232 7250   6.575   0.948   0.320 -0.1216 -0.6388  0.1094
   30MOL   C233 7251   6.523   1.063   0.230 -0.0482  0.1552 -0.5469
   30MOL   H234 7252   6.819   0.930   0.191  1.8672  2.6128 -3.0224
   30MOL   H235 7253   6.791   1.094   0.194  0.5303  0.0310  0.4277
   30MOL   H236 7254   6.753   0.902   0.437  1.8551  0.2206 -0.1220
   30MOL   H237 7255   6.494   0.931   0.392 -0.0756 -0.0048  0.3151
   30MOL   H238 7256   6.597   0.856   0.268  0.1588  0.3644 -1.5673
   30MOL   H239 7257   6.543   1.152   0.290 -0.8608 -0.8322  1.2385
   30MOL   H240 7258   6.560   1.059   0.128  0.5965  0.2929 -0.3169
   30MOL   H241 7259   6.417   1.049   0.205 -0.7027  0.4179  1.9654
   30MOL   H242 7260   6.718   1.073   0.447  0.7871  0.9251 -1.7676
   31MOL     C1 7261   0.528   1.265   1.059 -0.7255 -0.4458 -0.7321
   31MOL     C2 7262   0.620   1.282   1.178 -0.1783  0.1585  0.3344
   31MOL     C3 7263   0.540   1.364   1.287  0.5328 -0.9688 -0.8778
   31MOL     C4 7264   0.427   1.296   1.365  0.8822  0.2215 -0.4086
   31MOL     H5 7265   0.447   1.197   1.084 -0.8960  0.4834  1.3289
   31MOL     H6 7266   0.494   1.349   0.998 -0.8759 -0.3036 -0.4510
   31MOL     H7 7267   0.647   1.188   1.225 -0.3056  0.3523  0.7957
   31MOL     H8 7268   0.501   1.456   1.243  0.1817 -0.6883  0.0093
   31MOL     H9 7269   0.606   1.399   1.366 -0.5403 -0.6324 -0.1169
   31MOL    H10 7270   0.472   1.217   1.425 -0.2760 -1.2951 -1.4632
   31MOL    H11 7271   0.371   1.371   1.420 -0.3960 -0.2846 -0.9743
   31MOL    H12 7272   0.354   1.244   1.302 -2.0242 -1.1860  3.8549
   31MOL    H13 7273   0.583   1.197   0.994 -0.5957 -0.4765 -0.5892
   31MOL    C14 7274   0.747   1.357   1.124  0.5476  0.3365 -0.5720
   31MOL    C15 7275   0.866   1.350   1.208  0.2612 -0.0562 -0.2044
   31MOL    C16 7276   0.975   1.450   1.155  0.0711 -0.5053 -0.2088
   31MOL    C17 7277   0.924   1.592   1.153  0.2537  0.0118 -0.5024
   31MOL    H18 7278   0.724   1.456   1.087 -0.5868  0.5841  0.7359
   31MOL    H19 7279   0.776   1.301   1.035  0.5860 -0.1830 -0.2409
   31MOL    H20 7280   0.830   1.385   1.304 -1.9376  0.0594 -1.0463
   31MOL    H21 7281   1.004   1.410   1.058  1.0477 -1.2485  0.3867
   31MOL    H22 7282   1.063   1.451   1.219 -0.2287 -3.8962  0.3412
   31MOL    H23 7283   0.882   1.618   1.056  1.6479 -0.2239 -1.1788
   31MOL    H24 7284   0.848   1.609   1.230 -0.2285  0.8694 -1.1548
   31MOL    H25 7285   1.010   1.659   1.160  0.5477 -0.3752 -0.4312
   31MOL    C26 7286   0.935   1.211   1.223  0.0190 -0.4767  0.2032
   31MOL    C27 7287   1.017   1.191   1.352  0.4469  0.3198 -0.7418
   31MOL    C28 7288   1.108   1.067   1.339  0.6786  0.0131 -0.1499
   31MOL    C29 7289   1.222   1.070   1.439  0.3955 -0.3600 -0.3569
   31MOL    H30 7290   0.990   1.195   1.131 -0.4232 -1.1255  0.0434
   31MOL    H31 7291   0.851   1.142   1.235 -0.7656  0.4997  0.4508
   31MOL    H32 7292   1.080   1.280   1.355 -0.0163  0.6015  1.3962
   31MOL    H33 7293   1.154   1.080   1.241 -0.8823  2.1128 -0.6554
   31MOL    H34 7294   1.044   0.980   1.355  2.0384 -0.8695  0.6203
   31MOL    H35 7295   1.173   1.056   1.535 -0.1082 -1.4755 -0.7771
   31MOL    H36 7296   1.287   0.987   1.411  0.8896 -0.8855  2.1804
   31MOL    H37 7297   1.279   1.163   1.450 -0.2250 -0.0855  0.6368
   31MOL    C38 7298   0.917   1.190   1.470  0.3907 -0.1912 -0.2015
   31MOL    C39 7299   0.967   1.257   1.597 -0.6792  0.0197 -1.2176
   31MOL    C40 7300   0.901   1.190   1.722 -0.1018 -0.9550  1.0592
   31MOL    C41 7301   0.948   1.046   1.766  0.6995 -0.0723  0.4284
   31MOL    H42 7302   0.882   1.088   1.484 -1.7187  0.5654  0.2520
   31MOL    H43 7303   0.819   1.234   1.454 -0.2798 -1.6297 -0.1609
   31MOL    H44 7304   1.070   1.223   1.611 -1.9888 -3.1169  1.6107
   31MOL    H45 7305   0.793   1.192   1.710 -0.0082  2.7800  0.4439
   31MOL    H46 7306   0.921   1.250   1.811  5.1903 -2.1937  0.8811
   31MOL    H47 7307   0.903   0.998   1.853 -0.7234  0.4361 -0.0218
   31MOL    H48 7308   0.924   0.981   1.683 -1.2058 -0.2394  1.0947
   31MOL    H49 7309   1.054   1.048   1.790  0.7183  0.3562  0.3143
   31MOL    C50 7310   0.972   1.406   1.586 -0.6598  0.2423  0.3268
   31MOL    C51 7311   1.068   1.472   1.687 -1.0478 -0.1335  0.1830
   31MOL    C52 7312   1.029   1.620   1.700 -0.6636 -0.0393  0.3706
   31MOL    C53 7313   1.096   1.691   1.815  0.3710 -0.6296 -0.3416
   31MOL    H54 7314   0.873   1.444   1.613 -0.1220  2.8127 -1.0723
   31MOL    H55 7315   0.999   1.450   1.490  0.2146 -0.5797  0.1981
   31MOL    H56 7316   1.052   1.421   1.782 -0.4463 -0.9163 -0.1287
   31MOL    H57 7317   0.925   1.650   1.690 -0.6431 -0.4581 -1.3149
   31MOL    H58 7318   1.056   1.663   1.603 -2.7185  2.7264  0.9718
   31MOL    H59 7319   1.189   1.738   1.783  2.8364 -3.4453  2.4253
   31MOL    H60 7320   1.033   1.775   1.845  0.2657 -1.0151  0.5339
   31MOL    H61 7321   1.113   1.615   1.891  2.3771 -1.2275 -1.3669
   31MOL    C62 7322   1.221   1.451   1.636 -1.2103 -0.2264 -0.3060
   31MOL    C63 7323   1.325   1.420   1.743 -0.0173 -0.1293  0.5345
   31MOL    C64 7324   1.473   1.468   1.720 -0.9209 -0.3039 -0.2728
   31MOL    C65 7325   1.494   1.620   1.731 -1.4117 -0.7476  0.5161
   31MOL    H66 7326   1.255   1.548   1.599  0.7509  0.5961  3.3740
   31MOL    H67 7327   1.230   1.375   1.558  0.4168 -0.2757 -0.0939
   31MOL    H68 7328   1.297   1.484   1.826 -0.0511 -1.8900  1.9181
   31MOL    H69 7329   1.520   1.438   1.626  0.2247 -1.7034  0.7145
   31MOL    H70 7330   1.547   1.425   1.787  0.1597  1.6238 -0.1739
   31MOL    H71 7331   1.425   1.680   1.672  0.0290  1.6593  1.1708
   31MOL    H72 7332   1.481   1.657   1.833 -0.1040  0.1892  0.3616
   31MOL    H73 7333   1.595   1.645   1.699 -1.4000 -1.0149  0.3494
   31MOL    C74 7334   1.323   1.273   1.780 -0.2845 -0.0010 -0.5401
   31MOL    C75 7335   1.351   1.247   1.935  0.0209  1.2980 -0.3559
   31MOL    C76 7336   1.370   1.101   1.952 -0.3648 -0.7652 -0.1721
   31MOL    C77 7337   1.427   1.053   2.084 -0.1680  0.2854 -0.0737
   31MOL    H78 7338   1.388   1.215   1.713 -1.4547 -1.2357 -0.6269
   31MOL    H79 7339   1.223   1.234   1.763  0.7859 -2.9932 -0.3625
   31MOL    H80 7340   1.443   1.299   1.963  0.8386 -0.3770  0.1424
   31MOL    H81 7341   1.426   1.066   1.866  1.3497  3.3010 -0.8112
   31MOL    H82 7342   1.280   1.044   1.927 -1.3440 -0.3715  2.2553
   31MOL    H83 7343   1.500   1.112   2.139 -0.1065  1.1311 -1.0714
   31MOL    H84 7344   1.338   1.053   2.147  0.2312  4.6586  0.6207
   31MOL    H85 7345   1.462   0.950   2.092  1.8906  0.8589 -1.3621
   31MOL    C86 7346   1.250   1.307   2.039 -0.0814 -0.3407 -0.3955
   31MOL    C87 7347   1.295   1.392   2.159  0.0441  0.1334 -0.7233
   31MOL    C88 7348   1.184   1.392   2.265 -0.2267 -0.3105 -0.2226
   31MOL    C89 7349   1.169   1.262   2.350 -0.3461 -0.2228  0.3587
   31MOL    H90 7350   1.187   1.224   2.073  0.4382 -0.8416 -0.6357
   31MOL    H91 7351   1.177   1.372   1.992 -0.4701  0.1272  0.8218
   31MOL    H92 7352   1.381   1.335   2.195 -0.0969 -0.9806 -2.1041
   31MOL    H93 7353   1.086   1.416   2.224 -1.2565 -0.5348  2.0024
   31MOL    H94 7354   1.214   1.465   2.341  0.6779 -0.9223  0.0107
   31MOL    H95 7355   1.263   1.210   2.365  0.3379  1.3972  1.8984
   31MOL    H96 7356   1.135   1.277   2.453  0.4608 -1.6496  0.8411
   31MOL    H97 7357   1.093   1.198   2.304  0.7478  0.1593 -2.0578
   31MOL    C98 7358   1.335   1.533   2.116  0.4022 -0.0212 -0.6633
   31MOL    C99 7359   1.392   1.625   2.238  0.5054  0.3610 -0.2642
   31MOL   C100 7360   1.452   1.756   2.188 -0.2242  0.7418  0.3797
   31MOL   C101 7361   1.377   1.839   2.085 -0.1589  0.3094  0.1261
   31MOL   H102 7362   1.253   1.581   2.063  0.4293 -0.1654 -0.8334
   31MOL   H103 7363   1.419   1.532   2.047  0.2932  1.2883 -0.8420
   31MOL   H104 7364   1.303   1.655   2.295 -0.5671 -3.0750 -0.0446
   31MOL   H105 7365   1.546   1.730   2.139 -1.2133 -2.3469 -0.0023
   31MOL   H106 7366   1.492   1.814   2.271 -2.9944  1.2651  1.3977
   31MOL   H107 7367   1.280   1.852   2.134  1.0966 -0.8501  3.0700
   31MOL   H108 7368   1.432   1.930   2.063  0.0001 -0.1259 -1.3024
   31MOL   H109 7369   1.369   1.784   1.992 -0.8441  1.9927 -0.8300
   31MOL   C110 7370   1.492   1.552   2.338 -0.1756  0.1876  0.7680
   31MOL   C111 7371   1.496   1.628   2.477 -0.6566  0.7609  0.2309
   31MOL   C112 7372   1.636   1.628   2.546  0.0188 -0.3507 -0.1649
   31MOL   C113 7373   1.669   1.488   2.579  0.0778 -0.3743  0.0404
   31MOL   H114 7374   1.591   1.549   2.293  0.4139  0.4842  2.0159
   31MOL   H115 7375   1.463   1.451   2.366 -1.5011  0.4225  0.2635
   31MOL   H116 7376   1.473   1.732   2.455 -0.3829  0.6640 -0.5397
   31MOL   H117 7377   1.644   1.692   2.633 -0.4634 -0.8750  0.2675
   31MOL   H118 7378   1.718   1.664   2.484 -0.0830 -0.2312 -0.2293
   31MOL   H119 7379   1.680   1.422   2.493 -2.5672 -2.0047  0.8812
   31MOL   H120 7380   1.763   1.483   2.634 -0.0357 -0.6057  0.2195
   31MOL   H121 7381   1.600   1.428   2.639 -1.9230  0.9784 -0.8864
   31MOL   C122 7382   1.382   1.588   2.570  0.3420  0.0447  0.2495
   31MOL   C123 7383   1.347   1.689   2.684  0.3641  0.2054  0.5857
   31MOL   C124 7384   1.340   1.616   2.817 -0.3759 -0.3582 -0.3220
   31MOL   C125 7385   1.255   1.489   2.843 -0.4072 -0.1855  0.9024
   31MOL   H126 7386   1.413   1.492   2.611  2.4224 -0.1126 -1.6101
   31MOL   H127 7387   1.290   1.564   2.517  0.5210  1.1568 -0.5897
   31MOL   H128 7388   1.428   1.761   2.699  0.6204 -0.5162  2.7493
   31MOL   H129 7389   1.321   1.687   2.898  0.4031  1.2543 -1.5217
   31MOL   H130 7390   1.442   1.585   2.839 -1.3330 -0.6015  4.1917
   31MOL   H131 7391   1.149   1.514   2.847 -0.0798  1.1884  1.6526
   31MOL   H132 7392   1.272   1.408   2.773 -1.3718 -0.8589  1.4456
   31MOL   H133 7393   1.271   1.438   2.938  2.2773 -0.4492  0.3447
   31MOL   C134 7394   1.215   1.765   2.661  0.3933  0.5864 -0.0795
   31MOL   C135 7395   1.215   1.871   2.551 -0.1887  0.2303  0.0226
   31MOL   C136 7396   1.297   1.995   2.605  0.3811  0.3592 -0.1308
   31MOL   C137 7397   1.379   2.058   2.492 -0.0340  0.0859  0.9856
   31MOL   H138 7398   1.189   1.812   2.756 -1.2829 -1.5275  0.5506
   31MOL   H139 7399   1.127   1.701   2.656  0.9677 -0.3279  1.1740
   31MOL   H140 7400   1.255   1.820   2.463 -0.9112  0.1432 -0.2583
   31MOL   H141 7401   1.364   1.963   2.685  0.1364 -2.1902 -0.9217
   31MOL   H142 7402   1.223   2.063   2.647 -1.2896 -1.6528  0.2340
   31MOL   H143 7403   1.451   1.988   2.450 -1.7190 -1.2720  0.2730
   31MOL   H144 7404   1.320   2.101   2.411 -1.0019 -1.9634  0.5613
   31MOL   H145 7405   1.433   2.141   2.537 -0.5309  0.0542  1.6459
   31MOL   C146 7406   1.069   1.920   2.504 -0.0737 -0.0579 -0.0145
   31MOL   C147 7407   0.949   1.822   2.481 -0.2749 -0.1740 -0.7334
   31MOL   C148 7408   0.993   1.717   2.376  0.3218  0.7788 -1.0976
   31MOL   C149 7409   1.039   1.768   2.240 -0.2013  0.0166  0.1187
   31MOL   H150 7410   1.082   1.988   2.421 -2.8421  2.0642  1.2190
   31MOL   H151 7411   1.029   1.980   2.586  2.0100 -0.7190  1.5547
   31MOL   H152 7412   0.930   1.769   2.575 -2.3246 -0.4653 -1.2903
   31MOL   H153 7413   0.907   1.651   2.371  0.6309  0.2837 -0.0804
   31MOL   H154 7414   1.069   1.653   2.419 -0.5286 -0.3678 -1.2846
   31MOL   H155 7415   0.948   1.793   2.187 -2.3142 -1.1724  3.0507
   31MOL   H156 7416   1.110   1.851   2.243  1.0564 -1.0721  1.6667
   31MOL   H157 7417   1.087   1.686   2.185  1.8148  2.2367 -1.5619
   31MOL   C158 7418   0.817   1.899   2.456 -0.3043 -0.0691  0.4447
   31MOL   C159 7419   0.690   1.816   2.436 -0.6614 -0.0663  0.8944
   31MOL   C160 7420   0.588   1.922   2.385 -0.1132 -0.2750 -0.7624
   31MOL   C161 7421   0.606   1.956   2.234  0.3428  0.3162  0.1381
   31MOL   H162 7422   0.836   1.968   2.373 -0.0474  0.1614  0.6931
   31MOL   H163 7423   0.799   1.959   2.546  0.2205 -0.3559  0.7396
   31MOL   H164 7424   0.694   1.747   2.352 -0.8570 -2.5106  2.8306
   31MOL   H165 7425   0.580   2.015   2.440  0.9592 -0.5887 -0.0769
   31MOL   H166 7426   0.491   1.871   2.389 -0.4369  0.5030  2.9108
   31MOL   H167 7427   0.558   1.875   2.178 -0.2212  0.0815  0.9489
   31MOL   H168 7428   0.557   2.052   2.219  0.9209  0.7189  0.8249
   31MOL   H169 7429   0.711   1.965   2.206  0.2305  1.2535 -0.0083
   31MOL   C170 7430   0.631   1.753   2.563 -0.2541 -0.7654  0.7661
   31MOL   C171 7431   0.687   1.623   2.617 -0.2362  0.1177  0.3605
   31MOL   C172 7432   0.671   1.511   2.510  0.0803 -0.1914  0.0752
   31MOL   C173 7433   0.779   1.404   2.511  1.1389  0.2648 -0.1397
   31MOL   H174 7434   0.524   1.737   2.551 -0.1515  0.8151 -3.0950
   31MOL   H175 7435   0.630   1.832   2.637 -3.5253  1.5511 -1.5835
   31MOL   H176 7436   0.792   1.644   2.638 -0.9478  1.2608  3.0813
   31MOL   H177 7437   0.665   1.551   2.408  1.1090 -2.1764 -0.8082
   31MOL   H178 7438   0.582   1.449   2.520  0.0697 -0.4452 -1.3568
   31MOL   H179 7439   0.734   1.305   2.516 -1.4596  1.2977 -1.7044
   31MOL   H180 7440   0.852   1.411   2.431 -0.9391 -0.7203 -2.1635
   31MOL   H181 7441   0.828   1.404   2.609  0.3920 -1.3702  0.2413
   31MOL   C182 7442   0.610   1.576   2.755 -0.5213 -0.1924 -0.7082
   31MOL   C183 7443   0.652   1.665   2.871 -0.3481  0.0817 -0.2612
   31MOL   C184 7444   0.751   1.595   2.973  0.3867 -0.3400 -0.3368
   31MOL   C185 7445   0.879   1.557   2.897 -0.7158 -0.5048 -0.7022
   31MOL   H186 7446   0.632   1.474   2.786  0.3248  0.8136  2.0672
   31MOL   H187 7447   0.502   1.581   2.739 -0.7829 -3.3061 -0.2250
   31MOL   H188 7448   0.718   1.746   2.837 -1.4550  0.4386 -1.5953
   31MOL   H189 7449   0.704   1.507   3.015 -0.5466 -0.0806 -0.8165
   31MOL   H190 7450   0.776   1.657   3.059  1.2634  0.8591 -1.4350
   31MOL   H191 7451   0.929   1.639   2.845 -0.2071 -0.0534  0.4882
   31MOL   H192 7452   0.950   1.514   2.968  0.7259  1.3876 -0.9485
   31MOL   H193 7453   0.858   1.475   2.828  1.6358 -1.6766 -0.0727
   31MOL   C194 7454   0.522   1.719   2.942 -0.5240 -0.4135 -0.2242
   31MOL   C195 7455   0.445   1.835   2.877 -0.1162  0.1738 -0.5923
   31MOL   C196 7456   0.519   1.970   2.874 -0.4336 -0.1711 -0.2554
   31MOL   C197 7457   0.466   2.060   2.761  0.4288 -0.6126  0.4391
   31MOL   H198 7458   0.539   1.750   3.045  0.2397  2.4371 -1.1607
   31MOL   H199 7459   0.461   1.635   2.974 -1.1477  0.5158  1.1024
   31MOL   H200 7460   0.431   1.809   2.771  0.9826  1.9100 -1.1823
   31MOL   H201 7461   0.627   1.960   2.865 -0.4200 -1.3357  0.9633
   31MOL   H202 7462   0.520   2.017   2.972 -1.3562  0.9998 -0.7954
   31MOL   H203 7463   0.399   2.131   2.810 -3.3034 -4.6853  1.6057
   31MOL   H204 7464   0.554   2.110   2.721 -1.4221  1.0232 -1.7013
   31MOL   H205 7465   0.420   2.004   2.680  0.5870 -0.7460  0.4417
   31MOL   C206 7466   0.296   1.842   2.927  0.1420  0.3679  0.3830
   31MOL   C207 7467   0.185   1.884   2.826 -0.7600 -0.0666  0.7389
   31MOL   C208 7468   0.062   1.918   2.911 -0.0437  0.1925 -0.0893
   31MOL   C209 7469   0.062   2.066   2.958  0.2482  0.1169 -0.4378
   31MOL   H210 7470   0.300   1.912   3.011 -0.8222 -0.4496  1.1330
   31MOL   H211 7471   0.262   1.751   2.977 -0.7917  0.1663 -0.5919
   31MOL   H212 7472   0.208   1.978   2.776 -0.4643  0.0699  1.1276
   31MOL   H213 7473   0.067   1.857   3.002 -2.3837 -0.9381 -0.6872
   31MOL   H214 7474   7.670   1.893   2.870  0.2530 -0.5417 -0.3426
   31MOL   H215 7475   7.684   2.086   3.025  0.4921 -3.1627  0.9477
   31MOL   H216 7476   0.149   2.100   3.014  0.7100 -1.1586 -0.3611
   31MOL   H217 7477   0.056   2.136   2.875 -0.3269  1.1527  0.4670
   31MOL   C218 7478   0.151   1.776   2.712  0.5639 -0.0002 -0.6498
   31MOL   C219 7479   0.162   1.624   2.737 -0.4135  0.0630  0.1821
   31MOL   C220 7480   0.147   1.536   2.606 -0.1581  0.7553 -0.0168
   31MOL   C221 7481   0.275   1.538   2.527  0.3671 -0.4278 -0.2767
   31MOL   H222 7482   0.215   1.803   2.627  0.3681 -1.9514 -1.4480
   31MOL   H223 7483   0.051   1.794   2.674  0.9643  1.9406 -0.8278
   31MOL   H224 7484   0.262   1.597   2.771 -0.2589  2.7109  1.9662
   31MOL   H225 7485   0.068   1.588   2.551 -0.4048  1.0505  0.6122
   31MOL   H226 7486   0.109   1.436   2.628  1.3539  0.3060  0.6104
   31MOL   H227 7487   0.358   1.496   2.582 -0.4650  0.2569  1.5232
   31MOL   H228 7488   0.253   1.499   2.427 -0.4516 -2.5795  0.7040
   31MOL   H229 7489   0.297   1.643   2.508  3.2132 -1.0542 -0.6198
   31MOL   C230 7490   0.051   1.585   2.837  0.3835 -0.1854 -1.2082
   31MOL   C231 7491   0.063   1.452   2.915 -0.1475  0.3770  0.4215
   31MOL   C232 7492   7.688   1.452   3.044 -0.4307 -0.1149 -0.3205
   31MOL   C233 7493   7.654   1.309   3.099 -0.0036 -0.7004  0.9194
   31MOL   H234 7494   7.654   1.598   2.803 -0.8760 -0.8122  2.1486
   31MOL   H235 7495   0.060   1.666   2.910 -0.1961 -0.3789 -0.9121
   31MOL   H236 7496   0.018   1.380   2.846  0.8089 -0.0456  0.2314
   31MOL   H237 7497   7.594   1.506   3.032  0.4226  1.8953  1.7741
   31MOL   H238 7498   0.036   1.495   3.129 -0.2965 -1.6714  0.4086
   31MOL   H239 7499   7.580   1.325   3.178 -0.4938  0.2617  0.2758
   31MOL   H240 7500   7.624   1.241   3.020 -0.0413  0.5605 -0.1598
   31MOL   H241 7501   0.032   1.253   3.141  1.5739  1.2500  0.4478
   31MOL   H242 7502   0.162   1.416   2.942 -1.2113 -1.1770  2.3430
   32MOL     C1 7503   1.990   0.455   6.014  0.2256  0.3261  0.0397
   32MOL     C2 7504   2.081   0.471   6.137  0.1243  0.8800 -0.5803
   32MOL     C3 7505   2.023   0.591   6.218  0.4209  0.1467 -0.3052
   32MOL     C4 7506   1.998   0.722   6.137 -0.3924 -0.0280  0.4465
   32MOL     H5 7507   2.024   0.365   5.963 -1.3266 -0.2258 -0.0574
   32MOL     H6 7508   1.884   0.441   6.035 -0.3734  2.3605 -1.4777
   32MOL     H7 7509   2.081   0.381   6.199 -0.0802  0.6994 -0.8437
   32MOL     H8 7510   2.096   0.611   6.296 -1.5937  1.5429  1.2442
   32MOL     H9 7511   1.929   0.555   6.261  0.5782  0.5474  0.3738
   32MOL    H10 7512   2.089   0.771   6.103 -0.4360  1.5737  2.5041
   32MOL    H11 7513   1.913   0.713   6.070  1.6064 -1.7047 -1.9879
   32MOL    H12 7514   1.968   0.795   6.212  0.7292 -0.1312  1.0069
   32MOL    H13 7515   1.985   0.528   5.933 -1.7017 -0.6284 -0.7416
   32MOL    C14 7516   2.227   0.502   6.095  0.0930  1.3802 -0.0915
   32MOL    C15 7517   2.339   0.482   6.209  0.0553  0.0470  0.7259
   32MOL    C16 7518   2.434   0.599   6.228  0.1639  0.3396  0.3516
   32MOL    C17 7519   2.532   0.580   6.342  0.9189  0.2842 -0.1662
   32MOL    H18 7520   2.244   0.603   6.060  0.8545  1.0780 -0.6280
   32MOL    H19 7521   2.256   0.441   6.009  0.0416 -1.3628  1.7707
   32MOL    H20 7522   2.280   0.472   6.300  0.5644 -0.2567  1.0221
   32MOL    H21 7523   2.371   0.688   6.229 -0.3323 -0.0109  1.3245
   32MOL    H22 7524   2.486   0.605   6.133 -2.3289  0.2687 -1.0722
   32MOL    H23 7525   2.482   0.550   6.434  2.2838 -0.5005  0.3308
   32MOL    H24 7526   2.612   0.508   6.330 -0.3164 -0.9582 -1.1526
   32MOL    H25 7527   2.595   0.668   6.359  1.2579 -0.1033  0.6026
   32MOL    C26 7528   2.418   0.348   6.190  0.8388  0.5277  1.1204
   32MOL    C27 7529   2.348   0.214   6.200  0.1050  0.1300  0.1928
   32MOL    C28 7530   2.272   0.185   6.329  0.2098 -0.2176 -0.1004
   32MOL    C29 7531   2.364   0.174   6.453  0.5417 -0.9222 -0.3484
   32MOL    H30 7532   2.505   0.335   6.254 -2.0896 -1.9276  4.8532
   32MOL    H31 7533   2.454   0.353   6.088 -0.6922 -2.9134  0.3177
   32MOL    H32 7534   2.271   0.232   6.125 -0.6922  3.0106  1.6228
   32MOL    H33 7535   2.205   0.100   6.319  2.2040 -2.0508  1.8297
   32MOL    H34 7536   2.216   0.275   6.358  0.9665  0.6553 -1.2805
   32MOL    H35 7537   2.419   0.266   6.474 -1.3502  0.4462 -1.2508
   32MOL    H36 7538   2.309   0.156   6.546 -0.1584  1.3491 -0.2860
   32MOL    H37 7539   2.432   0.091   6.438 -0.4279 -1.3802 -2.4350
   32MOL    C38 7540   2.437   0.096   6.146 -0.4690  0.2446  0.0253
   32MOL    C39 7541   2.378   7.657   6.129  0.1272 -0.4055 -0.2128
   32MOL    C40 7542   2.481   7.562   6.075  0.5338 -0.6877  0.2732
   32MOL    C41 7543   2.620   7.565   6.144  0.2327  0.1934  0.1579
   32MOL    H42 7544   2.530   0.098   6.203  1.9084 -1.1218 -3.6242
   32MOL    H43 7545   2.472   0.126   6.047  1.5782  0.1235  0.6706
   32MOL    H44 7546   2.344   7.620   6.226  0.0838  1.6323  0.5795
   32MOL    H45 7547   2.487   7.583   5.968  0.1279  0.0908  0.4024
   32MOL    H46 7548   2.434   7.464   6.089 -1.1008 -0.0769 -0.8067
   32MOL    H47 7549   2.683   7.484   6.109  1.1578  0.7682  0.4738
   32MOL    H48 7550   2.671   7.655   6.109 -0.8893  0.3132 -1.2173
   32MOL    H49 7551   2.603   7.575   6.251 -0.3048  2.2583 -0.0957
   32MOL    C50 7552   2.249   7.663   6.043 -0.7581 -0.3118  0.5601
   32MOL    C51 7553   2.149   7.537   6.039 -0.1299  0.4537  0.5211
   32MOL    C52 7554   2.072   7.527   5.908 -0.2605  0.1627  0.1559
   32MOL    C53 7555   1.971   7.635   5.887  0.1002 -0.4268  0.0520
   32MOL    H54 7556   2.279   7.691   5.942  1.2808  2.1696  1.8006
   32MOL    H55 7557   2.191   0.038   6.088  2.3013  1.6906  1.0693
   32MOL    H56 7558   2.220   7.455   6.035  0.4319  0.9356  0.4864
   32MOL    H57 7559   2.018   7.432   5.906  1.8623 -1.0503 -0.2569
   32MOL    H58 7560   2.141   7.537   5.825  0.3626  0.1126  0.6642
   32MOL    H59 7561   2.004   0.033   5.889 -1.2212 -0.0123  0.7235
   32MOL    H60 7562   1.917   7.611   5.796  1.2650 -0.1841 -0.7109
   32MOL    H61 7563   1.899   7.629   5.968 -1.2923 -0.6334 -1.1921
   32MOL    C62 7564   2.073   7.517   6.174  0.6637 -0.1849  0.9905
   32MOL    C63 7565   1.990   7.384   6.185 -0.0720  0.1617 -0.3983
   32MOL    C64 7566   1.875   7.412   6.298  0.2928  0.2250  0.4994
   32MOL    C65 7567   1.764   7.516   6.272  0.9618 -0.0717  0.3893
   32MOL    H66 7568   1.997   7.593   6.192 -1.4099 -2.0284  0.3233
   32MOL    H67 7569   2.141   7.528   6.258  1.1428  0.6062  0.5056
   32MOL    H68 7570   1.933   7.364   6.094 -0.9907 -1.6341  0.5282
   32MOL    H69 7571   1.913   7.442   6.395 -1.2050  0.8127  0.9176
   32MOL    H70 7572   1.825   7.320   6.328 -1.2126  0.8515 -0.0531
   32MOL    H71 7573   1.678   7.508   6.339  1.4982 -0.5835  1.0206
   32MOL    H72 7574   1.799   7.619   6.279 -0.3725  0.3662  0.8513
   32MOL    H73 7575   1.712   7.505   6.176 -1.0406  0.7784  1.3436
   32MOL    C74 7576   2.080   7.264   6.218 -0.4667  0.9289  0.3314
   32MOL    C75 7577   2.092   7.162   6.108 -0.2984  0.5551 -0.0478
   32MOL    C76 7578   1.955   7.092   6.074 -0.0953 -0.6528 -0.8520
   32MOL    C77 7579   1.957   6.971   5.980  0.3208  0.2744 -0.0317
   32MOL    H78 7580   2.041   7.208   6.304  2.2401 -1.4093  0.1081
   32MOL    H79 7581   2.177   7.301   6.251 -0.6931  0.2723  1.7944
   32MOL    H80 7582   2.105   7.223   6.019 -0.2198 -1.0346 -1.1480
   32MOL    H81 7583   1.881   7.156   6.025 -1.1165 -1.1666  0.0142
   32MOL    H82 7584   1.919   7.066   6.173  3.3760  1.5280  1.1030
   32MOL    H83 7585   1.857   6.944   5.947  0.7412 -2.1256  0.5513
   32MOL    H84 7586   2.009   6.988   5.885  0.3936 -0.4190 -0.1214
   32MOL    H85 7587   2.002   6.887   6.033  0.7895  0.1813 -0.5714
   32MOL    C86 7588   2.214   7.062   6.116  0.3070 -0.0699  0.0845
   32MOL    C87 7589   2.346   7.128   6.083 -0.2214  0.4124  0.1807
   32MOL    C88 7590   2.364   7.156   5.932 -0.1171 -0.2380 -0.1064
   32MOL    C89 7591   2.339   7.036   5.837 -0.3295  0.4092  0.1314
   32MOL    H90 7592   2.204   6.977   6.049 -1.3861 -1.4915  2.0818
   32MOL    H91 7593   2.221   7.026   6.219  0.8635  0.0836  0.1025
   32MOL    H92 7594   2.354   7.231   6.120 -0.2740  0.1145  1.0264
   32MOL    H93 7595   2.463   7.196   5.913 -0.7100  0.5329 -1.6340
   32MOL    H94 7596   2.299   7.236   5.896 -1.1392 -1.2592 -0.5858
   32MOL    H95 7597   2.399   6.953   5.875 -0.0734  0.9839  0.9932
   32MOL    H96 7598   2.236   7.002   5.830 -0.7576  1.4791  1.0135
   32MOL    H97 7599   2.371   7.068   5.738 -2.8787  2.0496 -0.1965
   32MOL    C98 7600   2.465   7.041   6.130  0.0006  0.1395  0.3956
   32MOL    C99 7601   2.551   7.087   6.250 -0.4048 -0.5277 -0.3963
   32MOL   C100 7602   2.689   7.011   6.258  0.0130 -0.1443  0.3974
   32MOL   C101 7603   2.780   7.016   6.136  0.6024 -0.5035 -0.4768
   32MOL   H102 7604   2.523   7.040   6.037 -0.6322  1.9008 -0.0374
   32MOL   H103 7605   2.437   6.937   6.146 -0.8462  0.2506 -0.3058
   32MOL   H104 7606   2.587   7.189   6.235  0.4339  0.0047  4.6363
   32MOL   H105 7607   2.675   6.907   6.290 -0.7120  0.3531  1.7371
   32MOL   H106 7608   2.748   7.054   6.339 -1.5624 -0.4196  1.7161
   32MOL   H107 7609   2.786   7.120   6.102  0.6979  0.7001  2.9854
   32MOL   H108 7610   2.883   6.990   6.158 -0.2391 -2.0430  1.8216
   32MOL   H109 7611   2.735   6.955   6.058 -1.1435 -0.2680  0.3166
   32MOL   C110 7612   2.467   7.067   6.380 -1.0064 -0.5189  0.0343
   32MOL   C111 7613   2.525   7.127   6.521 -0.0442 -0.2426  0.7040
   32MOL   C112 7614   2.417   7.142   6.630 -0.0869 -0.3749 -0.3522
   32MOL   C113 7615   2.334   7.013   6.646 -0.3961  0.0248 -0.7013
   32MOL   H114 7616   2.449   6.963   6.405 -2.2632 -0.7797 -1.8752
   32MOL   H115 7617   2.367   7.105   6.360 -0.6057  0.4794 -0.0818
   32MOL   H116 7618   2.602   7.053   6.541 -0.0950 -0.0460  1.6313
   32MOL   H117 7619   2.349   7.223   6.604  0.0517  0.5382  1.9560
   32MOL   H118 7620   2.463   7.178   6.722  0.4134 -1.3941 -0.1961
   32MOL   H119 7621   2.277   7.012   6.739 -0.1126  0.1116 -0.5257
   32MOL   H120 7622   2.268   6.977   6.566 -1.4697 -2.5193  1.2664
   32MOL   H121 7623   2.406   6.933   6.665 -0.2608  0.5802  1.1608
   32MOL   C122 7624   2.596   7.268   6.501 -0.7731 -0.8154  0.7489
   32MOL   C123 7625   2.654   7.351   6.620  0.4119  0.2247 -0.1925
   32MOL   C124 7626   2.710   7.478   6.562  0.3611 -0.4579  0.4853
   32MOL   C125 7627   2.599   7.583   6.549  0.1609 -0.2107 -0.1185
   32MOL   H126 7628   2.531   7.334   6.443  1.1333  0.4820  0.0527
   32MOL   H127 7629   2.672   7.256   6.424 -0.8259  3.1036 -0.0037
   32MOL   H128 7630   2.577   7.380   6.692  0.0159  0.8625 -0.8675
   32MOL   H129 7631   2.750   7.451   6.465  0.7369 -1.3482  0.8848
   32MOL   H130 7632   2.794   7.518   6.618  0.9383 -0.5773 -0.2986
   32MOL   H131 7633   2.583   7.616   6.652 -0.2681  0.0894 -0.2857
   32MOL   H132 7634   2.642   7.673   6.505  0.2411 -0.7785 -1.2253
   32MOL   H133 7635   2.511   7.553   6.494  1.0213 -2.5038 -0.3159
   32MOL   C134 7636   2.762   7.262   6.681  0.2612  0.2993  0.0080
   32MOL   C135 7637   2.849   7.313   6.804 -0.3583 -0.2238  0.2058
   32MOL   C136 7638   2.980   7.224   6.838  1.0253 -0.9505 -0.5542
   32MOL   C137 7639   3.098   7.274   6.754 -0.0055 -0.3570  0.1347
   32MOL   H138 7640   2.839   7.226   6.612  0.8309  0.1426  0.7115
   32MOL   H139 7641   2.712   7.172   6.718 -0.6269  0.3632 -1.0012
   32MOL   H140 7642   2.891   7.410   6.778 -0.9084 -0.0946 -0.2180
   32MOL   H141 7643   2.959   7.118   6.831 -1.5970 -0.3489 -2.6174
   32MOL   H142 7644   3.019   7.249   6.937  0.7266 -2.4623 -0.0354
   32MOL   H143 7645   3.187   7.214   6.772 -0.2150 -0.8727 -0.5691
   32MOL   H144 7646   3.068   7.265   6.650  3.0080  1.3475 -0.9263
   32MOL   H145 7647   3.128   7.374   6.786 -4.3170  0.4424  2.1366
   32MOL   C146 7648   2.756   7.356   6.923  0.3020  0.4048 -0.2461
   32MOL   C147 7649   2.828   7.455   7.018  0.4981 -0.2526 -0.1337
   32MOL   C148 7650   2.773   7.434   7.167  0.7782 -0.2444 -0.0386
   32MOL   C149 7651   2.840   7.505   7.285 -0.5797 -0.6715  0.2301
   32MOL   H150 7652   2.734   7.271   6.987  1.7229  2.2489  2.8652
   32MOL   H151 7653   2.663   7.406   6.895 -0.1903 -1.6545 -2.3748
   32MOL   H152 7654   2.935   7.446   7.006  0.9911  3.2806  0.8774
   32MOL   H153 7655   2.781   7.327   7.189  0.2047 -0.2624  0.0830
   32MOL   H154 7656   2.668   7.460   7.173  0.2815 -2.1782  0.0439
   32MOL   H155 7657   2.948   7.518   7.288 -0.5844 -0.7873  0.9289
   32MOL   H156 7658   2.802   7.606   7.302 -1.1938 -1.1440  1.7214
   32MOL   H157 7659   2.814   7.463   7.382 -1.9884 -0.5696 -0.0919
   32MOL   C158 7660   2.804   7.601   6.977  0.3572  0.1806  0.0436
   32MOL   C159 7661   2.915   7.700   7.012  0.3996  0.5637 -0.6039
   32MOL   C160 7662   2.863   0.140   7.001 -0.6726 -0.4397  0.1289
   32MOL   C161 7663   2.945   0.249   7.078  0.4093  0.1415  0.6746
   32MOL   H162 7664   2.704   7.623   7.016 -0.0886 -0.0580 -0.9547
   32MOL   H163 7665   2.775   7.610   6.873 -1.2522  1.7143  0.5869
   32MOL   H164 7666   2.937   7.679   7.116 -0.0447  1.4730 -0.3220
   32MOL   H165 7667   2.760   0.141   7.039 -0.5164 -0.2664  0.5488
   32MOL   H166 7668   2.834   0.169   6.900  4.9443 -1.4804 -1.9405
   32MOL   H167 7669   3.005   0.191   7.149 -0.4394 -0.9223  0.5349
   32MOL   H168 7670   3.010   0.293   7.002 -1.6295  1.1502 -0.5246
   32MOL   H169 7671   2.898   0.338   7.120 -0.4284 -0.6702  1.4795
   32MOL   C170 7672   3.036   7.691   6.913 -0.0018 -0.5157  0.0062
   32MOL   C171 7673   3.175   0.006   6.975  0.6455  0.1049 -0.1088
   32MOL   C172 7674   3.282   0.040   6.870  0.0423 -0.6213 -0.2068
   32MOL   C173 7675   3.270   0.188   6.820  0.4978  0.3671 -0.1023
   32MOL   H174 7676   3.020   0.058   6.833  0.6986 -0.8869 -0.4771
   32MOL   H175 7677   3.031   7.596   6.859  1.8966 -1.2745  1.1417
   32MOL   H176 7678   3.177   0.093   7.040  1.1480 -0.6292  0.8665
   32MOL   H177 7679   3.275   7.681   6.783  2.4457  1.2420 -1.8790
   32MOL   H178 7680   3.380   0.025   6.915  0.1767  0.2454 -0.1963
   32MOL   H179 7681   3.287   0.270   6.890  0.8176  0.5631 -0.4040
   32MOL   H180 7682   3.328   0.209   6.730 -0.3970  4.2215  0.1135
   32MOL   H181 7683   3.168   0.203   6.785  0.4589  0.3832  0.0187
   32MOL   C182 7684   3.211   7.584   7.061  0.7948  0.3906 -0.2952
   32MOL   C183 7685   3.346   7.591   7.148 -0.5527  0.3151  0.2658
   32MOL   C184 7686   3.389   7.446   7.182  0.7205  0.0798  0.0051
   32MOL   C185 7687   3.294   7.375   7.268  0.1434  0.0302  0.1741
   32MOL   H186 7688   3.218   7.500   6.991 -0.7717 -1.4918  1.7288
   32MOL   H187 7689   3.124   7.567   7.125 -0.7770  0.1471 -2.4265
   32MOL   H188 7690   3.431   7.625   7.088  0.5073  0.7753  1.9609
   32MOL   H189 7691   3.490   7.446   7.223  1.2893  0.5219 -1.3535
   32MOL   H190 7692   3.405   7.396   7.087  0.6105  3.2645 -1.7648
   32MOL   H191 7693   3.272   7.415   7.367 -1.4470 -1.0568  0.2836
   32MOL   H192 7694   3.194   7.373   7.223 -0.1054  0.1588  0.7166
   32MOL   H193 7695   3.328   7.274   7.289  1.3524  0.7630  1.8683
   32MOL   C194 7696   3.339   7.679   7.272 -0.1039 -0.5072  0.6715
   32MOL   C195 7697   3.377   0.120   7.239  0.4472 -0.5371  0.3139
   32MOL   C196 7698   3.531   0.154   7.228 -0.8271  0.6530  0.0724
   32MOL   C197 7699   3.595   0.167   7.369 -0.2515 -0.1018 -0.2222
   32MOL   H198 7700   3.400   7.645   7.355 -2.0316  0.1821  2.4240
   32MOL   H199 7701   3.233   7.683   7.298 -0.5059  0.3308 -1.0016
   32MOL   H200 7702   3.327   0.138   7.144 -1.4150 -0.1150  1.3566
   32MOL   H201 7703   3.543   0.252   7.182 -2.4015  0.5082 -0.6747
   32MOL   H202 7704   3.584   0.085   7.163 -1.2144 -0.4723  0.9277
   32MOL   H203 7705   3.580   0.075   7.426  1.8018 -0.0377  0.4856
   32MOL   H204 7706   3.703   0.164   7.360 -0.0555 -2.4396  2.2145
   32MOL   H205 7707   3.555   0.255   7.419  1.6676  0.2519  0.7560
   32MOL   C206 7708   3.295   0.220   7.324  0.5836  0.2932 -0.1474
   32MOL   C207 7709   3.304   0.369   7.293 -0.2472  0.0138 -0.6583
   32MOL   C208 7710   3.258   0.454   7.413 -0.1354  0.5084 -0.4408
   32MOL   C209 7711   3.110   0.444   7.450  0.1974  0.2965  0.3366
   32MOL   H210 7712   3.320   0.201   7.428 -0.9400 -0.9844  0.0050
   32MOL   H211 7713   3.194   0.180   7.317  1.0470 -1.0344  0.5284
   32MOL   H212 7714   3.409   0.394   7.276 -0.2759  0.0645 -0.7618
   32MOL   H213 7715   3.275   0.559   7.387 -0.3265  1.1290  1.8195
   32MOL   H214 7716   3.336   0.441   7.489 -0.7155 -0.0242  0.0703
   32MOL   H215 7717   3.097   0.480   7.552  1.3887 -2.1781  1.4125
   32MOL   H216 7718   3.045   0.505   7.388 -0.0215 -0.9597 -0.7096
   32MOL   H217 7719   3.076   0.340   7.445  1.0153 -0.0360  1.4261
   32MOL   C218 7720   3.228   0.412   7.165  0.7792 -0.1263  0.0259
   32MOL   C219 7721   3.256   0.558   7.115 -0.6852 -0.4111  0.1371
   32MOL   C220 7722   3.178   0.580   6.985  0.1031 -0.1596  0.1600
   32MOL   C221 7723   3.153   0.731   6.957 -0.1478  0.5133  0.5883
   32MOL   H222 7724   3.121   0.403   7.180  0.7693 -0.3768 -0.1973
   32MOL   H223 7725   3.259   0.340   7.089  0.4354  0.0001 -0.2321
   32MOL   H224 7726   3.209   0.633   7.181 -2.5045 -1.9558  0.6522
   32MOL   H225 7727   3.075   0.546   6.999  0.4136 -1.3493 -0.4168
   32MOL   H226 7728   3.219   0.542   6.892  0.5930 -0.1310  0.3649
   32MOL   H227 7729   3.076   0.782   7.014 -1.1092 -0.6254  0.3440
   32MOL   H228 7730   3.247   0.787   6.959  1.0000 -1.2020 -1.7923
   32MOL   H229 7731   3.133   0.740   6.851  0.1123 -0.5643  0.4327
   32MOL   C230 7732   3.406   0.585   7.094  0.2792  0.2736 -0.1341
   32MOL   C231 7733   3.458   0.703   7.176  0.1922 -0.0278 -0.0826
   32MOL   C232 7734   3.593   0.746   7.133  0.4911 -0.3897 -0.7382
   32MOL   C233 7735   3.640   0.863   7.228  0.1117  0.2044 -0.3068
   32MOL   H234 7736   3.420   0.604   6.988 -0.8566  2.6111  0.1197
   32MOL   H235 7737   3.463   0.494   7.112  1.1854  0.3872 -2.3220
   32MOL   H236 7738   3.388   0.787   7.176 -1.1368 -1.1023 -1.6616
   32MOL   H237 7739   3.610   0.772   7.028  0.3300  0.2683 -0.6032
   32MOL   H238 7740   3.657   0.662   7.157 -0.3365 -0.4216  1.4662
   32MOL   H239 7741   3.744   0.888   7.210 -0.4245  0.7280 -2.9343
   32MOL   H240 7742   3.570   0.946   7.219 -0.6763 -0.3537  0.5430
   32MOL   H241 7743   3.625   0.828   7.331 -0.8194 -1.4139 -0.9716
   32MOL   H242 7744   3.470   0.654   7.272 -0.1709  2.0999  1.0633
   33MOL     C1 7745   4.061   0.336   7.512  0.0770 -0.2921 -0.3358
   33MOL     C2 7746   4.052   0.483   7.553  0.1095 -0.1143  0.2615
   33MOL     C3 7747   3.992   0.557   7.429  0.2362 -0.5435  0.2620
   33MOL     C4 7748   3.844   0.543   7.402  0.0468  0.1487  0.3041
   33MOL     H5 7749   4.139   0.316   7.438  0.0899 -3.6659  0.5344
   33MOL     H6 7750   4.096   0.272   7.593 -1.1901  1.5460  1.7271
   33MOL     H7 7751   3.996   0.508   7.643  1.2502  0.5359  0.8105
   33MOL     H8 7752   4.031   0.526   7.332  0.8458  1.2819 -0.0960
   33MOL     H9 7753   4.012   0.663   7.443  1.1307 -0.3249 -2.4140
   33MOL    H10 7754   3.813   0.608   7.321  0.0993 -0.4479 -0.2026
   33MOL    H11 7755   3.818   0.442   7.370  1.1174 -0.9794  2.7981
   33MOL    H12 7756   3.788   0.559   7.495  2.0191  1.3592  1.3173
   33MOL    H13 7757   3.971   0.289   7.473  1.0345 -0.7457 -2.0663
   33MOL    C14 7758   4.190   0.548   7.584 -0.7072  0.3770 -0.2431
   33MOL    C15 7759   4.252   0.482   0.003 -0.1190 -0.0845  0.2190
   33MOL    C16 7760   4.184   0.535   0.130 -0.4402  0.3761  0.6879
   33MOL    C17 7761   4.168   0.418   0.226 -0.2828  0.3954  0.7711
   33MOL    H18 7762   4.172   0.655   7.594  1.4504  0.7040  0.3681
   33MOL    H19 7763   4.257   0.548   7.498  2.0250  1.0704  1.8295
   33MOL    H20 7764   4.246   0.373   0.001  1.9076 -0.2240  0.2770
   33MOL    H21 7765   4.090   0.590   0.124 -1.2623 -1.0598  0.2511
   33MOL    H22 7766   4.261   0.595   0.178  0.2508  0.0506 -0.0146
   33MOL    H23 7767   4.145   0.323   0.177 -2.3106  1.4158 -0.3289
   33MOL    H24 7768   4.264   0.412   0.276  0.0849  2.2652  0.3209
   33MOL    H25 7769   4.084   0.437   0.293 -0.5530 -5.0800  2.2711
   33MOL    C26 7770   4.401   0.509   0.004 -0.0286  0.6782 -0.2993
   33MOL    C27 7771   4.488   0.450   7.593 -0.1772  0.4839  0.5788
   33MOL    C28 7772   4.480   0.297   7.579  0.0031 -0.7105  0.4578
   33MOL    C29 7773   4.543   0.219   7.691  0.0589 -0.0804  0.5850
   33MOL    H30 7774   4.441   0.471   0.098 -1.4292 -0.4569 -0.1307
   33MOL    H31 7775   4.405   0.618   0.003  0.1989  0.6977  1.6339
   33MOL    H32 7776   4.440   0.484   7.501  1.6115 -0.2067 -0.6304
   33MOL    H33 7777   4.536   0.260   7.494  0.6553  0.2255  0.4768
   33MOL    H34 7778   4.380   0.253   7.571  0.3068 -1.3679  0.2517
   33MOL    H35 7779   4.651   0.221   7.684 -0.0489 -0.3025 -1.2009
   33MOL    H36 7780   4.508   0.265   0.078 -2.0480  0.5009 -0.4660
   33MOL    H37 7781   4.508   0.116   7.681 -1.5150  0.6850 -2.6048
   33MOL    C38 7782   4.636   0.501   7.593 -0.0766  0.4531 -1.3043
   33MOL    C39 7783   4.667   0.647   7.561 -0.0279 -0.2679  0.1636
   33MOL    C40 7784   4.631   0.698   7.422 -0.3707 -0.1618  0.0552
   33MOL    C41 7785   4.501   0.771   7.406 -0.3921 -0.8263  0.3123
   33MOL    H42 7786   4.681   0.452   7.506  0.1178  3.2585 -2.8576
   33MOL    H43 7787   4.689   0.472   7.683  0.0596  0.2131 -1.4597
   33MOL    H44 7788   4.608   0.704   7.633 -1.0881 -0.3130 -0.6539
   33MOL    H45 7789   4.620   0.607   7.364  0.3493  1.2854 -2.4390
   33MOL    H46 7790   4.712   0.758   7.379  0.1565 -1.3978 -0.7063
   33MOL    H47 7791   4.494   0.857   7.473  2.1028  0.2865 -0.7990
   33MOL    H48 7792   4.491   0.799   7.302 -0.7728 -0.6563  0.3935
   33MOL    H49 7793   4.421   0.699   7.427 -0.8695 -0.0329  1.2715
   33MOL    C50 7794   4.809   0.689   7.611  0.5333  0.2587 -0.2340
   33MOL    C51 7795   4.814   0.835   7.650 -0.3517 -0.4550 -0.0779
   33MOL    C52 7796   4.929   0.921   7.588 -0.0682 -0.6605  0.7661
   33MOL    C53 7797   4.920   0.935   7.432  0.8721  0.2760 -0.8586
   33MOL    H54 7798   4.878   0.683   7.526 -0.1187 -1.9636 -0.6261
   33MOL    H55 7799   4.852   0.627   7.689  0.8977 -2.4371 -2.4818
   33MOL    H56 7800   4.729   0.880   7.600 -0.4361 -2.6046 -1.9286
   33MOL    H57 7801   5.031   0.892   7.617  0.0725 -1.5051 -0.5397
   33MOL    H58 7802   4.926   1.024   7.621  2.6713 -0.8573  1.7803
   33MOL    H59 7803   4.998   0.999   7.390 -1.2212  4.2337  0.9503
   33MOL    H60 7804   4.919   0.836   7.387 -2.9503 -1.3133  2.4658
   33MOL    H61 7805   4.832   0.993   7.405  1.0711  0.0224 -2.0708
   33MOL    C62 7806   4.814   0.847   0.105 -0.1353 -0.4939 -0.2509
   33MOL    C63 7807   4.673   0.815   0.169  0.4449 -0.0401  0.1122
   33MOL    C64 7808   4.563   0.903   0.117  0.9094  0.3636 -0.6352
   33MOL    C65 7809   4.422   0.885   0.163  0.6451 -0.2097 -0.0036
   33MOL    H66 7810   4.844   0.948   0.132  0.3724  0.1973 -3.2445
   33MOL    H67 7811   4.888   0.780   0.147 -0.8135  0.5005  2.6449
   33MOL    H68 7812   4.642   0.713   0.145  1.6599 -0.2562 -0.6024
   33MOL    H69 7813   4.558   0.894   0.008  2.0796  1.3529 -0.7809
   33MOL    H70 7814   4.599   1.006   0.120 -0.6220  0.8601  1.7175
   33MOL    H71 7815   4.341   0.942   0.116  1.1316 -0.0405 -0.6374
   33MOL    H72 7816   4.393   0.780   0.159  1.9826 -0.7307  2.7040
   33MOL    H73 7817   4.414   0.918   0.267  0.8343 -0.0791 -0.0314
   33MOL    C74 7818   4.688   0.823   0.322  0.2220 -0.1244 -0.2707
   33MOL    C75 7819   4.754   0.698   0.384  0.1292  0.2145 -0.0853
   33MOL    C76 7820   4.653   0.578   0.386 -0.6385 -0.6374 -0.6075
   33MOL    C77 7821   4.715   0.436   0.398 -0.2142  0.1618  0.1847
   33MOL    H78 7822   4.591   0.817   0.371  0.2949 -0.0555 -0.1147
   33MOL    H79 7823   4.738   0.917   0.347  1.5605 -0.6759 -0.8419
   33MOL    H80 7824   4.834   0.667   0.317  1.3954  1.8983  0.6042
   33MOL    H81 7825   4.600   0.579   0.290  0.3441 -0.6308 -1.1627
   33MOL    H82 7826   4.587   0.593   0.470  2.0864  0.1360  1.4675
   33MOL    H83 7827   4.802   0.421   0.335 -0.2341 -0.9872  0.4182
   33MOL    H84 7828   4.736   0.403   0.500  0.2655 -0.0681  0.0133
   33MOL    H85 7829   4.641   0.372   0.350 -1.0948  1.6210 -0.4391
   33MOL    C86 7830   4.827   0.727   0.522 -0.9959 -0.0680 -0.0068
   33MOL    C87 7831   4.963   0.804   0.514  1.0145 -0.5101  0.2659
   33MOL    C88 7832   5.080   0.714   0.556  0.8362 -0.3358 -0.0005
   33MOL    C89 7833   5.113   0.602   0.468  0.7620  0.0079  0.3396
   33MOL    H90 7834   4.841   0.624   0.557  3.7984 -0.0707 -1.5258
   33MOL    H91 7835   4.751   0.778   0.581 -1.5287 -1.1440  0.2474
   33MOL    H92 7836   4.979   0.827   0.409 -3.0577 -0.3877 -0.3975
   33MOL    H93 7837   5.057   0.671   0.653  1.0638  0.0595  0.2305
   33MOL    H94 7838   5.171   0.769   0.583 -0.3355  1.9812 -0.6447
   33MOL    H95 7839   5.024   0.550   0.434  0.2114 -0.0498  1.8502
   33MOL    H96 7840   5.171   0.629   0.380  2.4498 -0.6361  1.2260
   33MOL    H97 7841   5.170   0.523   0.518 -0.3140 -1.5563 -0.8515
   33MOL    C98 7842   4.960   0.934   0.591  0.0797  0.0218  0.1013
   33MOL    C99 7843   5.048   1.050   0.539  0.0629  0.1506 -0.0426
   33MOL   C100 7844   5.079   1.162   0.655 -0.1830 -0.4440  0.0394
   33MOL   C101 7845   5.197   1.099   0.737 -0.5578  0.0710 -0.0800
   33MOL   H102 7846   4.984   0.909   0.695 -2.9431 -1.3832  0.5296
   33MOL   H103 7847   4.855   0.963   0.595 -0.0188 -0.4865  1.6442
   33MOL   H104 7848   5.142   1.011   0.500 -1.5278 -3.2866 -0.5747
   33MOL   H105 7849   4.999   1.171   0.728  1.1467 -2.9492  1.9036
   33MOL   H106 7850   5.103   1.263   0.621  2.8193 -1.4882 -1.1605
   33MOL   H107 7851   5.229   1.170   0.814 -1.0266 -0.2812  0.4401
   33MOL   H108 7852   5.153   1.006   0.773  0.1894 -0.9239 -1.6667
   33MOL   H109 7853   5.284   1.074   0.677 -1.2228 -1.5157 -0.4019
   33MOL   C110 7854   4.990   1.116   0.409 -0.0468 -0.5869 -0.3939
   33MOL   C111 7855   5.073   1.215   0.325  0.9658 -0.5773 -0.1211
   33MOL   C112 7856   5.009   1.348   0.273 -0.0348  0.2836  0.0897
   33MOL   C113 7857   4.966   1.448   0.383  0.7952 -0.2028 -0.1425
   33MOL   H114 7858   4.904   1.172   0.447  1.3625  0.6854  0.9969
   33MOL   H115 7859   4.957   1.041   0.337 -2.5232  0.0627  0.0172
   33MOL   H116 7860   5.147   1.246   0.399 -0.1220 -0.9205  1.1376
   33MOL   H117 7861   4.919   1.332   0.215  0.4657  1.5497 -1.0717
   33MOL   H118 7862   5.078   1.397   0.204 -1.0537  0.5580 -0.7428
   33MOL   H119 7863   4.909   1.526   0.332 -0.4722  0.1874  1.8124
   33MOL   H120 7864   4.912   1.410   0.470 -0.4677 -3.0181 -2.1174
   33MOL   H121 7865   5.051   1.494   0.434  0.2156 -1.6235  2.2084
   33MOL   C122 7866   5.154   1.137   0.213  0.0725  0.3233 -0.1173
   33MOL   C123 7867   5.296   1.190   0.179 -0.3210  0.3581 -0.2597
   33MOL   C124 7868   5.354   1.118   0.057 -0.5522  0.1922 -0.1571
   33MOL   C125 7869   5.280   1.151   7.632  0.0448  0.4362 -0.3062
   33MOL   H126 7870   5.090   1.126   0.125 -1.1557  1.1637  0.6582
   33MOL   H127 7871   5.169   1.034   0.247  0.1613 -0.0205 -1.1936
   33MOL   H128 7872   5.282   1.295   0.151 -1.3386 -0.1961 -1.8914
   33MOL   H129 7873   5.352   1.012   0.078 -0.0474  0.2308  0.0848
   33MOL   H130 7874   5.458   1.149   0.057 -0.4243 -0.2304 -0.4582
   33MOL   H131 7875   5.184   1.099   7.625 -0.0009  0.3679  0.7830
   33MOL   H132 7876   5.267   1.256   7.607 -1.4047  0.8599  2.1067
   33MOL   H133 7877   5.340   1.110   7.551  0.3478 -0.2124  0.2416
   33MOL   C134 7878   5.386   1.178   0.304 -0.1690 -0.1052  0.1601
   33MOL   C135 7879   5.481   1.304   0.324  0.3225 -0.1269 -0.1020
   33MOL   C136 7880   5.602   1.278   0.411  0.2093  0.1822 -0.3575
   33MOL   C137 7881   5.702   1.184   0.339  0.2031  0.0035 -0.4369
   33MOL   H138 7882   5.448   1.089   0.299  0.5371  0.4073 -0.2613
   33MOL   H139 7883   5.336   1.156   0.399 -1.3829 -2.3943 -0.9718
   33MOL   H140 7884   5.511   1.328   0.222  0.5958 -0.5813 -0.1326
   33MOL   H141 7885   5.570   1.227   0.502  1.2487  1.6101  0.8350
   33MOL   H142 7886   5.660   1.367   0.436 -1.0103  0.6751  0.7827
   33MOL   H143 7887   5.798   1.174   0.391  1.2741  2.5508 -1.8091
   33MOL   H144 7888   5.659   1.086   0.320 -3.8565  2.1222 -2.9018
   33MOL   H145 7889   5.728   1.208   0.236 -0.7757  0.9678 -0.4634
   33MOL   C146 7890   5.389   1.419   0.369  0.3617  0.1049  0.2381
   33MOL   C147 7891   5.459   1.555   0.350 -0.0694 -0.1055  0.3544
   33MOL   C148 7892   5.423   1.649   0.465  0.0103  0.2505  1.0308
   33MOL   C149 7893   5.483   1.608   0.602 -0.4504 -0.2532  0.0103
   33MOL   H150 7894   5.359   1.400   0.472  0.6124 -2.1533 -0.0900
   33MOL   H151 7895   5.291   1.420   0.319 -0.3716 -0.8052  1.6316
   33MOL   H152 7896   5.568   1.547   0.354  0.1371  1.5676 -1.2468
   33MOL   H153 7897   5.315   1.650   0.475 -0.2942  0.9085 -1.8776
   33MOL   H154 7898   5.461   1.749   0.441 -0.7177  0.2662 -0.0908
   33MOL   H155 7899   5.590   1.593   0.587 -0.4984 -0.0487 -0.5438
   33MOL   H156 7900   5.474   1.684   0.680  1.6837 -0.4339  0.4627
   33MOL   H157 7901   5.429   1.524   0.646 -2.3773 -0.0700 -1.8877
   33MOL   C158 7902   5.430   1.611   0.207  0.0741  0.2991 -0.6345
   33MOL   C159 7903   5.547   1.614   0.106 -0.4260 -0.5096  0.0030
   33MOL   C160 7904   5.635   1.744   0.133 -0.0866  0.7857 -0.3515
   33MOL   C161 7905   5.779   1.728   0.064  0.8759  0.0085 -0.1883
   33MOL   H162 7906   5.403   1.716   0.222 -0.7520  0.1341 -0.9483
   33MOL   H163 7907   5.340   1.560   0.171  1.6117 -1.4481 -2.0560
   33MOL   H164 7908   5.606   1.524   0.125 -0.6965 -0.3015  1.9663
   33MOL   H165 7909   5.655   1.761   0.239 -2.6987  0.0608  0.3063
   33MOL   H166 7910   5.585   1.832   0.092 -0.2459  0.5950 -0.5657
   33MOL   H167 7911   5.784   1.749   7.663 -0.7913  2.3001  0.1591
   33MOL   H168 7912   5.832   1.809   0.113  1.9000  0.5210 -2.1089
   33MOL   H169 7913   5.824   1.633   0.095 -1.0498 -1.3171 -1.3003
   33MOL   C170 7914   5.496   1.636   7.669  0.2629 -0.0442  0.4275
   33MOL   C171 7915   5.435   1.509   7.600  0.2724  0.5493 -0.5628
   33MOL   C172 7916   5.525   1.384   7.592 -0.5051  0.2205 -0.2557
   33MOL   C173 7917   5.668   1.404   7.528  0.2027  0.1551 -0.2461
   33MOL   H174 7918   5.583   1.664   7.609  0.6948  1.3243  1.6625
   33MOL   H175 7919   5.424   1.717   7.664 -0.2937 -0.2549  3.9678
   33MOL   H176 7920   5.351   1.471   7.659  1.6175 -0.7281  0.5949
   33MOL   H177 7921   5.475   1.303   7.540  0.9284 -1.2373  0.5748
   33MOL   H178 7922   5.551   1.351   7.693 -1.1211  2.0815  0.5312
   33MOL   H179 7923   5.660   1.444   7.427 -1.5105 -0.9841 -0.5829
   33MOL   H180 7924   5.714   1.479   7.592 -0.2453 -0.0691  0.3399
   33MOL   H181 7925   5.728   1.313   7.521  0.9150  0.2894  3.3066
   33MOL   C182 7926   5.378   1.540   7.455  0.0585 -0.1996  0.4760
   33MOL   C183 7927   5.250   1.621   7.440 -0.8579  0.4331  0.9072
   33MOL   C184 7928   5.130   1.539   7.493 -0.4570 -0.6145  0.5703
   33MOL   C185 7929   5.085   1.593   7.624  0.5013  0.2809 -1.2543
   33MOL   H186 7930   5.384   1.448   7.397  1.4288 -1.2025  2.1417
   33MOL   H187 7931   5.456   1.603   7.411  0.7810 -1.9398 -0.7969
   33MOL   H188 7932   5.254   1.711   7.502 -4.3929  0.3834  1.3273
   33MOL   H189 7933   5.156   1.433   7.506  1.9050 -0.1983 -0.3826
   33MOL   H190 7934   5.043   1.524   7.429 -1.0994  0.6683  1.1348
   33MOL   H191 7935   5.158   1.578   7.703  0.2479 -2.9190 -1.5860
   33MOL   H192 7936   5.073   1.702   7.628 -1.0110  0.1297 -1.1429
   33MOL   H193 7937   4.992   1.552   7.664  0.1453  1.8599 -0.4186
   33MOL   C194 7938   5.213   1.651   7.292 -0.4596  0.2415 -0.5024
   33MOL   C195 7939   5.082   1.734   7.266 -0.3585  0.0116  0.1077
   33MOL   C196 7940   5.028   1.719   7.122 -0.2125  0.0010 -0.5849
   33MOL   C197 7941   4.973   1.587   7.073 -0.4245 -0.3091  0.5806
   33MOL   H198 7942   5.206   1.555   7.241 -2.0152 -0.0383  0.2107
   33MOL   H199 7943   5.293   1.703   7.241 -1.2845  1.6759 -0.3647
   33MOL   H200 7944   5.008   1.691   7.334  0.3403  0.7775  1.3659
   33MOL   H201 7945   5.112   1.747   7.058 -0.5581 -0.2785 -1.1680
   33MOL   H202 7946   4.959   1.800   7.098 -2.3371 -1.4633  0.4429
   33MOL   H203 7947   4.913   1.547   7.155  1.1437 -0.7668  1.5497
   33MOL   H204 7948   4.913   1.594   6.983  0.1717 -0.0643  0.2005
   33MOL   H205 7949   5.063   1.528   7.053  0.9022  1.0148  2.4771
   33MOL   C206 7950   5.110   1.881   7.308  0.4649  0.0380  0.1334
   33MOL   C207 7951   4.985   1.981   7.316  0.3623  0.0722  0.4173
   33MOL   C208 7952   5.038   2.115   7.368  0.1567 -0.3471  0.1342
   33MOL   C209 7953   5.091   2.209   7.261 -0.0156 -0.0833 -0.1227
   33MOL   H210 7954   5.181   1.923   7.237  1.6400 -1.3850  0.4322
   33MOL   H211 7955   5.150   1.881   7.410 -2.5075  3.0907  1.4022
   33MOL   H212 7956   4.951   1.994   7.213  1.5856  1.7793  0.2028
   33MOL   H213 7957   5.113   2.106   7.447 -0.7017  1.3025  1.1783
   33MOL   H214 7958   4.964   2.166   7.430  1.8293  1.5933  0.6023
   33MOL   H215 7959   5.102   2.307   7.309  2.9189 -0.5099  0.1977
   33MOL   H216 7960   5.193   2.182   7.235  1.1200  1.0203  2.9399
   33MOL   H217 7961   5.024   2.205   7.176 -0.5963  2.8676  0.1564
   33MOL   C218 7962   4.873   1.923   7.407 -0.1756  0.6563  0.0699
   33MOL   C219 7963   4.738   2.004   7.416  0.0966  0.4745 -0.2382
   33MOL   C220 7964   4.654   1.936   7.524  0.1148 -0.7737 -0.3341
   33MOL   C221 7965   4.694   1.969   7.664  0.1025 -0.1038  0.1422
   33MOL   H222 7966   4.920   1.919   7.504  0.9019 -1.7064 -0.5191
   33MOL   H223 7967   4.844   1.825   7.369 -2.3611  2.3636 -2.9679
   33MOL   H224 7968   4.745   2.106   7.455 -2.7599  0.2870  0.9062
   33MOL   H225 7969   4.655   1.829   7.506  1.8919 -1.1163  1.6457
   33MOL   H226 7970   4.549   1.967   7.515  0.5849  0.9422 -0.1387
   33MOL   H227 7971   4.618   1.918   0.017 -0.4466 -0.7873 -1.1396
   33MOL   H228 7972   4.792   1.925   7.684 -0.5680 -1.8045 -0.2058
   33MOL   H229 7973   4.689   2.075   7.691  0.2115  0.0142 -0.2999
   33MOL   C230 7974   4.663   2.004   7.281 -0.1747 -0.3079 -0.8496
   33MOL   C231 7975   4.699   2.123   7.189  0.3292 -0.2709  0.0810
   33MOL   C232 7976   4.599   2.134   7.072 -0.5673  0.2009 -0.0702
   33MOL   C233 7977   4.597   2.001   7.000 -0.2519 -0.1956 -0.4895
   33MOL   H234 7978   4.557   2.005   7.303  0.2343  0.4153  1.2001
   33MOL   H235 7979   4.685   1.917   7.219  0.3710 -0.6550 -0.1720
   33MOL   H236 7980   4.696   2.212   7.251  1.3675  0.0691 -0.3491
   33MOL   H237 7981   4.620   2.210   6.997  0.2708 -1.0281 -1.0983
   33MOL   H238 7982   4.495   2.138   7.105 -0.2329 -0.8857  1.2012
   33MOL   H239 7983   4.531   2.009   6.913 -1.8806 -2.2499  0.5070
   33MOL   H240 7984   4.699   1.976   6.970  0.4123 -1.0977  2.3822
   33MOL   H241 7985   4.551   1.918   7.053 -3.6269  2.3251  0.6806
   33MOL   H242 7986   4.799   2.118   7.146  0.0252  1.4475 -0.8221
   34MOL     C1 7987   5.105   7.138   2.559  0.8193  0.3718 -0.3162
   34MOL     C2 7988   5.029   7.019   2.632 -0.3921  0.0449  0.5292
   34MOL     C3 7989   4.878   7.024   2.611  0.7606 -0.0703 -0.0370
   34MOL     C4 7990   4.850   7.058   2.464 -0.1910  0.6482 -0.0816
   34MOL     H5 7991   5.050   7.228   2.586  0.3011  0.7072 -2.3718
   34MOL     H6 7992   5.206   7.160   2.595  1.5100 -0.8598 -1.4271
   34MOL     H7 7993   5.059   6.924   2.588 -0.7456 -1.0562  2.5764
   34MOL     H8 7994   4.841   7.107   2.671  3.6882  1.0640  0.2823
   34MOL     H9 7995   4.831   6.933   2.649  1.6232 -0.3842  0.2923
   34MOL    H10 7996   4.910   6.995   2.399 -2.4183 -1.1175 -0.4798
   34MOL    H11 7997   4.747   7.037   2.435 -0.3306 -1.2605  1.6912
   34MOL    H12 7998   4.859   7.163   2.435  2.3265  0.6903  0.7437
   34MOL    H13 7999   5.098   7.139   2.450  0.3322  1.8932 -0.2818
   34MOL    C14 8000   5.069   7.029   2.780 -0.0623  0.3148 -0.9311
   34MOL    C15 8001   5.039   6.892   2.850 -0.2426  0.1693  0.2370
   34MOL    C16 8002   5.053   6.906   3.002  0.2729  0.1249 -0.1314
   34MOL    C17 8003   4.935   6.978   3.077  0.1528 -0.4048 -0.5881
   34MOL    H18 8004   5.019   7.115   2.826 -1.0492 -0.7098 -0.0508
   34MOL    H19 8005   5.177   7.039   2.790  0.0107 -1.5087  0.3980
   34MOL    H20 8006   4.934   6.865   2.838 -0.8542  2.6950 -0.3349
   34MOL    H21 8007   5.152   6.942   3.029  0.6343 -1.1532  0.2547
   34MOL    H22 8008   5.054   6.803   3.037 -1.0327  0.1059 -0.1204
   34MOL    H23 8009   4.943   6.965   3.185 -0.6708  0.7515 -0.3851
   34MOL    H24 8010   4.934   7.084   3.055 -2.7532 -0.0434  0.9915
   34MOL    H25 8011   4.838   6.935   3.051  0.2638  0.0143 -1.7026
   34MOL    C26 8012   5.132   6.777   2.805  0.3999  0.2420 -0.2190
   34MOL    C27 8013   5.061   6.676   2.714  0.1275  0.7161 -0.2791
   34MOL    C28 8014   4.978   6.569   2.792 -0.1906  0.8302  0.2348
   34MOL    C29 8015   4.838   6.620   2.803  0.7907 -0.0152 -0.4407
   34MOL    H30 8016   5.181   6.714   2.879  1.1701 -2.5821 -3.0299
   34MOL    H31 8017   5.208   6.829   2.746  0.2974  2.3136  1.4226
   34MOL    H32 8018   4.999   6.741   2.652 -0.4049 -0.2858 -0.8101
   34MOL    H33 8019   5.026   6.548   2.888  0.7472  1.2012 -0.1485
   34MOL    H34 8020   4.981   6.469   2.748  0.4120  1.0766 -0.2978
   34MOL    H35 8021   4.795   6.666   2.714 -1.7561 -0.9523  0.2682
   34MOL    H36 8022   4.777   6.536   2.837 -0.2485  0.5596 -0.8646
   34MOL    H37 8023   4.832   6.688   2.888 -0.3812 -0.4271 -0.1853
   34MOL    C38 8024   5.159   6.605   2.615 -0.1973  0.2615 -0.2418
   34MOL    C39 8025   5.166   6.668   2.474 -0.2288 -0.4776 -0.3702
   34MOL    C40 8026   5.033   6.667   2.392  0.7984  0.3780  0.1378
   34MOL    C41 8027   4.946   6.545   2.423  0.2552 -0.2367  0.3943
   34MOL    H42 8028   5.125   6.501   2.606  1.0213 -0.0172 -1.9925
   34MOL    H43 8029   5.256   6.601   2.663 -1.0987 -0.9488  1.5442
   34MOL    H44 8030   5.188   6.773   2.495 -1.0689 -0.0436 -1.5829
   34MOL    H45 8031   5.043   6.675   2.284 -1.5214  0.6529 -0.0836
   34MOL    H46 8032   4.973   6.748   2.432 -0.9851 -2.2085  2.9039
   34MOL    H47 8033   4.846   6.561   2.382 -1.1566 -1.2177  3.2984
   34MOL    H48 8034   4.993   6.455   2.382  0.5424 -0.5307  1.3476
   34MOL    H49 8035   4.926   6.518   2.527  0.6109  2.0023  1.0751
   34MOL    C50 8036   5.279   6.593   2.400 -0.0653  0.3328 -0.4227
   34MOL    C51 8037   5.361   6.684   2.312  0.2836 -0.4258  0.6312
   34MOL    C52 8038   5.378   6.616   2.171  0.1398  0.1860 -0.0622
   34MOL    C53 8039   5.457   6.705   2.065  0.2349  0.0015 -1.0106
   34MOL    H54 8040   5.241   6.514   2.336  1.9264  0.1074 -1.3994
   34MOL    H55 8041   5.349   6.543   2.467 -1.4631  0.7767  1.4153
   34MOL    H56 8042   5.299   6.772   2.297 -0.3730 -1.2103 -1.4324
   34MOL    H57 8043   5.284   6.590   2.123  0.3683  0.6354 -0.7680
   34MOL    H58 8044   5.435   6.525   2.189  0.1160  0.5875  2.1678
   34MOL    H59 8045   5.558   6.725   2.103  0.3226 -1.8563 -0.1961
   34MOL    H60 8046   5.475   6.651   1.972 -2.4977 -0.6722 -1.1845
   34MOL    H61 8047   5.418   6.803   2.040 -0.6127  0.4051  1.7589
   34MOL    C62 8048   5.491   6.735   2.384 -0.1014 -0.5875 -0.0378
   34MOL    C63 8049   5.473   6.811   2.523  0.4540 -0.4618 -0.2947
   34MOL    C64 8050   5.423   6.964   2.514  0.2439 -0.5597 -0.0574
   34MOL    C65 8051   5.466   7.031   2.380  0.1570  0.1863 -0.1205
   34MOL    H66 8052   5.557   6.788   2.315  0.8754 -0.2920  1.1138
   34MOL    H67 8053   5.556   6.652   2.409  0.7902  0.4383  1.0833
   34MOL    H68 8054   5.393   6.777   2.589 -0.0137 -1.9073 -1.5632
   34MOL    H69 8055   5.457   7.012   2.606 -1.2611 -0.6978  0.5839
   34MOL    H70 8056   5.315   6.965   2.526  0.1681 -1.8971 -0.5234
   34MOL    H71 8057   5.413   6.997   2.291  0.3684  0.9516 -0.5412
   34MOL    H72 8058   5.442   7.137   2.383  1.4427  0.4687  0.6650
   34MOL    H73 8059   5.574   7.023   2.366 -0.0229 -1.5211 -0.7107
   34MOL    C74 8060   5.613   6.820   2.596  0.7034 -0.8096  0.1208
   34MOL    C75 8061   5.697   6.692   2.634 -0.7018 -0.4875  0.2483
   34MOL    C76 8062   5.606   6.579   2.697  0.1502 -0.5383 -0.6288
   34MOL    C77 8063   5.539   6.630   2.822 -0.2995 -0.2324 -0.2651
   34MOL    H78 8064   5.601   6.862   2.696  0.2428 -0.9507  0.1252
   34MOL    H79 8065   5.674   6.898   2.552 -0.6899  0.5098  0.4739
   34MOL    H80 8066   5.742   6.668   2.537  1.1699  0.3287  0.8968
   34MOL    H81 8067   5.654   6.482   2.711  0.7748 -0.0548  0.6563
   34MOL    H82 8068   5.521   6.566   2.630 -1.7120 -1.1654  1.7614
   34MOL    H83 8069   5.490   6.547   2.873  2.3772 -1.9175 -0.3150
   34MOL    H84 8070   5.604   6.663   2.902 -0.8587  1.3998 -0.4687
   34MOL    H85 8071   5.469   6.711   2.802  0.6095  1.0418  1.6074
   34MOL    C86 8072   5.818   6.741   2.717  0.1986 -0.1941 -0.2003
   34MOL    C87 8073   5.938   6.648   2.749 -0.5114  0.4447  0.0125
   34MOL    C88 8074   5.912   6.570   2.885 -0.2841  0.5283 -0.4363
   34MOL    C89 8075   6.018   6.469   2.926  0.0355  0.5473  0.1467
   34MOL    H90 8076   5.776   6.786   2.807 -0.7556  1.1211 -1.2806
   34MOL    H91 8077   5.856   6.829   2.665  1.7715  0.4074  1.8637
   34MOL    H92 8078   5.954   6.579   2.667 -0.1675 -0.4127  0.7845
   34MOL    H93 8079   5.818   6.515   2.878  0.5112 -0.6941 -1.5420
   34MOL    H94 8080   5.900   6.642   2.966 -0.4721  0.5449 -0.4777
   34MOL    H95 8081   6.109   6.519   2.959  1.4610 -0.8878 -1.5428
   34MOL    H96 8082   5.984   6.409   3.011  0.5249  0.5546  0.3545
   34MOL    H97 8083   6.048   6.397   2.850 -0.6816 -0.3279  0.6774
   34MOL    C98 8084   6.070   6.727   2.766  0.2505 -0.2991  0.1155
   34MOL    C99 8085   6.136   6.793   2.646 -0.0970 -0.0486  0.4437
   34MOL   C100 8086   6.153   6.689   2.524  0.1793 -0.2540  0.3421
   34MOL   C101 8087   6.254   6.578   2.541 -0.3067  0.2048  0.6794
   34MOL   H102 8088   6.151   6.662   2.800 -0.0779 -1.4797 -1.2963
   34MOL   H103 8089   6.059   6.805   2.841  0.4417 -0.4880  0.3428
   34MOL   H104 8090   6.074   6.870   2.600  0.3143 -0.2446 -0.4532
   34MOL   H105 8091   6.196   6.747   2.442  0.2988 -0.9768 -0.1035
   34MOL   H106 8092   6.063   6.649   2.479 -0.3342 -0.7928  1.8272
   34MOL   H107 8093   6.230   6.503   2.616 -2.2120  0.3663  0.2414
   34MOL   H108 8094   6.285   6.530   2.448 -2.5218 -1.6144  0.8538
   34MOL   H109 8095   6.352   6.607   2.581 -0.8908  0.5532  1.8691
   34MOL   C110 8096   6.272   6.865   2.668  0.1591  0.1996 -0.0842
   34MOL   C111 8097   6.288   6.971   2.776  0.6653  0.4320  0.2523
   34MOL   C112 8098   6.186   7.086   2.771 -0.1927 -1.1824  0.8176
   34MOL   C113 8099   6.215   7.191   2.662  0.9092 -0.1651  0.4738
   34MOL   H114 8100   6.299   6.914   2.575  1.6887 -1.1047 -0.3394
   34MOL   H115 8101   6.342   6.791   2.707  1.2004  0.5120 -1.3539
   34MOL   H116 8102   6.253   6.922   2.867  0.2724 -0.7518 -0.5229
   34MOL   H117 8103   6.184   7.130   2.870 -0.6041 -0.7070  0.5980
   34MOL   H118 8104   6.084   7.047   2.767 -1.2318  1.6470 -1.8617
   34MOL   H119 8105   6.198   7.150   2.562 -0.7123  1.6440 -0.0271
   34MOL   H120 8106   6.149   7.277   2.664 -0.3302 -1.0663 -0.5813
   34MOL   H121 8107   6.318   7.226   2.663  1.0722 -0.6688  3.0677
   34MOL   C122 8108   6.437   7.008   2.792 -0.0060  0.6429  0.6226
   34MOL   C123 8109   6.483   7.070   2.930  0.8308  0.2311 -0.4846
   34MOL   C124 8110   6.516   7.220   2.900 -0.3038  0.6238 -0.1727
   34MOL   C125 8111   6.555   7.300   3.024  0.0056  0.3191 -1.0134
   34MOL   H126 8112   6.483   7.045   2.701  1.0053  2.3591  1.8203
   34MOL   H127 8113   6.485   6.910   2.785  2.2261  1.7550 -0.1714
   34MOL   H128 8114   6.393   7.078   2.991 -0.5447 -2.4987 -2.0340
   34MOL   H129 8115   6.434   7.257   2.838 -0.4365 -0.6116 -0.7538
   34MOL   H130 8116   6.601   7.208   2.832  0.3484  1.1425  0.5431
   34MOL   H131 8117   6.643   7.263   3.076 -0.5579  0.9810  0.4229
   34MOL   H132 8118   6.548   7.408   3.009 -2.3672  0.2943 -0.2724
   34MOL   H133 8119   6.474   7.295   3.097  1.0515  1.8642  0.2774
   34MOL   C134 8120   6.595   6.988   2.984  0.3437  0.0725 -0.1117
   34MOL   C135 8121   6.546   6.865   3.076 -0.0194 -0.6750 -0.1356
   34MOL   C136 8122   6.532   6.903   3.226  0.3440 -0.0667  0.7961
   34MOL   C137 8123   6.423   6.996   3.254 -0.1428 -0.8670  0.7037
   34MOL   H138 8124   6.662   7.049   3.045  1.4561  0.4110 -1.6317
   34MOL   H139 8125   6.650   6.950   2.897 -1.8626 -1.6201 -0.8093
   34MOL   H140 8126   6.448   6.822   3.053 -0.3901 -0.1840  0.5224
   34MOL   H141 8127   6.628   6.939   3.263  1.2535 -1.1385 -0.4888
   34MOL   H142 8128   6.523   6.805   3.272 -0.7931 -0.4331 -0.1832
   34MOL   H143 8129   6.389   6.985   3.357  0.6648 -1.5279  0.9069
   34MOL   H144 8130   6.465   7.097   3.250  1.3626 -1.5211 -0.9161
   34MOL   H145 8131   6.335   6.980   3.192  0.1153 -0.5340  0.2453
   34MOL   C146 8132   6.652   6.752   3.072  0.4516 -0.2315  0.6716
   34MOL   C147 8133   6.593   6.610   3.027 -0.3793  0.2331 -1.0741
   34MOL   C148 8134   6.525   6.529   3.136  0.6694  0.1665 -0.0508
   34MOL   C149 8135   6.612   6.498   3.258  0.2816 -0.3328 -0.5326
   34MOL   H150 8136   6.704   6.735   3.167 -1.6439 -1.4673  1.6330
   34MOL   H151 8137   6.732   6.776   3.002  1.3407  0.7082  1.9720
   34MOL   H152 8138   6.509   6.636   2.962 -1.4683 -1.6386 -0.4922
   34MOL   H153 8139   6.475   6.446   3.087 -0.6561  1.4810 -0.9732
   34MOL   H154 8140   6.437   6.582   3.173 -1.6842 -3.6909  0.0730
   34MOL   H155 8141   6.699   6.436   3.239 -0.9017 -1.9147 -0.8399
   34MOL   H156 8142   6.664   6.588   3.292 -2.5939  2.2664 -2.7164
   34MOL   H157 8143   6.558   6.455   3.342  1.0023 -0.1081  0.0579
   34MOL   C158 8144   6.701   6.523   2.954  0.3195 -0.0889  0.2372
   34MOL   C159 8145   6.723   6.564   2.806  0.0571  0.1162  1.1160
   34MOL   C160 8146   6.610   6.492   2.733 -0.0331  0.0180  0.5787
   34MOL   C161 8147   6.612   6.501   2.583  0.1664  0.4923  0.3594
   34MOL   H162 8148   6.674   6.418   2.951  0.7837 -0.1930 -0.5626
   34MOL   H163 8149   6.797   6.528   3.005  1.3897  1.4763 -1.8453
   34MOL   H164 8150   6.704   6.671   2.803  1.0726  0.2536 -1.5619
   34MOL   H165 8151   6.517   6.536   2.771 -0.9797 -1.2212 -0.2961
   34MOL   H166 8152   6.592   6.388   2.757  1.6479 -0.0014  1.9102
   34MOL   H167 8153   6.516   6.466   2.545 -0.2566  0.2668  1.6074
   34MOL   H168 8154   6.625   6.604   2.553 -1.5404  0.3879 -0.7895
   34MOL   H169 8155   6.700   6.452   2.541  0.0960  1.2834 -0.7297
   34MOL   C170 8156   6.872   6.529   2.765  0.0182 -0.5793  0.1195
   34MOL   C171 8157   6.979   6.625   2.827  0.3322 -0.2756  0.2556
   34MOL   C172 8158   6.963   6.763   2.775  0.0564 -0.9237 -0.0469
   34MOL   C173 8159   6.963   6.781   2.622 -0.4225 -0.3805 -0.1119
   34MOL   H174 8160   6.881   6.526   2.656  2.0026  3.2907  0.1012
   34MOL   H175 8161   6.893   6.425   2.790 -1.9052 -1.1579 -0.5882
   34MOL   H176 8162   6.969   6.636   2.935  0.0007 -0.7695  0.2783
   34MOL   H177 8163   7.054   6.808   2.815  0.2083 -0.8781 -0.4436
   34MOL   H178 8164   6.875   6.810   2.819  0.0854  0.6140 -1.5888
   34MOL   H179 8165   6.863   6.757   2.585 -1.0872  0.7919  0.8748
   34MOL   H180 8166   6.978   6.885   2.593  1.4973 -0.6563 -0.1904
   34MOL   H181 8167   7.039   6.717   2.578  1.2137  0.4715  1.4028
   34MOL   C182 8168   7.121   6.574   2.820  0.4280  0.0482 -0.9411
   34MOL   C183 8169   7.166   6.440   2.892  0.0549 -0.7124 -0.3861
   34MOL   C184 8170   7.131   6.427   3.041  0.2339 -0.3837 -0.3792
   34MOL   C185 8171   7.198   6.534   3.133 -0.7132 -0.0734 -0.7068
   34MOL   H186 8172   7.185   6.656   2.854  0.5006 -1.1293  1.9001
   34MOL   H187 8173   7.137   6.565   2.713  1.1920 -0.9538 -0.7572
   34MOL   H188 8174   7.113   6.360   2.840 -2.6175  0.6524  0.1389
   34MOL   H189 8175   7.150   6.328   3.083 -1.7164 -0.6057  0.0305
   34MOL   H190 8176   7.025   6.438   3.059 -0.0677 -1.5027 -1.3863
   34MOL   H191 8177   7.176   6.636   3.101 -0.7242 -0.3403 -1.5719
   34MOL   H192 8178   7.170   6.525   3.238 -0.1125 -1.0544 -0.6199
   34MOL   H193 8179   7.306   6.526   3.131 -0.6921  0.2771 -1.1179
   34MOL   C194 8180   7.312   6.403   2.863 -1.0910 -0.2740  1.0481
   34MOL   C195 8181   7.384   6.288   2.932  0.8836  0.0576 -0.2126
   34MOL   C196 8182   7.541   6.313   2.911  0.2959 -0.8262  0.2374
   34MOL   C197 8183   7.594   6.332   2.771 -0.6850  0.5137 -0.9943
   34MOL   H198 8184   7.368   6.490   2.897  0.4473 -1.5055  1.7026
   34MOL   H199 8185   7.312   6.400   2.754  0.2629 -1.2136  1.0658
   34MOL   H200 8186   7.368   6.294   3.040  2.1364  1.3825 -0.0820
   34MOL   H201 8187   7.600   6.236   2.961  1.7131 -0.1495 -0.3429
   34MOL   H202 8188   7.558   6.400   2.975  0.0180 -0.0421 -0.7284
   34MOL   H203 8189   7.548   6.421   2.728 -1.2882  1.0975  0.8059
   34MOL   H204 8190   7.701   6.349   2.770 -0.4684 -0.7551 -0.5927
   34MOL   H205 8191   7.567   6.246   2.709  2.9863 -0.5318 -1.2294
   34MOL   C206 8192   7.330   6.148   2.889  0.5611 -0.1058 -0.1635
   34MOL   C207 8193   7.348   6.027   2.989 -0.1238 -0.4241 -0.1406
   34MOL   C208 8194   7.326   5.896   2.911 -0.0595 -0.0119 -0.0102
   34MOL   C209 8195   7.455   5.838   2.849 -0.7901  0.4625 -0.2957
   34MOL   H210 8196   7.367   6.116   2.792  0.1193 -1.2264  0.0319
   34MOL   H211 8197   7.224   6.163   2.869  0.5313  0.0908  0.1311
   34MOL   H212 8198   7.450   6.041   3.025  0.1139 -0.4353 -0.8063
   34MOL   H213 8199   7.244   5.894   2.840 -0.2810  0.4941  0.2311
   34MOL   H214 8200   7.287   5.827   2.986 -2.3005  0.6400 -0.5569
   34MOL   H215 8201   7.458   5.734   2.816  0.1792  0.0421  1.0558
   34MOL   H216 8202   7.492   5.900   2.767 -0.6689  2.3583  1.1487
   34MOL   H217 8203   7.535   5.857   2.921 -2.4623  1.3211  1.3902
   34MOL   C218 8204   7.249   6.033   3.109  0.6693  0.4228 -0.9180
   34MOL   C219 8205   7.275   5.936   3.233  0.3503  0.1209 -0.7634
   34MOL   C220 8206   7.153   5.899   3.310  0.1502 -0.4677 -1.2065
   34MOL   C221 8207   7.070   5.785   3.237  0.2151 -0.2877  0.1806
   34MOL   H222 8208   7.147   6.010   3.078  0.5891  0.6858 -0.8523
   34MOL   H223 8209   7.224   6.137   3.132 -0.4328 -0.1012  0.3893
   34MOL   H224 8210   7.328   5.848   3.195 -0.4504 -1.1801  1.0790
   34MOL   H225 8211   7.093   5.989   3.326  0.7711 -0.4586  1.1924
   34MOL   H226 8212   7.162   5.860   3.412 -2.5481 -1.9631 -1.4914
   34MOL   H227 8213   7.039   5.826   3.140  0.6779 -0.5745 -0.0912
   34MOL   H228 8214   7.130   5.697   3.218 -0.4611 -1.0601  1.5585
   34MOL   H229 8215   6.982   5.758   3.296  1.7094 -3.1032  1.2161
   34MOL   C230 8216   7.381   6.002   3.326  0.3692 -0.4899 -0.1213
   34MOL   C231 8217   7.454   5.919   3.423  0.8008  0.4175 -1.1153
   34MOL   C232 8218   7.562   6.007   3.492 -0.6783  0.0766 -0.2451
   34MOL   C233 8219   7.684   5.926   3.546 -0.1466 -0.0866  0.2726
   34MOL   H234 8220   7.332   6.085   3.377  0.3466 -1.2728  1.1382
   34MOL   H235 8221   7.450   6.043   3.252  1.8311 -1.9497  0.4072
   34MOL   H236 8222   7.381   5.871   3.489  1.8926  0.2833  0.0266
   34MOL   H237 8223   7.507   6.071   3.561 -0.6812  0.1505 -0.3149
   34MOL   H238 8224   7.598   6.082   3.421 -0.9442  0.9684  0.5519
   34MOL   H239 8225   7.650   5.844   3.610 -0.3333 -1.0398 -1.0123
   34MOL   H240 8226   0.029   5.875   3.464  1.3561  0.1612  1.0270
   34MOL   H241 8227   0.053   5.990   3.592 -0.2880 -0.8462  1.6070
   34MOL   H242 8228   7.504   5.831   3.382  0.2505 -0.8442  0.8308
   35MOL     C1 8229   2.248   5.855   0.021  0.1061  0.7109 -0.4488
   35MOL     C2 8230   2.242   5.702   7.699 -0.4324 -0.3048 -0.6157
   35MOL     C3 8231   2.382   5.640   7.705 -0.1054 -0.0644  0.6530
   35MOL     C4 8232   2.472   5.673   7.583 -0.3610 -0.6366 -0.2179
   35MOL     H5 8233   2.144   5.884   0.015 -0.0063  0.0019 -2.6376
   35MOL     H6 8234   2.311   5.886   0.104 -1.1379  0.7756  0.4817
   35MOL     H7 8235   2.183   5.675   0.081  0.6337 -1.5439 -0.2615
   35MOL     H8 8236   2.369   5.532   7.705  1.4039 -0.2456 -0.1511
   35MOL     H9 8237   2.419   5.675   0.096  0.2572  2.2334 -0.2932
   35MOL    H10 8238   2.575   5.645   7.604 -0.0071  2.5541  2.7177
   35MOL    H11 8239   2.450   5.607   7.499  2.0322 -1.1828 -0.4351
   35MOL    H12 8240   2.456   5.773   7.544 -1.7115  0.6014  3.2956
   35MOL    H13 8241   2.277   5.903   7.633 -0.4859  0.6744 -0.6500
   35MOL    C14 8242   2.163   5.665   7.574  0.5177 -0.0112  0.7487
   35MOL    C15 8243   2.118   5.515   7.548  0.4969 -0.3570  0.3523
   35MOL    C16 8244   2.057   5.498   7.405  0.1385  0.2203  0.2675
   35MOL    C17 8245   2.160   5.478   7.293 -0.3208  0.1258  0.7058
   35MOL    H18 8246   2.222   5.698   7.489  0.2131 -0.9930  0.1498
   35MOL    H19 8247   2.081   5.733   7.553  1.5185  1.0358  0.2052
   35MOL    H20 8248   2.211   5.459   7.544  0.6900  0.0634 -2.3066
   35MOL    H21 8249   1.984   5.575   7.380 -0.5300  0.1255  1.8701
   35MOL    H22 8250   2.003   5.403   7.406 -0.6965  0.6872  0.2853
   35MOL    H23 8251   2.100   5.438   7.211  1.0200 -1.6539  0.5626
   35MOL    H24 8252   2.199   5.577   7.267 -2.3053  1.2707  1.9363
   35MOL    H25 8253   2.242   5.411   7.317 -0.5456 -0.2639  0.3952
   35MOL    C26 8254   2.020   5.471   7.662 -0.4577  0.4502 -0.2347
   35MOL    C27 8255   2.008   5.320   7.671  0.0179  0.1284  0.1306
   35MOL    C28 8256   1.866   5.279   7.700  0.2901 -0.3392 -0.6766
   35MOL    C29 8257   1.840   5.312   0.139 -0.4456 -0.1926  0.7530
   35MOL    H30 8258   1.930   5.522   7.628 -0.8799 -0.4858 -0.5318
   35MOL    H31 8259   2.051   5.513   0.052 -1.6221 -0.6287  0.6270
   35MOL    H32 8260   2.016   5.283   7.569  0.6996 -1.5920  0.7828
   35MOL    H33 8261   1.848   5.174   7.680  1.9930 -0.8007  0.1234
   35MOL    H34 8262   1.797   5.343   7.645  0.5863  2.3687  1.9276
   35MOL    H35 8263   1.896   5.251   0.210  0.0157  0.0575  0.6101
   35MOL    H36 8264   1.860   5.411   0.180  0.0890 -0.4495  1.1239
   35MOL    H37 8265   1.732   5.301   0.151 -0.3541  1.1677  3.2111
   35MOL    C38 8266   2.129   5.261   0.040 -0.3190  0.0228  0.4203
   35MOL    C39 8267   2.138   5.104   0.047  0.1884  0.7780  0.1947
   35MOL    C40 8268   2.253   5.060   0.135  0.3787  0.0266  0.4750
   35MOL    C41 8269   2.235   5.105   0.281  0.0641 -0.8811  1.2409
   35MOL    H42 8270   2.115   5.304   0.139 -2.1647  0.2868  0.0523
   35MOL    H43 8271   2.221   5.292   7.697  0.5565 -0.6355  1.6013
   35MOL    H44 8272   2.046   5.066   0.091  1.2144 -1.7645  0.2371
   35MOL    H45 8273   2.350   5.084   0.092  0.4424  0.0188  0.6141
   35MOL    H46 8274   2.265   4.953   0.146 -0.7911 -0.3179 -1.3493
   35MOL    H47 8275   2.258   5.209   0.301  1.4048 -0.2210 -3.1111
   35MOL    H48 8276   2.136   5.080   0.320 -0.2702 -1.3954  0.0821
   35MOL    H49 8277   2.310   5.066   0.350  1.2498 -0.7237  0.0771
   35MOL    C50 8278   2.162   5.038   7.612 -0.7806  0.2881  0.4336
   35MOL    C51 8279   2.044   4.972   7.543 -1.0797 -0.2927 -0.9120
   35MOL    C52 8280   2.000   4.855   7.640 -0.6026  0.7179  0.0361
   35MOL    C53 8281   1.852   4.862   7.679 -0.1025  0.0169 -0.3991
   35MOL    H54 8282   2.231   4.955   7.619 -0.4064  0.2914 -2.5236
   35MOL    H55 8283   2.204   5.120   7.553 -1.5898 -0.4202 -1.1444
   35MOL    H56 8284   1.975   5.056   7.532 -0.5648  0.2997  0.2911
   35MOL    H57 8285   2.061   4.846   0.024 -2.2519  2.0764  1.3292
   35MOL    H58 8286   2.002   4.764   7.580 -1.1029  0.3536  0.5648
   35MOL    H59 8287   1.804   4.771   0.011 -1.0447  0.6929  0.0492
   35MOL    H60 8288   1.836   4.943   0.043  1.6473  1.2976 -1.4416
   35MOL    H61 8289   1.797   4.886   7.587  0.5186 -0.5963 -0.9373
   35MOL    C62 8290   2.071   4.912   7.397  0.0071 -0.2198 -0.2910
   35MOL    C63 8291   2.108   5.017   7.289  1.3796 -0.0921  0.3214
   35MOL    C64 8292   1.991   5.114   7.254  0.0833  0.5054  0.4992
   35MOL    C65 8293   1.852   5.041   7.245  0.3542  0.0118  0.4575
   35MOL    H66 8294   1.989   4.848   7.362 -2.2150  1.7488  1.1538
   35MOL    H67 8295   2.161   4.850   7.400  0.6682  0.7019 -0.8560
   35MOL    H68 8296   2.184   5.085   7.329  0.4211  1.9387 -1.2072
   35MOL    H69 8297   2.022   5.171   7.167 -1.0828  1.1599  0.5054
   35MOL    H70 8298   1.975   5.186   7.334  0.0407  0.3092  0.6663
   35MOL    H71 8299   1.820   5.003   7.342  0.5543 -0.9302  0.1646
   35MOL    H72 8300   1.771   5.105   7.211  1.2266  0.8793 -0.0399
   35MOL    H73 8301   1.858   4.952   7.182 -0.2095 -1.6461  2.6926
   35MOL    C74 8302   2.168   4.935   7.162 -0.1857 -0.0656  0.5522
   35MOL    C75 8303   2.247   5.020   7.053  0.2030  0.7348 -0.3123
   35MOL    C76 8304   2.256   4.941   6.918  0.5839  0.2482 -0.0697
   35MOL    C77 8305   2.366   4.832   6.907 -0.3295 -0.0137  0.1127
   35MOL    H78 8306   2.093   4.869   7.118 -1.5475  0.8497  1.4418
   35MOL    H79 8307   2.231   4.853   7.195 -2.4168 -2.8062 -1.7520
   35MOL    H80 8308   2.188   5.108   7.027 -0.0797  0.6727  0.1080
   35MOL    H81 8309   2.253   5.007   6.832 -1.4753 -0.1483 -0.3290
   35MOL    H82 8310   2.158   4.895   6.911 -0.2406  2.0044 -0.3676
   35MOL    H83 8311   2.460   4.882   6.882 -1.2704  1.6342 -0.2295
   35MOL    H84 8312   2.392   4.785   7.002 -0.5423 -0.4571 -0.0473
   35MOL    H85 8313   2.340   4.750   6.840 -1.5743 -1.0226  1.8122
   35MOL    C86 8314   2.385   5.067   7.105 -0.3095 -0.5780  0.3790
   35MOL    C87 8315   2.401   5.217   7.142 -0.3413  0.7625  0.4387
   35MOL    C88 8316   2.359   5.316   7.031 -0.3748  0.2579 -0.2339
   35MOL    C89 8317   2.433   5.285   6.897 -0.0256  0.4361  0.6688
   35MOL    H90 8318   2.452   5.039   7.024 -0.0095  0.2033  0.3513
   35MOL    H91 8319   2.413   4.998   7.185 -0.1413  1.4559  2.1018
   35MOL    H92 8320   2.338   5.219   7.231 -0.7494  0.3584  0.1599
   35MOL    H93 8321   2.380   5.419   7.059 -0.5223 -0.4094  2.4526
   35MOL    H94 8322   2.251   5.308   7.023 -0.5394 -0.1959  2.2532
   35MOL    H95 8323   2.539   5.309   6.893  0.9766 -3.6032  0.9498
   35MOL    H96 8324   2.415   5.182   6.865 -2.4541  0.4709  1.7848
   35MOL    H97 8325   2.385   5.346   6.821  0.3649  0.6460  0.5903
   35MOL    C98 8326   2.543   5.256   7.198 -0.0294 -0.1704 -0.1364
   35MOL    C99 8327   2.606   5.167   7.297  0.3077  0.1050 -0.4092
   35MOL   C100 8328   2.521   5.128   7.422  0.3700  0.3698  0.5093
   35MOL   C101 8329   2.479   5.253   7.501 -0.0710  0.1068 -0.3026
   35MOL   H102 8330   2.522   5.350   7.250  0.6236 -0.0330 -0.1271
   35MOL   H103 8331   2.614   5.294   7.125  0.7394 -1.9067 -0.3078
   35MOL   H104 8332   2.609   5.072   7.243 -0.4354  0.9989 -2.0645
   35MOL   H105 8333   2.572   5.052   7.481 -1.5332  0.0126  1.7356
   35MOL   H106 8334   2.428   5.079   7.394  0.2689  0.7813  0.1138
   35MOL   H107 8335   2.568   5.312   7.521  1.7016 -2.3078 -0.8781
   35MOL   H108 8336   2.408   5.305   7.436 -1.4937 -3.7957 -2.0188
   35MOL   H109 8337   2.430   5.241   7.597 -0.2026  2.5813 -0.0210
   35MOL   C110 8338   2.742   5.213   7.340  0.8138 -0.1492  0.2201
   35MOL   C111 8339   2.856   5.196   7.234 -0.1229 -0.4764  0.0096
   35MOL   C112 8340   2.925   5.061   7.245  0.5922 -1.2266  0.5886
   35MOL   C113 8341   2.827   4.945   7.227 -0.4565 -1.0559  0.8043
   35MOL   H114 8342   2.776   5.147   7.420  0.5876  0.2366  0.6381
   35MOL   H115 8343   2.731   5.307   7.395  0.4569  1.1671 -2.0300
   35MOL   H116 8344   2.810   5.211   7.136 -1.1639  2.0351  0.8463
   35MOL   H117 8345   2.972   5.055   7.343  1.7559  2.3717  0.3190
   35MOL   H118 8346   3.001   5.050   7.168  0.0703  0.5717 -0.2095
   35MOL   H119 8347   2.777   4.966   7.132 -1.1806  1.1457  1.6534
   35MOL   H120 8348   2.880   4.849   7.225  1.0303 -0.3017  2.4780
   35MOL   H121 8349   2.753   4.949   7.307 -1.1645  0.3368  0.0924
   35MOL   C122 8350   2.953   5.311   7.251  0.3043  0.7002 -0.0389
   35MOL   C123 8351   2.910   5.452   7.206  0.5376  0.6428 -0.0374
   35MOL   C124 8352   2.881   5.465   7.056  0.0351 -0.0345 -0.5943
   35MOL   C125 8353   2.804   5.593   7.018  0.4665  0.2743  0.1722
   35MOL   H126 8354   3.040   5.288   7.189  1.6556  3.9841  0.5169
   35MOL   H127 8355   2.999   5.308   7.350 -0.8371  0.7279  0.4975
   35MOL   H128 8356   2.813   5.471   7.253 -0.9656 -0.2805 -2.6503
   35MOL   H129 8357   2.827   5.380   7.015 -0.2772  0.3199 -0.9192
   35MOL   H130 8358   2.975   5.464   7.001 -0.3002 -0.9562 -1.1648
   35MOL   H131 8359   2.704   5.597   7.061  0.3394 -2.8960  0.2695
   35MOL   H132 8360   2.860   5.679   7.055  0.1064 -0.9683  3.8131
   35MOL   H133 8361   2.792   5.592   6.909 -2.8757 -0.6872  0.5080
   35MOL   C134 8362   3.016   5.558   7.244  0.1579 -0.3356  0.2363
   35MOL   C135 8363   3.042   5.587   7.399 -0.5975 -0.5435  0.2366
   35MOL   C136 8364   2.916   5.635   7.474 -0.3404 -0.1976  0.8315
   35MOL   C137 8365   2.857   5.763   7.417 -0.5144  0.0181 -0.3464
   35MOL   H138 8366   2.990   5.656   7.206 -2.4430 -1.7156 -1.6603
   35MOL   H139 8367   3.113   5.521   7.209 -0.2110 -1.1897  0.0999
   35MOL   H140 8368   3.072   5.493   7.445 -0.4177 -0.1036  1.0338
   35MOL   H141 8369   2.937   5.659   7.578 -1.6086  1.8677  0.6420
   35MOL   H142 8370   2.830   5.568   7.462 -1.0428  0.6927  0.8792
   35MOL   H143 8371   2.792   5.749   7.331  0.9975  0.9353 -1.6751
   35MOL   H144 8372   2.785   5.794   7.493  1.9795  2.4335  1.1243
   35MOL   H145 8373   2.925   5.847   7.399 -0.3426  0.5154  2.3437
   35MOL   C146 8374   3.162   5.683   7.426 -0.7145 -0.0643  0.5125
   35MOL   C147 8375   3.302   5.627   7.406 -0.2140 -0.2302  0.1722
   35MOL   C148 8376   3.346   5.555   7.534 -0.1501 -0.4217 -0.8246
   35MOL   C149 8377   3.450   5.451   7.502  0.2790 -0.0807  0.4059
   35MOL   H150 8378   3.165   5.704   7.533 -0.3788 -1.9556  0.8998
   35MOL   H151 8379   3.144   5.779   7.379  0.1138 -0.6333 -1.0251
   35MOL   H152 8380   3.294   5.554   7.326 -1.9445 -0.4727  0.5585
   35MOL   H153 8381   3.257   5.509   7.578  0.9797 -1.8937 -0.0476
   35MOL   H154 8382   3.370   5.624   7.614 -1.8119 -1.2343  0.3912
   35MOL   H155 8383   3.407   5.384   7.427  1.0234 -3.7003  3.0979
   35MOL   H156 8384   3.536   5.502   7.459 -0.9285  1.5693 -0.1415
   35MOL   H157 8385   3.477   5.391   7.588  0.5664  1.1102  1.1594
   35MOL   C158 8386   3.393   5.736   7.363  0.3395 -0.3394  0.3576
   35MOL   C159 8387   3.415   5.768   7.215 -0.3441  0.4282  0.4896
   35MOL   C160 8388   3.283   5.780   7.129 -0.3788  0.7290  0.0844
   35MOL   C161 8389   3.315   5.851   6.996  0.1221  0.0884 -0.0103
   35MOL   H162 8390   3.485   5.713   7.417  1.0082  0.7096 -0.3204
   35MOL   H163 8391   3.362   5.831   7.408  0.1504  0.0223 -0.5258
   35MOL   H164 8392   3.466   5.865   7.209 -0.1535  0.2433 -1.5347
   35MOL   H165 8393   3.205   5.829   7.188  0.3394  1.7632  0.1952
   35MOL   H166 8394   3.238   5.685   7.100  1.6521 -0.0675 -0.4979
   35MOL   H167 8395   3.348   5.953   7.016  1.1226  0.0598 -1.3965
   35MOL   H168 8396   3.392   5.801   6.937 -0.4202 -1.2414  0.3943
   35MOL   H169 8397   3.219   5.858   6.945  0.2226  0.8144 -0.1070
   35MOL   C170 8398   3.513   5.659   7.156  0.3457  1.3516 -0.1000
   35MOL   C171 8399   3.660   5.713   7.150 -0.0642 -0.1907  0.2748
   35MOL   C172 8400   3.680   5.814   7.039  0.3963 -0.2470 -0.2594
   35MOL   C173 8401   3.796   5.909   7.058 -0.5479 -0.2189 -0.0536
   35MOL   H174 8402   3.477   5.615   7.063  1.7383 -1.3378  0.5818
   35MOL   H175 8403   3.505   5.569   7.218 -1.5318  1.0762 -0.7093
   35MOL   H176 8404   3.682   5.770   7.240  0.4318 -1.4310  0.9516
   35MOL   H177 8405   3.596   5.883   7.030  0.7039  0.0806 -0.6520
   35MOL   H178 8406   3.690   5.760   6.945  2.7935  0.8227 -0.6793
   35MOL   H179 8407   3.884   5.868   7.008  0.2965  1.0592  0.3690
   35MOL   H180 8408   3.770   6.008   7.020 -0.6318  0.1914  1.0373
   35MOL   H181 8409   3.822   5.928   7.162 -0.0242  0.7815 -0.3613
   35MOL   C182 8410   3.768   5.598   7.149  0.7421  0.2319 -0.7398
   35MOL   C183 8411   3.771   5.502   7.270  0.6553 -0.3031  0.3137
   35MOL   C184 8412   3.837   5.571   7.394  0.0880  0.6023 -0.0914
   35MOL   C185 8413   3.986   5.600   7.379 -0.1562 -0.5099 -0.2124
   35MOL   H186 8414   3.864   5.647   7.141  0.1291  1.5825 -0.0683
   35MOL   H187 8415   3.766   5.552   7.050  0.5289 -0.2804 -0.4965
   35MOL   H188 8416   3.671   5.463   7.287  0.7830 -1.0635 -0.6402
   35MOL   H189 8417   3.821   5.501   7.476 -2.2578 -0.7509 -1.6282
   35MOL   H190 8418   3.781   5.661   7.419  0.8418  0.6287  1.5388
   35MOL   H191 8419   4.006   5.686   7.315 -0.7285  1.0315  1.5978
   35MOL   H192 8420   4.021   5.637   7.476 -1.5256 -0.1996  0.1764
   35MOL   H193 8421   4.047   5.513   7.354 -1.2645 -1.2982 -0.2078
   35MOL   C194 8422   3.852   5.378   7.221 -0.9458  0.9832  0.5282
   35MOL   C195 8423   3.890   5.272   7.326  0.1019  1.1599 -1.0940
   35MOL   C196 8424   3.995   5.177   7.267 -0.3475 -0.4035 -0.2404
   35MOL   C197 8425   4.142   5.214   7.309 -0.3344  0.5346 -0.4042
   35MOL   H198 8426   3.936   5.424   7.169 -1.3866  2.7447  1.3480
   35MOL   H199 8427   3.790   5.327   7.148 -1.6019 -0.2434  1.9049
   35MOL   H200 8428   3.940   5.330   7.404  2.6153 -1.8857 -0.3337
   35MOL   H201 8429   4.002   5.170   7.159  0.5484 -0.4890 -0.1846
   35MOL   H202 8430   3.975   5.079   7.311  0.7623 -1.7199 -2.5897
   35MOL   H203 8431   4.155   5.193   7.415 -0.2977 -0.5022 -0.6072
   35MOL   H204 8432   4.210   5.159   7.244  1.4367  1.9387  0.2464
   35MOL   H205 8433   4.167   5.317   7.285 -2.3910  1.2809  0.5426
   35MOL   C206 8434   3.762   5.206   7.398 -0.5207 -0.1710  0.5380
   35MOL   C207 8435   3.813   5.141   7.532  0.2354 -0.1994 -0.2130
   35MOL   C208 8436   3.739   5.012   7.563  0.4439  0.0037  0.6216
   35MOL   C209 8437   3.758   4.904   7.461 -0.5307 -0.0585 -0.2809
   35MOL   H210 8438   3.710   5.139   7.329  1.4686 -0.9606 -0.2305
   35MOL   H211 8439   3.696   5.290   7.420 -1.6076 -0.3630 -1.8944
   35MOL   H212 8440   3.915   5.107   7.516  0.8375  1.3245  0.3023
   35MOL   H213 8441   3.635   5.025   7.593 -0.2376  0.1753 -1.6873
   35MOL   H214 8442   3.782   4.981   7.658 -1.8721  0.5354  1.8836
   35MOL   H215 8443   3.747   4.924   7.354 -0.6351  0.3575 -0.1943
   35MOL   H216 8444   3.856   4.857   7.469 -0.8700 -0.3791  2.5029
   35MOL   H217 8445   3.680   4.830   7.479 -1.5448  1.2443  0.7335
   35MOL   C218 8446   3.796   5.244   7.647  0.1331  0.7159 -0.0967
   35MOL   C219 8447   3.861   5.217   0.073  0.0363  0.0112 -0.3352
   35MOL   C220 8448   3.814   5.324   0.172 -0.7698  0.2579 -0.6503
   35MOL   C221 8449   3.871   5.290   0.312 -0.0943  0.8167  0.0497
   35MOL   H222 8450   3.688   5.257   7.650  0.0562  0.8917 -2.7390
   35MOL   H223 8451   3.834   5.340   7.612 -0.0129  0.2916 -1.4413
   35MOL   H224 8452   3.821   5.122   0.109 -1.0698  0.3064 -0.7937
   35MOL   H225 8453   3.706   5.324   0.180 -0.6458 -0.5346  1.5388
   35MOL   H226 8454   3.850   5.425   0.154 -1.3041  1.2136  3.1353
   35MOL   H227 8455   3.823   5.353   0.387 -1.4803  0.9013 -0.9008
   35MOL   H228 8456   3.846   5.187   0.337 -2.2348  1.3038  0.0085
   35MOL   H229 8457   3.979   5.300   0.303 -0.2696  1.5887 -1.3406
   35MOL   C230 8458   4.013   5.205   0.057 -0.1868 -0.2893 -0.6567
   35MOL   C231 8459   4.080   5.335   7.700  0.2541 -0.1081 -0.2843
   35MOL   C232 8460   4.238   5.327   7.686 -0.0762 -0.2852  0.1057
   35MOL   C233 8461   4.314   5.454   7.635  0.0317  0.0393 -0.1171
   35MOL   H234 8462   4.025   5.112   0.003 -0.7710 -1.5248  1.2734
   35MOL   H235 8463   4.059   5.178   0.152  0.9367  0.4777 -0.9794
   35MOL   H236 8464   4.050   5.349   7.596  0.1965 -2.2677 -0.5918
   35MOL   H237 8465   4.261   5.247   7.616  1.7713  0.6308 -0.3518
   35MOL   H238 8466   4.277   5.290   0.075 -1.2889  0.2570  0.8359
   35MOL   H239 8467   4.336   5.525   0.009 -3.8869 -0.1323  1.2383
   35MOL   H240 8468   4.414   5.426   7.603  0.0940 -1.7063  1.5293
   35MOL   H241 8469   4.260   5.515   7.563 -0.6233 -1.2546 -0.7500
   35MOL   H242 8470   4.061   5.423   0.056 -0.8893 -0.9688  0.6136
   36MOL     C1 8471   2.046   4.908   4.332  0.2366  0.4797 -0.3575
   36MOL     C2 8472   1.961   4.791   4.261  0.1091 -0.2312  0.6960
   36MOL     C3 8473   1.912   4.821   4.114 -0.3776  0.6599  0.0762
   36MOL     C4 8474   2.027   4.817   4.020 -0.0531 -0.1319 -0.4225
   36MOL     H5 8475   2.133   4.945   4.278 -0.7396  2.5754 -0.5578
   36MOL     H6 8476   1.981   4.996   4.335 -0.7042 -0.2749  3.2492
   36MOL     H7 8477   2.034   4.711   4.258  1.9822  1.3947  1.5613
   36MOL     H8 8478   1.868   4.920   4.104 -1.1386  0.1514 -1.6953
   36MOL     H9 8479   1.845   4.735   4.103 -0.5009  0.7765 -0.0784
   36MOL    H10 8480   2.072   4.916   4.031  0.8933 -0.2226 -3.1089
   36MOL    H11 8481   2.102   4.743   4.049 -2.7153 -2.7352  0.0573
   36MOL    H12 8482   2.009   4.808   3.913 -0.6389 -0.3764 -0.3028
   36MOL    H13 8483   2.077   4.887   4.434 -4.2134 -0.5962  0.8916
   36MOL    C14 8484   1.846   4.742   4.361  0.0429 -0.1765 -0.5400
   36MOL    C15 8485   1.775   4.610   4.337  0.3200  0.5573  0.3891
   36MOL    C16 8486   1.654   4.589   4.435 -0.1312  0.2169  0.1046
   36MOL    C17 8487   1.518   4.664   4.402  0.5138  0.5576  0.3896
   36MOL    H18 8488   1.778   4.828   4.364 -1.9032 -1.7094  1.4389
   36MOL    H19 8489   1.882   4.740   4.464 -1.1578 -0.1253 -0.1008
   36MOL    H20 8490   1.734   4.615   4.236  1.0390  0.9595  0.1137
   36MOL    H21 8491   1.681   4.623   4.535 -1.6755  0.2231  0.5208
   36MOL    H22 8492   1.619   4.485   4.439 -0.4084  0.2187 -1.9277
   36MOL    H23 8493   1.531   4.763   4.445  2.6088  1.4098 -2.0459
   36MOL    H24 8494   1.479   4.675   4.301 -1.0725  2.9272  1.2188
   36MOL    H25 8495   1.437   4.613   4.455  0.7445  1.7881  1.9669
   36MOL    C26 8496   1.876   4.495   4.349 -0.0458 -0.0347  0.5887
   36MOL    C27 8497   1.853   4.373   4.258 -0.5310  0.3891  0.4880
   36MOL    C28 8498   1.877   4.408   4.108  0.0428 -0.1636  0.4463
   36MOL    C29 8499   1.847   4.303   3.992 -1.0241 -0.6052  0.3138
   36MOL    H30 8500   1.876   4.470   4.455 -1.9090 -3.2186 -0.0851
   36MOL    H31 8501   1.977   4.529   4.326 -0.4723  1.1946  0.4672
   36MOL    H32 8502   1.936   4.305   4.278 -1.2400 -1.0688 -1.3831
   36MOL    H33 8503   1.984   4.426   4.099  0.0934 -1.0610 -0.9013
   36MOL    H34 8504   1.833   4.499   4.067  1.9930 -0.2056 -1.8880
   36MOL    H35 8505   1.739   4.290   3.988 -1.5547  2.4066  3.0331
   36MOL    H36 8506   1.886   4.345   3.899 -0.9022 -0.4280  0.4437
   36MOL    H37 8507   1.891   4.204   4.011  0.0701 -0.2638 -0.3911
   36MOL    C38 8508   1.737   4.280   4.291  0.5329 -0.0113 -0.0620
   36MOL    C39 8509   1.724   4.224   4.438 -0.5939 -0.7236  0.2136
   36MOL    C40 8510   1.845   4.140   4.492 -0.4075  0.8196  0.1051
   36MOL    C41 8511   1.868   4.012   4.416 -0.4308  0.7699  0.4329
   36MOL    H42 8512   1.743   4.191   4.229 -2.5685  1.0087 -1.9234
   36MOL    H43 8513   1.643   4.331   4.272  0.6744  0.1910 -0.2272
   36MOL    H44 8514   1.750   4.311   4.499  2.8246 -0.9233 -0.8383
   36MOL    H45 8515   1.827   4.118   4.597 -0.8821 -3.6264 -0.7828
   36MOL    H46 8516   1.939   4.194   4.495 -0.7048  1.2800  1.4645
   36MOL    H47 8517   1.892   4.022   4.310 -2.8632  0.5330 -0.1556
   36MOL    H48 8518   1.941   3.956   4.475  0.2668 -0.2139 -1.3027
   36MOL    H49 8519   1.776   3.958   4.436 -0.0408 -0.5338 -1.1162
   36MOL    C50 8520   1.584   4.160   4.463  0.4460 -0.0049  0.7723
   36MOL    C51 8521   1.496   4.252   4.561  0.2924 -0.3958  0.2108
   36MOL    C52 8522   1.573   4.288   4.690  0.4107  0.0604 -0.2695
   36MOL    C53 8523   1.525   4.424   4.743  0.2546  0.1601  0.2031
   36MOL    H54 8524   1.597   4.065   4.515  0.3723 -0.5858 -0.2564
   36MOL    H55 8525   1.527   4.145   4.371  2.2246 -3.2855  0.1186
   36MOL    H56 8526   1.482   4.341   4.499  0.6238 -0.6897 -0.2898
   36MOL    H57 8527   1.681   4.298   4.677  0.2167  0.8381 -1.4517
   36MOL    H58 8528   1.565   4.213   4.768  2.3992  0.9539  0.8130
   36MOL    H59 8529   1.419   4.437   4.723  0.2745 -0.5779 -0.3959
   36MOL    H60 8530   1.532   4.426   4.852  1.5557 -2.2109  0.2042
   36MOL    H61 8531   1.576   4.516   4.714 -0.3262  0.1746 -0.8201
   36MOL    C62 8532   1.366   4.175   4.594  0.1556  0.1884  0.8689
   36MOL    C63 8533   1.268   4.164   4.476  0.6324  0.3585 -0.6492
   36MOL    C64 8534   1.196   4.298   4.440 -0.3094  0.4887  0.3406
   36MOL    C65 8535   1.124   4.392   4.546 -0.2747 -0.1907 -0.1929
   36MOL    H66 8536   1.323   4.215   4.686  1.4381 -0.4745  1.7673
   36MOL    H67 8537   1.392   4.078   4.637  0.4410  0.1580  0.6330
   36MOL    H68 8538   1.315   4.139   4.381  1.0714 -0.8606 -0.1123
   36MOL    H69 8539   1.137   4.287   4.349  0.0001  1.9732 -0.0506
   36MOL    H70 8540   1.279   4.362   4.408  0.8121 -0.4130  1.4164
   36MOL    H71 8541   1.195   4.428   4.621  0.9522 -1.8856 -0.5075
   36MOL    H72 8542   1.073   4.470   4.491  0.7974  0.0314 -0.8837
   36MOL    H73 8543   1.049   4.332   4.597  1.1350 -1.4040  0.5187
   36MOL    C74 8544   1.164   4.054   4.513 -0.1800 -0.4767  0.7017
   36MOL    C75 8545   1.212   3.909   4.467 -0.4918 -0.3861 -0.8709
   36MOL    C76 8546   1.225   3.893   4.312  0.1809  0.3407  0.1216
   36MOL    C77 8547   1.096   3.913   4.227 -0.1987  0.1213  0.2126
   36MOL    H78 8548   1.067   4.080   4.470  0.9686  0.3210 -1.4754
   36MOL    H79 8549   1.148   4.056   4.621 -1.1156 -2.4190  0.6179
   36MOL    H80 8550   1.311   3.883   4.504 -1.0720 -1.3282  0.0329
   36MOL    H81 8551   1.259   3.798   4.271 -0.6987 -0.0403  0.2874
   36MOL    H82 8552   1.298   3.958   4.263  2.3472 -1.4354  0.9128
   36MOL    H83 8553   1.015   3.862   4.279  0.7427 -0.4896  1.1091
   36MOL    H84 8554   1.077   4.020   4.224 -0.2879  0.0737 -0.8996
   36MOL    H85 8555   1.114   3.890   4.122 -2.6049  0.4607 -0.2947
   36MOL    C86 8556   1.116   3.801   4.525  0.3535  0.2309  0.1867
   36MOL    C87 8557   1.103   3.785   4.675  0.0658  0.3154  1.4317
   36MOL    C88 8558   1.239   3.775   4.748 -0.0188 -0.0654 -0.5141
   36MOL    C89 8559   1.309   3.644   4.707 -0.0805  0.8623  0.3737
   36MOL    H90 8560   1.145   3.700   4.496 -0.4002  0.0431  0.0734
   36MOL    H91 8561   1.014   3.799   4.485 -0.4344  0.4386  2.1414
   36MOL    H92 8562   1.059   3.878   4.711  1.4040  1.0217  1.2855
   36MOL    H93 8563   1.220   3.780   4.855  0.0501  2.6873 -0.5834
   36MOL    H94 8564   1.312   3.855   4.733  0.6197 -0.2695  1.3924
   36MOL    H95 8565   1.392   3.620   4.774 -0.1766  0.6827  0.4255
   36MOL    H96 8566   1.244   3.560   4.727  1.6658 -0.4107  0.8102
   36MOL    H97 8567   1.332   3.630   4.601 -0.4321  0.1838  0.3859
   36MOL    C98 8568   1.010   3.660   4.713  0.3096 -0.3337  0.2279
   36MOL    C99 8569   0.863   3.682   4.694 -0.3735  0.3587  0.2540
   36MOL   C100 8570   0.815   3.814   4.753  0.2782 -0.0561 -0.5662
   36MOL   C101 8571   0.847   3.826   4.904 -0.2632 -0.7097  0.2905
   36MOL   H102 8572   1.039   3.637   4.815  0.4850  1.1900  0.5327
   36MOL   H103 8573   1.033   3.575   4.649  0.2728  0.9694 -1.5769
   36MOL   H104 8574   0.848   3.699   4.588  0.7151 -0.5361 -0.0521
   36MOL   H105 8575   0.707   3.816   4.738  0.3862  2.1057 -1.2459
   36MOL   H106 8576   0.859   3.900   4.702  1.7118 -0.2344  0.3374
   36MOL   H107 8577   0.791   3.754   4.965 -2.5316  1.4804  0.8808
   36MOL   H108 8578   0.955   3.812   4.915  0.1396  0.8123 -1.6224
   36MOL   H109 8579   0.814   3.926   4.930  0.3173 -0.3042 -0.5226
   36MOL   C110 8580   0.777   3.567   4.742  1.2797  0.4690  0.0911
   36MOL   C111 8581   0.637   3.553   4.668 -0.4555  0.5466  0.0792
   36MOL   C112 8582   0.564   3.447   4.753  0.3289  0.6017  0.4645
   36MOL   C113 8583   0.414   3.422   4.714 -0.0250  0.3666  0.3887
   36MOL   H114 8584   0.754   3.586   4.846  1.2894  1.2619 -0.0489
   36MOL   H115 8585   0.827   3.470   4.735  0.1511 -0.2868  2.1681
   36MOL   H116 8586   0.579   3.645   4.681 -1.2455  0.1278 -0.4052
   36MOL   H117 8587   0.552   3.469   4.859  0.2322  0.9099  0.3901
   36MOL   H118 8588   0.616   3.352   4.746 -0.5992  0.1858 -1.1336
   36MOL   H119 8589   0.341   3.497   4.746 -1.0211  0.6576 -2.4377
   36MOL   H120 8590   0.404   3.413   4.606 -1.9411  0.8495  0.5050
   36MOL   H121 8591   0.377   3.332   4.763  0.3212  0.2753  0.4833
   36MOL   C122 8592   0.643   3.530   4.513  0.4138  0.1940  0.4910
   36MOL   C123 8593   0.535   3.605   4.434 -0.5031  0.1096  0.3267
   36MOL   C124 8594   0.525   3.547   4.291 -0.1878  0.5721  0.0542
   36MOL   C125 8595   0.499   3.394   4.280  0.9254 -0.3332  0.9344
   36MOL   H126 8596   0.636   3.421   4.505  1.7412  0.1449 -0.2044
   36MOL   H127 8597   0.742   3.561   4.479  0.6134  1.9115  2.5411
   36MOL   H128 8598   0.441   3.577   4.480 -0.8283  1.0549  0.2548
   36MOL   H129 8599   0.610   3.578   4.230 -0.9099  1.7891 -0.3571
   36MOL   H130 8600   0.441   3.593   4.239  0.1983 -0.3501 -1.4130
   36MOL   H131 8601   0.456   3.378   4.181  4.2820 -0.7898 -0.5111
   36MOL   H132 8602   0.580   3.323   4.291 -0.8527 -2.6538 -0.5108
   36MOL   H133 8603   0.416   3.368   4.347  0.2981 -0.6341  0.0476
   36MOL   C134 8604   0.545   3.761   4.430 -0.0341 -0.5719 -0.2047
   36MOL   C135 8605   0.416   3.851   4.450 -0.5122 -0.5577 -0.1049
   36MOL   C136 8606   0.314   3.840   4.337 -0.4960 -0.0961  0.8043
   36MOL   C137 8607   0.370   3.905   4.202  0.6356 -0.7818 -0.8220
   36MOL   H138 8608   0.587   3.791   4.334 -0.4370 -1.6162 -0.7085
   36MOL   H139 8609   0.619   3.774   4.510  0.9145  0.2868 -1.1896
   36MOL   H140 8610   0.373   3.803   4.538 -1.4640  1.3951  0.5228
   36MOL   H141 8611   0.216   3.882   4.361 -0.7385 -0.0160 -0.3060
   36MOL   H142 8612   0.299   3.733   4.322 -0.1355  0.0992 -1.1776
   36MOL   H143 8613   0.374   4.013   4.211 -1.0354 -0.8273  0.7496
   36MOL   H144 8614   0.467   3.868   4.169  0.6749 -1.2174 -0.2386
   36MOL   H145 8615   0.304   3.887   4.118 -3.1972 -0.3491  1.9626
   36MOL   C146 8616   0.444   4.001   4.483 -0.3419  0.7139  0.5993
   36MOL   C147 8617   0.527   4.028   4.618  0.1893  0.4538  0.1340
   36MOL   C148 8618   0.468   3.968   4.746  1.2377 -0.1846 -0.2974
   36MOL   C149 8619   0.337   4.036   4.781  0.0368 -0.0582  0.3048
   36MOL   H150 8620   0.347   4.052   4.485 -1.4118 -1.2584  0.4672
   36MOL   H151 8621   0.489   4.044   4.394 -1.7444 -0.4603 -0.7043
   36MOL   H152 8622   0.614   3.966   4.598  0.6648  1.0500  0.3265
   36MOL   H153 8623   0.538   3.969   4.829  1.2279 -1.5892 -0.2586
   36MOL   H154 8624   0.443   3.862   4.741 -2.4035  0.5725  0.1797
   36MOL   H155 8625   0.263   4.018   4.703  2.6709  1.2421 -2.5893
   36MOL   H156 8626   0.301   3.990   4.873 -0.9455 -0.6255 -0.3549
   36MOL   H157 8627   0.358   4.143   4.791  0.1768  0.0544 -1.0672
   36MOL   C158 8628   0.574   4.175   4.638  0.3380  0.0289  0.0650
   36MOL   C159 8629   0.649   4.245   4.516  0.4283  0.7266 -0.0389
   36MOL   C160 8630   0.759   4.153   4.445 -1.1259  0.5021 -0.1476
   36MOL   C161 8631   0.798   4.194   4.300 -0.2956  0.7861 -0.3762
   36MOL   H162 8632   0.648   4.178   4.718  0.4022 -1.0299  0.0529
   36MOL   H163 8633   0.494   4.241   4.671 -0.6320 -0.1825 -1.8245
   36MOL   H164 8634   0.568   4.248   4.443  0.8643 -0.6526 -0.5945
   36MOL   H165 8635   0.717   4.053   4.446  0.9314 -0.3899 -0.7290
   36MOL   H166 8636   0.836   4.153   4.523  1.5836 -2.1841 -2.6864
   36MOL   H167 8637   0.799   4.107   4.235 -0.5836  0.2987  0.2668
   36MOL   H168 8638   0.721   4.263   4.265  0.1037  0.5664 -1.7190
   36MOL   H169 8639   0.894   4.244   4.291  1.2192 -2.1392 -1.1705
   36MOL   C170 8640   0.707   4.390   4.540  0.1152  0.1238 -1.3932
   36MOL   C171 8641   0.614   4.495   4.594 -0.0711 -0.4749  0.0579
   36MOL   C172 8642   0.499   4.515   4.494  0.3201  0.1146  0.2009
   36MOL   C173 8643   0.540   4.561   4.348 -0.0502  0.1981  0.5639
   36MOL   H174 8644   0.759   4.438   4.457  1.2524  3.2757  1.0461
   36MOL   H175 8645   0.783   4.377   4.617 -0.2426  0.0936 -1.0470
   36MOL   H176 8646   0.575   4.453   4.687  1.3485 -1.6848  0.1235
   36MOL   H177 8647   0.431   4.594   4.525  0.4210  0.1543  0.3210
   36MOL   H178 8648   0.442   4.423   4.479 -1.4728  1.0672  1.0622
   36MOL   H179 8649   0.455   4.568   4.280 -0.6430  0.2832  1.2949
   36MOL   H180 8650   0.603   4.649   4.359  1.8254 -1.0366 -0.2019
   36MOL   H181 8651   0.604   4.488   4.299 -0.5559 -0.9184  1.5310
   36MOL   C182 8652   0.699   4.628   4.621  0.2414  0.8634  0.0846
   36MOL   C183 8653   0.618   4.747   4.688 -0.2188 -0.8158 -0.6940
   36MOL   C184 8654   0.622   4.857   4.584  0.4428  0.0577 -0.4359
   36MOL   C185 8655   0.521   4.965   4.615  0.4964  0.4906  0.0598
   36MOL   H186 8656   0.741   4.665   4.528  2.3306 -1.1935  0.1857
   36MOL   H187 8657   0.786   4.596   4.679  0.6796 -0.0033 -1.0535
   36MOL   H188 8658   0.515   4.714   4.697 -0.3228 -0.9531 -2.2604
   36MOL   H189 8659   0.590   4.814   4.489 -0.3348  0.9840 -0.6038
   36MOL   H190 8660   0.724   4.895   4.577  0.5796 -0.4614 -1.4430
   36MOL   H191 8661   0.536   5.002   4.716  1.0945 -0.5284  0.3482
   36MOL   H192 8662   0.534   5.045   4.541  0.0033  1.2703  0.8011
   36MOL   H193 8663   0.427   4.910   4.610 -0.2511  1.8340 -1.2384
   36MOL   C194 8664   0.675   4.794   4.830 -0.1536  0.1324 -0.5625
   36MOL   C195 8665   0.686   4.681   4.939  1.0284  0.2266  0.5549
   36MOL   C196 8666   0.547   4.623   4.982  0.0169 -0.4701 -0.5204
   36MOL   C197 8667   0.460   4.734   5.048  0.1342  0.1172 -0.3999
   36MOL   H198 8668   0.620   4.880   4.868 -0.9921 -0.6701  0.0509
   36MOL   H199 8669   0.778   4.828   4.823  0.3853 -1.6033 -1.2354
   36MOL   H200 8670   0.736   4.593   4.897  1.1796  0.5936 -0.0419
   36MOL   H201 8671   0.557   4.539   5.050  1.7485 -0.7364 -1.0719
   36MOL   H202 8672   0.503   4.575   4.895  0.8643  0.5817 -1.5496
   36MOL   H203 8673   0.436   4.808   4.971 -0.0778  0.9236  0.4298
   36MOL   H204 8674   0.367   4.690   5.083  1.4588 -1.7965  0.7760
   36MOL   H205 8675   0.479   4.799   5.133 -2.6810 -0.0060  0.3699
   36MOL   C206 8676   0.770   4.712   5.066  0.4369  0.4544  0.7382
   36MOL   C207 8677   0.926   4.724   5.056 -0.6923 -0.0326 -0.0823
   36MOL   C208 8678   1.003   4.597   5.059  0.1062  0.2477 -0.0662
   36MOL   C209 8679   0.992   4.515   4.929  0.2596 -0.1582  0.3911
   36MOL   H210 8680   0.759   4.634   5.142 -2.0832  0.0333 -0.0119
   36MOL   H211 8681   0.725   4.806   5.097  0.1786  0.9445 -1.0293
   36MOL   H212 8682   0.945   4.781   4.965 -0.9520  0.6628  0.2941
   36MOL   H213 8683   0.969   4.534   5.141 -1.1075 -0.9075 -1.4267
   36MOL   H214 8684   1.105   4.632   5.077  0.5296  0.1376 -2.1039
   36MOL   H215 8685   1.064   4.433   4.933  2.0353  1.3305 -0.0068
   36MOL   H216 8686   0.901   4.455   4.924  0.8465 -1.0221 -0.1179
   36MOL   H217 8687   1.027   4.560   4.836  0.7335  1.7508  1.4823
   36MOL   C218 8688   0.988   4.816   5.172 -0.0869 -0.5480 -0.2683
   36MOL   C219 8689   0.944   4.962   5.162 -0.4018 -0.4549 -0.0609
   36MOL   C220 8690   1.001   5.039   5.041  0.1164 -0.0054  0.6020
   36MOL   C221 8691   1.140   5.104   5.058  0.0379  0.0535  0.6930
   36MOL   H222 8692   1.096   4.813   5.175 -0.1367 -0.4480  2.1268
   36MOL   H223 8693   0.962   4.778   5.270 -0.0607 -0.9627 -0.4222
   36MOL   H224 8694   0.835   4.965   5.154 -0.4618 -0.3649  0.7672
   36MOL   H225 8695   0.940   5.123   5.007  2.4160  1.6815  0.4916
   36MOL   H226 8696   1.000   4.971   4.956  0.7751  1.5601 -0.7025
   36MOL   H227 8697   1.215   5.027   5.073 -1.5286 -1.8568 -0.9713
   36MOL   H228 8698   1.177   5.139   4.962 -0.1234 -1.8177 -0.0602
   36MOL   H229 8699   1.129   5.182   5.134 -1.6879 -0.4794  1.0252
   36MOL   C230 8700   0.978   5.031   5.297  0.2629 -0.4221 -0.1701
   36MOL   C231 8701   0.891   5.168   5.310  0.3161 -0.4433 -0.5232
   36MOL   C232 8702   0.928   5.267   5.409 -1.4613 -0.3563 -0.4933
   36MOL   C233 8703   0.824   5.379   5.410 -0.1835  0.0222  0.3690
   36MOL   H234 8704   1.086   5.039   5.307  0.3862 -1.1005 -0.9103
   36MOL   H235 8705   0.947   4.978   5.387  2.4333 -1.2935  0.0842
   36MOL   H236 8706   0.892   5.217   5.212  3.4033  0.6220 -0.0046
   36MOL   H237 8707   1.025   5.306   5.378 -0.1806 -2.7273  0.4404
   36MOL   H238 8708   0.934   5.226   5.510 -0.3353  0.7551 -0.0876
   36MOL   H239 8709   0.846   5.458   5.482  0.8468  0.0204  0.0612
   36MOL   H240 8710   0.829   5.430   5.314  0.2603 -1.7024 -0.5432
   36MOL   H241 8711   0.724   5.335   5.416  0.3234 -1.1182  0.4567
   36MOL   H242 8712   0.788   5.134   5.320  0.1719  0.0559 -0.3251
   37MOL     C1 8713   0.075   0.677   2.666  0.4416 -0.2110 -0.4727
   37MOL     C2 8714   0.076   0.738   2.809  0.4169  0.2244  0.5899
   37MOL     C3 8715   7.702   0.647   2.903 -0.8999  0.4837  0.6443
   37MOL     C4 8716   7.682   0.706   3.043 -0.0198  0.0472  0.0691
   37MOL     H5 8717   0.161   0.714   2.611  1.2402 -1.8755 -0.3720
   37MOL     H6 8718   0.070   0.568   2.676 -2.0476 -0.0738  0.1853
   37MOL     H7 8719   0.178   0.737   2.847  0.0895  0.2659  1.4823
   37MOL     H8 8720   0.054   0.555   2.917 -2.6706 -0.9346 -1.1052
   37MOL     H9 8721   7.607   0.614   2.861 -0.4268 -2.5002  1.7370
   37MOL    H10 8722   7.591   0.765   3.044 -0.5448 -0.7684  2.3760
   37MOL    H11 8723   7.664   0.624   3.113  0.5387  1.7668  2.2669
   37MOL    H12 8724   0.067   0.760   3.068 -0.0096  0.6740 -1.2636
   37MOL    H13 8725   7.702   0.711   2.599  0.3776 -1.9360 -1.2996
   37MOL    C14 8726   0.019   0.880   2.800  0.9388  0.3327 -0.7385
   37MOL    C15 8727   0.084   0.986   2.704  0.5902 -0.2600 -0.2740
   37MOL    C16 8728   0.222   1.034   2.752 -0.0223 -0.3129 -0.2641
   37MOL    C17 8729   0.211   1.114   2.885  0.4360 -0.0981 -0.2481
   37MOL    H18 8730   0.009   0.919   2.901 -0.3031  0.2902 -0.8344
   37MOL    H19 8731   7.621   0.867   2.770  0.9041 -3.2019  0.6095
   37MOL    H20 8732   0.099   0.943   2.605 -1.4261  0.4172 -0.8963
   37MOL    H21 8733   0.278   1.092   2.678 -1.3140  1.4794  0.1075
   37MOL    H22 8734   0.286   0.947   2.760  0.6234  0.3266  1.6832
   37MOL    H23 8735   0.155   1.203   2.854  1.6624  0.2046 -1.6509
   37MOL    H24 8736   0.150   1.067   2.962  0.1884 -1.8289 -1.4590
   37MOL    H25 8737   0.305   1.147   2.928  0.0512  0.6325  0.0410
   37MOL    C26 8738   7.684   1.098   2.689 -0.3182  0.4480  0.9408
   37MOL    C27 8739   7.579   1.061   2.578 -0.2289 -0.0501  0.1754
   37MOL    C28 8740   7.622   1.116   2.444  0.8590  0.3702 -0.1509
   37MOL    C29 8741   7.612   1.268   2.414  0.3027 -0.2316 -0.3491
   37MOL    H30 8742   0.027   1.194   2.673 -0.5157  0.6814  1.7510
   37MOL    H31 8743   7.641   1.114   2.788 -2.7583  1.0367 -0.1736
   37MOL    H32 8744   7.580   0.952   2.573 -0.1751 -0.0149 -0.5009
   37MOL    H33 8745   7.561   1.057   2.375 -1.7279  1.6463  0.9865
   37MOL    H34 8746   0.019   1.091   2.421  0.9590  1.8996 -1.4889
   37MOL    H35 8747   7.651   1.293   2.316  1.2270 -1.6182 -0.3442
   37MOL    H36 8748   7.507   1.298   2.416  0.3333 -0.0175 -1.7899
   37MOL    H37 8749   7.663   1.322   2.493  2.7812  1.1382 -2.8406
   37MOL    C38 8750   7.436   1.107   2.624 -0.4641  0.5372  0.4083
   37MOL    C39 8751   7.372   1.028   2.741 -0.2752 -0.7178 -0.4780
   37MOL    C40 8752   7.345   0.874   2.719  0.6187 -0.9002 -0.1561
   37MOL    C41 8753   7.334   0.804   2.854 -0.3743  0.3338  0.2644
   37MOL    H42 8754   7.373   1.109   2.535  1.6548 -0.0467 -1.1627
   37MOL    H43 8755   7.433   1.212   2.655  1.2384  1.0654 -1.1390
   37MOL    H44 8756   7.449   1.033   2.819 -0.7487  2.3345 -0.1298
   37MOL    H45 8757   7.423   0.825   2.661  0.5415  0.1485 -1.1503
   37MOL    H46 8758   7.254   0.850   2.665 -1.0950  1.3238  1.6209
   37MOL    H47 8759   7.240   0.816   2.906  0.0720 -1.6074  1.5711
   37MOL    H48 8760   7.328   0.696   2.839 -0.4207  0.6433 -2.1215
   37MOL    H49 8761   7.419   0.831   2.918 -1.2504  0.4277  1.3967
   37MOL    C50 8762   7.254   1.107   2.810 -0.9033  0.2871  0.2544
   37MOL    C51 8763   7.289   1.219   2.915  0.7229 -0.8098 -0.0483
   37MOL    C52 8764   7.272   1.180   3.067  0.0674 -0.5870 -0.0460
   37MOL    C53 8765   7.360   1.069   3.107  0.0604  0.1923  0.1167
   37MOL    H54 8766   7.178   1.048   2.860 -2.3673  1.5484 -0.4491
   37MOL    H55 8767   7.201   1.151   2.726  0.3522 -1.3973 -1.4463
   37MOL    H56 8768   7.389   1.255   2.890  0.1360  0.8649 -0.0490
   37MOL    H57 8769   7.165   1.159   3.069 -0.2952  1.2481  1.3349
   37MOL    H58 8770   7.279   1.271   3.127  0.9108 -0.9469  0.4156
   37MOL    H59 8771   7.397   1.075   3.209  0.0934 -1.5310  0.2130
   37MOL    H60 8772   7.317   0.975   3.073  0.5518  0.8000 -2.3153
   37MOL    H61 8773   7.448   1.065   3.042 -0.8449 -1.4228 -1.0420
   37MOL    C62 8774   7.192   1.343   2.881  0.4355 -0.6875  0.3093
   37MOL    C63 8775   7.222   1.431   2.751  0.3562  0.2957  0.0369
   37MOL    C64 8776   7.353   1.510   2.756 -0.1431 -0.4134  1.0357
   37MOL    C65 8777   7.404   1.561   2.621 -0.1469 -0.4736 -0.1330
   37MOL    H66 8778   7.190   1.413   2.965  0.7899  0.3730 -0.5565
   37MOL    H67 8779   7.097   1.290   2.879  0.7224 -1.2095  0.5627
   37MOL    H68 8780   7.227   1.364   2.665  0.7069  0.3047  0.0517
   37MOL    H69 8781   7.431   1.466   2.817  0.2665 -1.5243 -0.2605
   37MOL    H70 8782   7.335   1.606   2.805  1.3746  0.6925 -0.5323
   37MOL    H71 8783   7.330   1.594   2.549  1.0745  1.6455 -0.4417
   37MOL    H72 8784   7.482   1.635   2.639 -0.8980  0.2662  0.0703
   37MOL    H73 8785   7.453   1.484   2.561 -1.0423 -0.3536 -1.0208
   37MOL    C74 8786   7.101   1.527   2.723 -0.0881 -0.8194 -0.3981
   37MOL    C75 8787   6.985   1.439   2.663  0.4624  0.4719  0.0971
   37MOL    C76 8788   7.001   1.409   2.515 -0.7931 -0.8251  0.1266
   37MOL    C77 8789   6.919   1.288   2.467 -0.2701 -0.0929  0.1662
   37MOL    H78 8790   7.123   1.600   2.646  1.3494 -0.1859  0.5899
   37MOL    H79 8791   7.076   1.583   2.813 -0.1118 -1.9736  0.3210
   37MOL    H80 8792   6.978   1.343   2.715 -1.8559  0.2313 -0.5909
   37MOL    H81 8793   7.103   1.383   2.488 -0.2516  0.7649  0.5579
   37MOL    H82 8794   6.997   1.505   2.463  0.5094 -1.8495 -1.9213
   37MOL    H83 8795   6.810   1.296   2.469 -0.3439 -0.3806 -1.5086
   37MOL    H84 8796   6.943   1.262   2.364  1.7126  2.0914  0.0263
   37MOL    H85 8797   6.946   1.199   2.523  1.0677 -0.1324 -0.5176
   37MOL    C86 8798   6.841   1.507   2.681 -0.3088 -0.2052 -0.2757
   37MOL    C87 8799   6.789   1.540   2.823 -0.3242  0.1787  0.6936
   37MOL    C88 8800   6.779   1.412   2.911 -0.2624 -0.6685  0.7358
   37MOL    C89 8801   6.746   1.449   3.061 -0.6221  0.1121  0.1871
   37MOL    H90 8802   6.769   1.437   2.639  1.8337 -0.9629 -2.7699
   37MOL    H91 8803   6.845   1.602   2.630 -0.9867  0.3960  0.7649
   37MOL    H92 8804   6.859   1.608   2.871  0.3178  0.2253 -0.2781
   37MOL    H93 8805   6.872   1.355   2.916 -0.2344 -0.5931  1.1055
   37MOL    H94 8806   6.710   1.341   2.864  0.5495 -0.9109 -0.0895
   37MOL    H95 8807   6.809   1.533   3.092  1.5633 -0.3206 -2.8086
   37MOL    H96 8808   6.639   1.468   3.066 -0.5879  0.1515  0.7436
   37MOL    H97 8809   6.765   1.363   3.125  0.7807  0.6022  0.4408
   37MOL    C98 8810   6.657   1.626   2.817  0.2251 -0.4960 -0.4139
   37MOL    C99 8811   6.673   1.782   2.788  0.1671 -0.0797 -0.0985
   37MOL   C100 8812   6.772   1.863   2.877 -0.5463  0.6254 -0.4265
   37MOL   C101 8813   6.742   1.841   3.027 -0.1786  0.7470  0.3295
   37MOL   H102 8814   6.610   1.625   2.916 -0.4973 -0.9270 -0.7559
   37MOL   H103 8815   6.588   1.581   2.746 -1.0807  0.5023  0.1803
   37MOL   H104 8816   6.706   1.767   2.685  0.2787 -1.6947  0.1533
   37MOL   H105 8817   6.758   1.967   2.847 -1.0167  0.9999  1.0485
   37MOL   H106 8818   6.875   1.847   2.845 -0.2551 -0.8009  1.1541
   37MOL   H107 8819   6.805   1.905   3.088  4.1039 -2.2424 -0.7902
   37MOL   H108 8820   6.635   1.859   3.041 -0.1249  0.5701  0.9561
   37MOL   H109 8821   6.759   1.737   3.052  0.8038  0.1277 -2.7358
   37MOL   C110 8822   6.535   1.844   2.778 -0.7785 -0.5904 -0.4316
   37MOL   C111 8823   6.513   1.970   2.687  0.4057  0.9289 -0.5239
   37MOL   C112 8824   6.362   2.001   2.688  1.0202  0.5532 -0.0818
   37MOL   C113 8825   6.312   2.063   2.818 -0.3389 -0.4436  0.7794
   37MOL   H114 8826   6.494   1.874   2.875 -0.3944  2.5066 -1.1665
   37MOL   H115 8827   6.465   1.770   2.741 -0.2016 -0.8697 -0.9804
   37MOL   H116 8828   6.548   2.063   2.731  1.3059  0.4256 -0.1426
   37MOL   H117 8829   6.314   1.904   2.677  2.9374 -0.3078 -1.0386
   37MOL   H118 8830   6.331   2.068   2.607  2.0519  0.9437 -0.1642
   37MOL   H119 8831   6.210   2.092   2.793 -1.2282 -2.8851  1.3558
   37MOL   H120 8832   6.316   1.978   2.887  3.2456 -0.9483  0.0781
   37MOL   H121 8833   6.357   2.156   2.851 -2.9305  0.7898  0.9542
   37MOL   C122 8834   6.582   1.955   2.547 -0.6097  0.8597  0.2952
   37MOL   C123 8835   6.718   2.014   2.521 -0.5151 -0.7066  0.3407
   37MOL   C124 8836   6.726   2.161   2.495  0.0188  0.1301  0.6926
   37MOL   C125 8837   6.656   2.212   2.361  0.1849 -0.0241  0.1000
   37MOL   H126 8838   6.510   1.992   2.473 -0.5475 -0.9399 -0.7018
   37MOL   H127 8839   6.579   1.850   2.517  0.2064  0.7461  0.6017
   37MOL   H128 8840   6.770   1.998   2.615  0.5069 -3.1379 -0.5909
   37MOL   H129 8841   6.827   2.201   2.493 -0.7548  2.2827  2.6854
   37MOL   H130 8842   6.675   2.213   2.576 -0.0037  1.2682 -0.0356
   37MOL   H131 8843   6.547   2.215   2.372  0.2111  0.0303  0.3424
   37MOL   H132 8844   6.679   2.317   2.350 -1.2806  0.3683  0.6530
   37MOL   H133 8845   6.671   2.153   2.270 -1.5944  0.9737 -0.8822
   37MOL   C134 8846   6.790   1.932   2.421 -0.7919 -0.4219 -0.5163
   37MOL   C135 8847   6.944   1.947   2.402  0.0797 -0.1156  0.3623
   37MOL   C136 8848   7.000   1.897   2.262 -0.4507  0.2980  0.0949
   37MOL   C137 8849   6.918   1.942   2.136 -0.1588  0.1193  0.3406
   37MOL   H138 8850   6.746   1.941   2.321 -2.4570  0.3623  0.2614
   37MOL   H139 8851   6.776   1.824   2.428 -2.2947 -0.2565 -0.7786
   37MOL   H140 8852   6.969   2.054   2.401  0.4321 -0.1944  0.7089
   37MOL   H141 8853   7.003   1.788   2.267 -1.1139  0.2086 -1.2157
   37MOL   H142 8854   7.104   1.928   2.248 -0.2228 -0.5233 -0.1025
   37MOL   H143 8855   6.981   1.916   2.051 -1.8758  0.5309 -1.0778
   37MOL   H144 8856   6.828   1.882   2.130 -0.3154  0.2836  0.9365
   37MOL   H145 8857   6.911   2.050   2.122  3.3447  0.2864 -0.7292
   37MOL   C146 8858   7.016   1.888   2.530 -0.2363  0.2853  0.7334
   37MOL   C147 8859   7.083   1.999   2.619  0.4241  0.2868  0.3199
   37MOL   C148 8860   7.178   2.093   2.539  0.4994  0.0318  0.0080
   37MOL   C149 8861   7.131   2.237   2.508  0.1892  0.1597 -0.1379
   37MOL   H150 8862   7.081   1.806   2.500 -0.7232 -0.8456  2.6722
   37MOL   H151 8863   6.942   1.855   2.602 -1.5561 -0.9952 -1.1481
   37MOL   H152 8864   7.002   2.061   2.658  0.5584  2.3961 -2.5581
   37MOL   H153 8865   7.205   2.039   2.447 -0.4465  0.9676 -0.8316
   37MOL   H154 8866   7.274   2.108   2.588  1.5133 -0.0264 -1.8953
   37MOL   H155 8867   7.078   2.277   2.595 -2.0381  0.5292 -1.6303
   37MOL   H156 8868   7.212   2.309   2.500  0.3153  0.4479  2.8417
   37MOL   H157 8869   7.063   2.249   2.424 -2.1993 -0.9587  1.5694
   37MOL   C158 8870   7.165   1.933   2.733 -0.7500  0.4092  0.2064
   37MOL   C159 8871   7.209   2.043   2.844 -0.3554  0.3687  0.0313
   37MOL   C160 8872   7.338   1.992   2.898  0.1259  0.3552 -0.3106
   37MOL   C161 8873   7.333   1.860   2.984  0.4606  1.0372 -0.4078
   37MOL   H162 8874   7.249   1.871   2.703 -0.6597 -0.0808  1.4331
   37MOL   H163 8875   7.108   1.856   2.784 -0.8907  0.3771 -0.0019
   37MOL   H164 8876   7.222   2.138   2.792 -1.5971  0.1994 -0.6139
   37MOL   H165 8877   7.379   2.065   2.968 -0.7092 -0.3919  0.9679
   37MOL   H166 8878   7.417   1.989   2.823  2.5679 -0.0525  2.1985
   37MOL   H167 8879   7.281   1.776   2.939  1.8811 -1.2351  2.1003
   37MOL   H168 8880   7.432   1.831   3.019 -0.0806 -0.9111 -0.4799
   37MOL   H169 8881   7.265   1.878   3.067  2.9768 -0.0911  1.9374
   37MOL   C170 8882   7.086   2.077   2.936 -0.4753 -0.1786 -0.7685
   37MOL   C171 8883   7.118   2.182   3.046 -0.3528  0.0663  0.6333
   37MOL   C172 8884   7.019   2.168   3.168 -0.4911  0.4358  0.2622
   37MOL   C173 8885   7.080   2.099   3.288  0.0887  0.3767 -0.1123
   37MOL   H174 8886   7.044   1.986   2.977  2.9829 -0.6896  1.9079
   37MOL   H175 8887   7.011   2.115   2.867  1.3847  4.0511 -0.6222
   37MOL   H176 8888   7.217   2.159   3.086 -0.4872 -1.6957  0.0154
   37MOL   H177 8889   6.938   2.106   3.130  0.5000  0.6687 -2.3941
   37MOL   H178 8890   6.977   2.262   3.202  0.6137  0.8937  0.4042
   37MOL   H179 8891   7.162   2.154   3.334 -0.9175  1.6224  0.2107
   37MOL   H180 8892   7.002   2.090   3.364  0.3350 -2.5430 -0.1189
   37MOL   H181 8893   7.115   1.999   3.261  2.0353  0.1423  3.0494
   37MOL   C182 8894   7.111   2.328   2.991 -1.0446 -0.3095 -0.1036
   37MOL   C183 8895   7.193   2.430   3.075  0.3104  0.6053 -0.6954
   37MOL   C184 8896   7.153   2.572   3.042  0.4427  0.5959 -0.4360
   37MOL   C185 8897   7.184   2.624   2.899  0.3393  0.3510  0.0702
   37MOL   H186 8898   7.006   2.357   3.002 -0.4420  1.0275  2.4484
   37MOL   H187 8899   7.133   2.331   2.884 -1.5152 -1.4597 -0.2483
   37MOL   H188 8900   7.175   2.423   3.182  1.0496 -0.2289 -0.6114
   37MOL   H189 8901   7.212   2.636   3.107  0.3569 -0.0633  0.2948
   37MOL   H190 8902   7.051   2.597   3.068  0.6003  0.0394  0.7665
   37MOL   H191 8903   7.150   2.727   2.898  1.2242  0.6914  2.0865
   37MOL   H192 8904   7.292   2.628   2.881  0.3418 -0.2379 -0.0697
   37MOL   H193 8905   7.130   2.570   2.821  0.0834 -1.9138  1.7432
   37MOL   C194 8906   7.348   2.409   3.047 -0.3187  0.3986 -0.2371
   37MOL   C195 8907   7.453   2.480   3.138  0.1581 -0.0429 -0.3252
   37MOL   C196 8908   7.543   2.585   3.062 -0.6290  0.0831  0.5364
   37MOL   C197 8909   7.649   2.514   2.974  0.2178  0.3450  0.5244
   37MOL   H198 8910   7.361   2.417   2.940  1.9490 -0.4244 -0.0427
   37MOL   H199 8911   7.380   2.305   3.056  1.8313  0.9693 -0.9925
   37MOL   H200 8912   7.386   2.538   3.200 -1.7327 -1.2612 -1.1844
   37MOL   H201 8913   7.591   2.656   3.129 -2.6018  1.5785  0.4049
   37MOL   H202 8914   7.481   2.643   2.994 -2.4214 -0.6414  1.5194
   37MOL   H203 8915   7.695   2.587   2.908 -0.7894 -0.9378 -1.6205
   37MOL   H204 8916   0.025   2.469   3.030  0.6493  0.2506 -0.1905
   37MOL   H205 8917   7.600   2.432   2.921 -3.7725  2.3894  0.8781
   37MOL   C206 8918   7.526   2.398   3.247 -0.0408  0.6590  0.2997
   37MOL   C207 8919   7.450   2.322   3.365 -0.1133 -0.0504 -0.3076
   37MOL   C208 8920   7.376   2.421   3.459 -0.5326  0.9875  0.4040
   37MOL   C209 8921   7.477   2.498   3.548 -0.0943  0.2304 -0.7405
   37MOL   H210 8922   7.596   2.465   3.297 -0.8350  3.3181 -2.0304
   37MOL   H211 8923   7.590   2.335   3.184 -1.0445 -0.5264  0.4528
   37MOL   H212 8924   7.370   2.265   3.319  0.0585 -0.1268 -0.5102
   37MOL   H213 8925   7.305   2.364   3.519 -1.7130 -0.9297 -2.6759
   37MOL   H214 8926   7.323   2.497   3.401 -0.5404  0.1037 -0.7748
   37MOL   H215 8927   7.535   2.434   3.614  2.6183 -0.3001 -3.5212
   37MOL   H216 8928   7.551   2.560   3.498  0.0290  1.0308  0.4379
   37MOL   H217 8929   7.417   2.568   3.606 -0.1432  0.1869 -0.7392
   37MOL   C218 8930   7.533   2.218   3.440 -0.3690 -0.1633 -0.4062
   37MOL   C219 8931   7.604   2.106   3.353  0.1690 -0.9225  0.6324
   37MOL   C220 8932   7.521   2.018   3.256 -0.5039  0.1020 -0.0913
   37MOL   C221 8933   7.430   1.917   3.324 -0.0062  0.1636 -0.1965
   37MOL   H222 8934   7.471   2.168   3.514 -1.2701 -1.0770 -1.7514
   37MOL   H223 8935   7.602   2.268   3.508  1.3541 -2.4791 -0.3867
   37MOL   H224 8936   7.668   2.163   3.285  0.3862 -1.0174  0.7540
   37MOL   H225 8937   7.578   1.952   3.192  1.4050  1.0101  0.6347
   37MOL   H226 8938   7.459   2.083   3.194 -1.3213 -0.5524  0.0304
   37MOL   H227 8939   7.380   1.861   3.245  4.3937 -0.9017 -2.3246
   37MOL   H228 8940   7.476   1.843   3.390  0.1306  1.3858  1.0951
   37MOL   H229 8941   7.351   1.968   3.381 -0.1205 -0.5087  0.2624
   37MOL   C230 8942   0.002   2.028   3.439  0.0736  0.3677 -0.1938
   37MOL   C231 8943   0.092   1.935   3.345  1.2539 -0.1958 -0.3213
   37MOL   C232 8944   0.219   1.874   3.406  0.4979 -0.1225  0.2963
   37MOL   C233 8945   0.300   1.778   3.311 -0.0483  0.2773 -0.6643
   37MOL   H234 8946   7.664   1.963   3.514  1.1784 -0.5426 -0.3396
   37MOL   H235 8947   0.073   2.087   3.497  1.1684 -0.0254 -1.1157
   37MOL   H236 8948   0.026   1.854   3.312  2.0018 -0.6831 -0.6505
   37MOL   H237 8949   0.204   1.824   3.501 -1.0762  1.8109  1.0894
   37MOL   H238 8950   0.281   1.956   3.442 -0.8268  1.2905 -0.5950
   37MOL   H239 8951   0.357   1.836   3.239  1.4194  0.7605  0.8597
   37MOL   H240 8952   0.375   1.717   3.360  1.2720  0.2719 -2.6161
   37MOL   H241 8953   0.242   1.702   3.258 -0.8508  0.8024 -0.5474
   37MOL   H242 8954   0.120   1.982   3.250  0.1366 -0.1395 -0.6267
   38MOL     C1 8955   2.940   6.382   6.765  0.7348  0.3195 -0.3325
   38MOL     C2 8956   2.841   6.351   6.882  0.2372 -0.3689 -0.3918
   38MOL     C3 8957   2.777   6.485   6.921  0.0754 -0.2909 -0.7227
   38MOL     C4 8958   2.709   6.579   6.813  0.2378  0.0469  1.0921
   38MOL     H5 8959   2.964   6.284   6.725 -1.1751 -0.2674 -0.0607
   38MOL     H6 8960   2.899   6.442   6.684 -0.1703 -0.7589 -0.6814
   38MOL     H7 8961   2.762   6.288   6.840  1.3044 -0.6788 -1.9703
   38MOL     H8 8962   2.846   6.547   6.978 -1.2334  2.0869 -1.6324
   38MOL     H9 8963   2.700   6.465   6.996 -1.4760 -2.2714 -2.7795
   38MOL    H10 8964   2.672   6.670   6.861 -0.0990  0.7081 -0.3851
   38MOL    H11 8965   2.783   6.614   6.742 -0.7694  1.1962  0.5986
   38MOL    H12 8966   2.624   6.525   6.770  0.8522  2.0117 -2.7573
   38MOL    H13 8967   3.031   6.434   6.796 -0.0826  2.9440 -2.2396
   38MOL    C14 8968   2.910   6.291   7.010  0.6214  0.4212 -0.0908
   38MOL    C15 8969   2.999   6.164   6.997 -0.1107 -0.2854  0.4388
   38MOL    C16 8970   2.912   6.050   6.954  0.0949  0.5261  0.7382
   38MOL    C17 8971   2.808   5.997   7.058 -0.1845  0.4980 -0.3548
   38MOL    H18 8972   2.840   6.276   7.092  2.8122 -1.2385  1.5242
   38MOL    H19 8973   2.969   6.373   7.049  0.2917  1.1800 -1.1600
   38MOL    H20 8974   3.073   6.183   6.919 -1.9935 -0.2861 -1.3917
   38MOL    H21 8975   2.978   5.967   6.931 -2.5749 -1.1205 -1.3518
   38MOL    H22 8976   2.858   6.076   6.862 -1.4026 -1.0735  1.1370
   38MOL    H23 8977   2.775   5.902   7.017 -1.7489  0.8239  0.0790
   38MOL    H24 8978   2.851   5.964   7.153  0.0746 -0.9032 -0.9560
   38MOL    H25 8979   2.727   6.070   7.068  0.2915  1.0230 -0.2767
   38MOL    C26 8980   3.080   6.134   7.133 -0.7926  0.2618  0.0731
   38MOL    C27 8981   3.170   6.243   7.193  0.5293  0.6919  0.9428
   38MOL    C28 8982   3.292   6.283   7.109 -0.0291 -0.3999  0.0709
   38MOL    C29 8983   3.260   6.401   7.007  0.4078 -0.4711  0.1738
   38MOL    H30 8984   3.154   6.062   7.098 -1.1398  0.0451 -0.2216
   38MOL    H31 8985   3.018   6.087   7.209 -0.3430 -0.9076 -0.2760
   38MOL    H32 8986   3.111   6.334   7.206  0.8797  1.5908 -3.0642
   38MOL    H33 8987   3.331   6.198   7.053 -1.8832 -1.5357  0.4779
   38MOL    H34 8988   3.372   6.306   7.179 -0.3461  2.2943 -0.3759
   38MOL    H35 8989   3.351   6.431   6.955 -1.3303  1.5544 -1.7894
   38MOL    H36 8990   3.189   6.378   6.927  1.0888 -3.2480  0.3077
   38MOL    H37 8991   3.238   6.495   7.059  1.7030  0.1799 -0.4346
   38MOL    C38 8992   3.217   6.202   7.343 -0.1363  0.0110 -0.5076
   38MOL    C39 8993   3.112   6.221   7.456  0.3435  0.4423 -0.1873
   38MOL    C40 8994   3.112   6.370   7.515 -0.3192 -0.2989  0.1641
   38MOL    C41 8995   3.055   6.469   7.422  1.1748  0.2518 -0.0224
   38MOL    H42 8996   3.309   6.248   7.381 -0.4082  0.8680 -0.8758
   38MOL    H43 8997   3.249   6.099   7.330  2.4919  0.4568  2.0110
   38MOL    H44 8998   3.018   6.197   7.406  1.5929  0.2024 -2.4659
   38MOL    H45 8999   3.205   6.410   7.555  1.2993 -1.5879 -2.1809
   38MOL    H46 9000   3.042   6.375   7.598 -0.0295 -0.9343  0.4455
   38MOL    H47 9001   2.972   6.428   7.366  0.1482  2.4478 -0.1646
   38MOL    H48 9002   3.014   6.559   7.468  0.1974 -0.8644  1.3119
   38MOL    H49 9003   3.130   6.507   7.352  0.9109  1.2565  0.2310
   38MOL    C50 9004   3.146   6.119   7.572 -0.0929  0.1539 -0.4879
   38MOL    C51 9005   3.049   6.110   7.689  0.0493 -0.1261  0.6245
   38MOL    C52 9006   3.115   6.030   0.104 -0.4034  0.7002  0.3192
   38MOL    C53 9007   3.206   6.133   0.182  0.1151  0.0405  1.1635
   38MOL    H54 9008   3.248   6.140   7.603  0.7818 -0.7969 -2.6978
   38MOL    H55 9009   3.155   6.015   7.544 -2.1530 -1.1850  3.3499
   38MOL    H56 9010   3.034   6.214   0.013  0.5779  0.4140 -0.9595
   38MOL    H57 9011   3.174   5.953   0.054 -1.0064  1.8517 -2.2619
   38MOL    H58 9012   3.041   5.978   0.164  0.9789 -1.1911  0.4269
   38MOL    H59 9013   3.276   6.092   0.254  2.2451  2.0655  0.3197
   38MOL    H60 9014   3.280   6.165   0.109  0.1608  1.1100  1.6706
   38MOL    H61 9015   3.153   6.221   0.219  1.9308  1.6014  0.1114
   38MOL    C62 9016   2.908   6.059   7.650 -0.2730 -1.0386  0.8804
   38MOL    C63 9017   2.795   6.107   0.047  0.2836  0.4993 -0.1894
   38MOL    C64 9018   2.672   6.008   0.027  0.2715 -0.0437 -0.0262
   38MOL    C65 9019   2.694   5.872   0.095  0.0834  0.1930 -0.4453
   38MOL    H66 9020   2.930   5.953   7.653 -0.5673 -1.0955  1.0734
   38MOL    H67 9021   2.887   6.102   7.552  3.2368  0.5339  0.7480
   38MOL    H68 9022   2.828   6.105   0.151  0.0755  2.8716 -0.0486
   38MOL    H69 9023   2.653   6.009   7.626 -1.3866  0.7805  0.2688
   38MOL    H70 9024   2.593   6.078   0.053  0.4184  0.5539 -1.1695
   38MOL    H71 9025   2.774   5.814   0.050 -1.2330 -2.2762  0.2875
   38MOL    H72 9026   2.715   5.892   0.200  2.9813 -0.4312 -0.8824
   38MOL    H73 9027   2.602   5.814   0.096  0.1050  0.1606 -0.3402
   38MOL    C74 9028   2.765   6.258   0.027 -0.3918 -0.2318  0.2813
   38MOL    C75 9029   2.810   6.361   0.140  0.5998 -0.1717  1.0671
   38MOL    C76 9030   2.762   6.314   0.284 -0.9854 -0.1254  0.3991
   38MOL    C77 9031   2.613   6.261   0.305 -0.1248 -0.6437  0.3160
   38MOL    H78 9032   2.659   6.272   0.006 -0.3335 -0.0552  0.1003
   38MOL    H79 9033   2.811   6.289   7.639 -3.3835  1.3264 -0.7297
   38MOL    H80 9034   2.919   6.362   0.144  0.6461  3.6803  0.6203
   38MOL    H81 9035   2.779   6.399   0.351 -1.8223  0.9091 -0.6726
   38MOL    H82 9036   2.823   6.232   0.320 -1.0342 -0.2547  0.1854
   38MOL    H83 9037   2.590   6.234   0.408  2.8403 -2.0557  0.6592
   38MOL    H84 9038   2.543   6.339   0.274 -0.8785 -1.2874  0.3942
   38MOL    H85 9039   2.597   6.172   0.245  0.1522  0.4528 -1.4248
   38MOL    C86 9040   2.758   6.502   0.114 -0.5161  0.2866 -0.2677
   38MOL    C87 9041   2.866   6.598   0.055  0.2280 -0.4512 -0.6259
   38MOL    C88 9042   2.990   6.635   0.147  0.2466 -0.0123 -0.1240
   38MOL    C89 9043   3.109   6.689   0.066  0.7233  0.1264  0.1833
   38MOL    H90 9044   2.737   6.544   0.212 -0.2845 -1.7159  0.6543
   38MOL    H91 9045   2.661   6.500   0.063 -0.2021  3.0836 -1.0499
   38MOL    H92 9046   2.904   6.534   7.681 -0.4520 -0.0690 -1.2598
   38MOL    H93 9047   3.025   6.547   0.200  0.1225  0.7502  1.2303
   38MOL    H94 9048   2.962   6.701   0.229 -2.3156 -0.5769 -0.5014
   38MOL    H95 9049   3.186   6.722   0.136  0.0094  1.9716  0.1294
   38MOL    H96 9050   3.163   6.618   0.003  1.1544 -0.5233  1.2613
   38MOL    H97 9051   3.076   6.777   0.011 -0.1608  0.6247  1.4699
   38MOL    C98 9052   2.796   6.722   7.702 -0.2404 -0.0192  0.0343
   38MOL    C99 9053   2.790   6.849   0.079 -0.0833 -0.4639 -0.2789
   38MOL   C100 9054   2.675   6.831   0.187 -0.0950  0.5461 -0.6415
   38MOL   C101 9055   2.687   6.931   0.307  0.2408 -0.3859  0.6850
   38MOL   H102 9056   2.704   6.688   7.654 -1.1520 -1.9184  2.9875
   38MOL   H103 9057   2.864   6.747   7.621 -1.1397 -2.8725 -1.6604
   38MOL   H104 9058   2.879   6.879   0.133  0.4293 -0.0096 -1.3555
   38MOL   H105 9059   2.671   6.731   0.230  0.5490  1.2262  1.0865
   38MOL   H106 9060   2.582   6.840   0.131  0.2315  0.0684 -1.2613
   38MOL   H107 9061   2.773   6.907   0.368 -0.7500 -0.2206  2.1625
   38MOL   H108 9062   2.698   7.036   0.279  0.9601 -0.2795  1.3592
   38MOL   H109 9063   2.602   6.914   0.374 -1.7394 -0.1509 -1.6748
   38MOL   C110 9064   2.753   6.964   7.693 -0.1827  0.4587 -0.6810
   38MOL   C111 9065   2.854   7.005   7.576  0.4601  0.5981  0.2252
   38MOL   C112 9066   2.958   7.106   7.638  0.2444  0.7798  0.1100
   38MOL   C113 9067   3.070   7.145   7.533 -0.2228  0.1145 -0.3247
   38MOL   H114 9068   2.738   7.053   0.048  0.9068  0.2957 -0.1716
   38MOL   H115 9069   2.659   6.937   7.644  0.0186 -1.6549  0.0298
   38MOL   H116 9070   2.913   6.926   7.530  0.0641  0.5292 -0.1690
   38MOL   H117 9071   3.017   7.054   0.008  0.1638  1.5264  0.6937
   38MOL   H118 9072   2.908   7.195   7.677 -2.0227  0.1666 -1.3628
   38MOL   H119 9073   3.128   7.224   7.582 -1.1228 -0.3397  1.5108
   38MOL   H120 9074   3.134   7.062   7.501  1.9175  1.8524 -0.6825
   38MOL   H121 9075   3.039   7.191   7.439  1.9007 -2.3687 -2.3664
   38MOL   C122 9076   2.772   7.071   7.463 -0.3252 -0.5028  0.2866
   38MOL   C123 9077   2.686   6.973   7.378  0.1694  0.1310  0.7366
   38MOL   C124 9078   2.753   6.899   7.257 -0.3276 -0.6554 -0.1864
   38MOL   C125 9079   2.755   6.977   7.123 -0.0483 -0.1173  0.4456
   38MOL   H126 9080   2.830   7.126   7.389 -1.1015  1.7017  1.2834
   38MOL   H127 9081   2.711   7.148   7.511  0.2493  0.7039 -0.8967
   38MOL   H128 9082   2.668   6.888   7.444  0.4732 -0.5397 -0.0328
   38MOL   H129 9083   2.691   6.811   7.239 -1.7054 -0.1042  1.6244
   38MOL   H130 9084   2.852   6.866   7.288 -0.0537 -3.6810 -3.9929
   38MOL   H131 9085   2.809   6.919   7.048 -1.2991  2.1067 -2.2885
   38MOL   H132 9086   2.653   6.969   7.086  0.3251 -1.1409 -0.4095
   38MOL   H133 9087   2.789   7.080   7.120  1.3679 -0.5927 -3.3346
   38MOL   C134 9088   2.551   7.038   7.332 -0.8844  0.3099 -0.2060
   38MOL   C135 9089   2.454   7.071   7.446  0.9582  0.2300 -0.1783
   38MOL   C136 9090   2.336   6.981   7.456 -0.2207 -0.1759 -0.3019
   38MOL   C137 9091   2.376   6.835   7.468  0.0009  0.9476 -0.2591
   38MOL   H138 9092   2.501   6.972   7.261 -0.7212 -0.3186  0.2520
   38MOL   H139 9093   2.574   7.125   7.272  0.9898  0.3997  0.5949
   38MOL   H140 9094   2.518   7.055   7.534  1.5273  0.8024 -0.4870
   38MOL   H141 9095   2.270   6.992   7.371 -2.9647  1.5041  1.9566
   38MOL   H142 9096   2.267   7.005   7.537 -0.7478  0.3461 -0.9086
   38MOL   H143 9097   2.436   6.802   7.384 -0.3688 -1.3674  0.3653
   38MOL   H144 9098   2.437   6.820   7.558 -0.8162 -0.2290  0.1099
   38MOL   H145 9099   2.284   6.777   7.463  1.9018 -2.1451 -0.9169
   38MOL   C146 9100   2.415   7.223   7.444 -0.1521 -0.1756 -0.4803
   38MOL   C147 9101   2.357   7.280   7.575 -0.0127  0.8493 -0.2851
   38MOL   C148 9102   2.317   7.435   7.571 -0.7044  0.2668  0.6852
   38MOL   C149 9103   2.437   7.541   7.579  0.2860 -0.8079  0.0953
   38MOL   H150 9104   2.343   7.229   7.364 -1.5494  1.9219  0.8839
   38MOL   H151 9105   2.504   7.277   7.410  0.9778 -1.2487  0.7236
   38MOL   H152 9106   2.260   7.230   7.584  0.5076 -0.4892 -1.8499
   38MOL   H153 9107   2.242   7.466   7.643  0.6218 -0.6147  2.4813
   38MOL   H154 9108   2.271   7.459   7.475 -1.8795  2.1351  1.6810
   38MOL   H155 9109   2.473   7.558   7.680  0.8499  2.0046 -0.5400
   38MOL   H156 9110   2.528   7.510   7.528  0.1185 -1.0307 -0.0707
   38MOL   H157 9111   2.398   7.632   7.534 -0.1001 -1.2737 -0.5240
   38MOL   C158 9112   2.444   7.257   7.705  0.4032 -0.8185  0.9591
   38MOL   C159 9113   2.356   7.258   0.123 -0.3888  0.9095 -0.0396
   38MOL   C160 9114   2.447   7.210   0.238  0.0768 -0.0083  0.5966
   38MOL   C161 9115   2.389   7.257   0.369  0.2796  0.6303  0.6142
   38MOL   H162 9116   2.524   7.332   0.001 -1.2608  0.9825  2.8762
   38MOL   H163 9117   2.515   7.175   7.699  0.8400 -0.4196  0.5766
   38MOL   H164 9118   2.326   7.359   0.150 -1.0289  0.1610  2.1557
   38MOL   H165 9119   2.552   7.241   0.234 -0.4173  1.6456  0.0257
   38MOL   H166 9120   2.451   7.101   0.231  0.6732  0.0269  0.3539
   38MOL   H167 9121   2.282   7.239   0.378  0.5171  0.0762  2.5879
   38MOL   H168 9122   2.445   7.231   0.459  2.6924  0.9868 -0.7463
   38MOL   H169 9123   2.385   7.366   0.374  0.5443  0.6251  0.9458
   38MOL   C170 9124   2.238   7.153   0.128 -0.4018  0.2784 -0.4459
   38MOL   C171 9125   2.097   7.206   0.102  0.3882 -0.0049 -0.2964
   38MOL   C172 9126   2.053   7.300   0.218  0.5269  0.3450  0.1587
   38MOL   C173 9127   2.020   7.247   0.354  0.6297  0.3023 -0.2779
   38MOL   H174 9128   2.225   7.096   0.220  0.8500 -0.2054 -0.5604
   38MOL   H175 9129   2.265   7.078   0.054  0.3214  2.8873 -2.9257
   38MOL   H176 9130   2.106   7.270   0.014 -1.6114  1.1231  0.2763
   38MOL   H177 9131   1.964   7.354   0.185 -0.0457 -0.9313 -0.4004
   38MOL   H178 9132   2.109   7.393   0.229  0.0484  0.6042  0.4287
   38MOL   H179 9133   2.024   7.330   0.425  4.0954 -0.1927  0.1980
   38MOL   H180 9134   1.924   7.195   0.347  1.4512 -1.1851 -0.8273
   38MOL   H181 9135   2.091   7.170   0.383 -1.8917 -2.6731 -1.6920
   38MOL   C182 9136   1.993   7.103   0.071  0.2470  0.6309 -0.0952
   38MOL   C183 9137   1.884   7.164   7.689 -0.2562  0.4565  0.0125
   38MOL   C184 9138   1.750   7.091   0.018  0.2473 -0.0477 -0.2358
   38MOL   C185 9139   1.705   7.131   0.162  0.5720  0.7410 -0.0002
   38MOL   H186 9140   1.954   7.075   0.168  1.0925  1.8186  0.5989
   38MOL   H187 9141   2.033   7.011   0.028 -2.0997 -0.4156 -0.0951
   38MOL   H188 9142   1.878   7.270   0.009  2.0791  0.5381  0.3361
   38MOL   H189 9143   1.764   6.983   0.017 -0.6677 -0.1998  1.2123
   38MOL   H190 9144   1.677   7.104   7.645 -0.0674 -2.3310 -0.3518
   38MOL   H191 9145   1.761   7.078   0.239  0.5195 -1.6292 -1.5127
   38MOL   H192 9146   1.703   7.237   0.187 -0.5255  0.2589  2.0120
   38MOL   H193 9147   1.602   7.103   0.183  0.2902 -0.1809 -2.3674
   38MOL   C194 9148   1.918   7.157   7.540 -0.0648 -0.3960 -0.4043
   38MOL   C195 9149   1.867   7.271   7.452  0.0581 -0.4113  0.1026
   38MOL   C196 9150   1.878   7.231   7.302  0.0461 -0.2466 -0.9310
   38MOL   C197 9151   1.744   7.156   7.269 -0.1463  0.0351  0.2480
   38MOL   H198 9152   1.883   7.062   7.501  0.4527 -1.4804  1.7165
   38MOL   H199 9153   2.027   7.159   7.536  0.0254  0.8342  1.9175
   38MOL   H200 9154   1.767   7.299   7.484 -0.2057  1.1247 -1.9967
   38MOL   H201 9155   1.966   7.169   7.286 -0.1499 -0.4912 -1.0698
   38MOL   H202 9156   1.888   7.316   7.234 -2.0838  0.4996 -0.3539
   38MOL   H203 9157   1.661   7.224   7.287 -0.0279 -0.0094  0.9721
   38MOL   H204 9158   1.742   7.134   7.162  0.1123 -0.8526  0.4242
   38MOL   H205 9159   1.731   7.062   7.322 -0.5015  0.5447  1.0732
   38MOL   C206 9160   1.965   7.394   7.463  0.6528 -0.0335 -0.0037
   38MOL   C207 9161   1.907   7.538   7.433  0.2113 -0.0270 -0.3062
   38MOL   C208 9162   2.022   7.630   7.391  0.1402  0.8680 -0.0849
   38MOL   C209 9163   2.060   7.619   7.242  0.4134  0.4407 -0.7099
   38MOL   H210 9164   2.057   7.375   7.408  1.2855 -2.7495  1.8313
   38MOL   H211 9165   2.001   7.401   7.566  1.1863  2.6229 -0.3487
   38MOL   H212 9166   1.838   7.526   7.349 -0.9766 -3.1635  1.0285
   38MOL   H213 9167   2.098   7.615   7.468  0.1469  1.8046  0.0971
   38MOL   H214 9168   1.984   0.026   7.403 -0.5893  0.2273  3.4817
   38MOL   H215 9169   1.971   7.638   7.182 -0.7338 -0.4898  0.6732
   38MOL   H216 9170   2.141   7.684   7.211 -1.4804  2.5519 -1.3669
   38MOL   H217 9171   2.087   7.515   7.226  0.7961  0.3175  0.7193
   38MOL   C218 9172   1.822   7.587   7.555  0.6920 -0.4382 -0.4909
   38MOL   C219 9173   1.693   7.669   7.524  0.2142 -0.2488  0.2538
   38MOL   C220 9174   1.738   0.106   7.484  0.7358 -0.1884 -1.0978
   38MOL   C221 9175   1.630   0.206   7.464 -0.6039  0.6180  0.0368
   38MOL   H222 9176   1.891   7.633   7.626  0.0351 -1.7897  1.0380
   38MOL   H223 9177   1.800   7.498   7.613 -0.4419  1.3635  1.9408
   38MOL   H224 9178   1.659   7.620   7.433 -0.8815  1.2766 -0.1880
   38MOL   H225 9179   1.782   0.110   7.384  1.5652 -0.9509 -0.7685
   38MOL   H226 9180   1.805   0.154   7.556  0.8332 -1.1753 -0.5186
   38MOL   H227 9181   1.555   0.159   7.401 -0.7145  0.0156  0.6121
   38MOL   H228 9182   1.580   0.241   7.554 -1.0970  0.1412 -0.0455
   38MOL   H229 9183   1.667   0.294   7.412 -1.4282  0.4923 -0.7711
   38MOL   C230 9184   1.581   7.667   7.637 -0.3565 -0.0965 -0.3331
   38MOL   C231 9185   1.536   7.531   7.670  0.1931 -0.0291 -0.3677
   38MOL   C232 9186   1.414   7.529   0.058 -0.6400 -0.1106 -0.0356
   38MOL   C233 9187   1.384   7.386   0.107  0.1937 -0.4080  0.0047
   38MOL   H234 9188   1.497   0.024   7.605 -0.5675 -0.0034  0.4110
   38MOL   H235 9189   1.628   0.003   0.020  2.6991 -0.1429 -1.8731
   38MOL   H236 9190   1.524   7.477   7.575 -2.8573  1.3380 -0.8385
   38MOL   H237 9191   1.330   7.574   0.005 -0.4825 -1.4217 -1.4353
   38MOL   H238 9192   1.437   7.593   0.143  2.8816 -0.0996 -0.8924
   38MOL   H239 9193   1.287   7.386   0.157 -0.4913 -1.0241 -1.3121
   38MOL   H240 9194   1.384   7.310   0.029  1.4251 -0.6727  0.2456
   38MOL   H241 9195   1.467   7.359   0.173 -0.0645 -0.7074  0.2108
   38MOL   H242 9196   1.615   7.476   0.015  1.5084  0.6289 -1.6735
   39MOL     C1 9197   6.414   3.512   7.272 -0.2694 -0.4265 -0.9068
   39MOL     C2 9198   6.539   3.514   7.367  1.4961  0.1576  0.7461
   39MOL     C3 9199   6.487   3.476   7.504  0.5345 -0.1902  0.4003
   39MOL     C4 9200   6.395   3.575   7.585 -0.9221  0.3188  0.3738
   39MOL     H5 9201   6.438   3.534   7.168  0.6867  1.9037 -0.2319
   39MOL     H6 9202   6.363   3.415   7.273 -1.5912  0.2575  0.2862
   39MOL     H7 9203   6.614   3.443   7.332  0.8410 -0.4154  0.4896
   39MOL     H8 9204   6.575   3.461   7.566  1.1152  0.5746 -0.2475
   39MOL     H9 9205   6.447   3.374   7.507  1.2135 -0.5234 -1.1513
   39MOL    H10 9206   6.437   3.675   7.593  1.7312 -0.8779  2.2605
   39MOL    H11 9207   6.308   3.592   7.521 -2.2134 -2.5503  1.3009
   39MOL    H12 9208   6.366   3.552   7.688  0.7318 -0.4609  0.6650
   39MOL    H13 9209   6.341   3.589   7.299  0.3151 -0.0818 -0.3207
   39MOL    C14 9210   6.617   3.646   7.374  0.9629 -0.0608  0.1482
   39MOL    C15 9211   6.749   3.639   7.298 -0.4852  0.9591 -0.4965
   39MOL    C16 9212   6.725   3.617   7.144  0.3865 -0.2916  0.1408
   39MOL    C17 9213   6.846   3.652   7.056  0.3356 -0.0765  0.8108
   39MOL    H18 9214   6.639   3.660   7.480  1.1727 -2.9281  0.5318
   39MOL    H19 9215   6.546   3.722   7.342  1.7722 -0.0749 -1.7206
   39MOL    H20 9216   6.791   3.739   7.309  2.7487 -0.5136  1.3601
   39MOL    H21 9217   6.633   3.670   7.121  0.0086 -1.3419 -0.8465
   39MOL    H22 9218   6.705   3.512   7.122 -0.4311 -0.1273  0.1180
   39MOL    H23 9219   6.818   3.684   6.956  2.3406  0.8753  0.5360
   39MOL    H24 9220   6.910   3.731   7.096  1.1695  0.0208 -0.6747
   39MOL    H25 9221   6.914   3.567   7.052  1.2476  0.6408  0.9601
   39MOL    C26 9222   6.840   3.525   7.361  0.9105 -0.8593  0.0154
   39MOL    C27 9223   6.991   3.560   7.374 -0.4511 -0.6047 -1.1750
   39MOL    C28 9224   7.089   3.458   7.309  0.0364 -0.2318  0.1910
   39MOL    C29 9225   7.239   3.453   7.343 -0.5556  0.0853  0.4283
   39MOL    H30 9226   6.835   3.438   7.296 -3.4786  0.5129 -1.6730
   39MOL    H31 9227   6.806   3.495   7.460 -2.0574 -0.6417 -0.8754
   39MOL    H32 9228   6.996   3.647   7.309  0.0295 -1.3555 -2.1777
   39MOL    H33 9229   7.084   3.463   7.200  2.0439 -0.3330  0.0819
   39MOL    H34 9230   7.054   3.357   7.329 -0.1970 -0.7255 -2.5915
   39MOL    H35 9231   7.269   3.552   7.311 -0.3384 -1.1356 -3.3460
   39MOL    H36 9232   7.270   3.441   7.447  0.5628  0.4535  0.1447
   39MOL    H37 9233   7.299   3.383   7.285  1.1071  0.4944  1.6101
   39MOL    C38 9234   7.037   3.593   7.518  0.3758  0.4409 -0.4694
   39MOL    C39 9235   6.974   3.717   7.573  0.6566  0.0959  0.1032
   39MOL    C40 9236   7.031   3.846   7.521 -0.3785 -0.1887  0.0074
   39MOL    C41 9237   7.174   3.874   7.553  0.0515  0.3297  0.3892
   39MOL    H42 9238   7.145   3.597   7.531  0.3953 -1.6822  0.2232
   39MOL    H43 9239   7.015   3.502   7.574  1.8492  1.8524  2.4836
   39MOL    H44 9240   6.867   3.712   7.550  0.2596  1.6129  1.5282
   39MOL    H45 9241   6.974   3.934   7.550 -0.4137  0.5001 -2.1083
   39MOL    H46 9242   7.018   3.843   7.413  0.3851  0.3874 -0.1095
   39MOL    H47 9243   7.193   3.957   7.484  0.3906  0.2478  0.3842
   39MOL    H48 9244   7.195   3.882   7.659  0.9127 -4.9139  0.7358
   39MOL    H49 9245   7.243   3.795   7.523  2.1189  3.5383 -3.8987
   39MOL    C50 9246   6.980   3.713   0.023 -0.2870  0.5478 -0.5971
   39MOL    C51 9247   6.895   3.611   0.098 -0.6874  0.1802 -0.4370
   39MOL    C52 9248   6.772   3.690   0.159  0.1700 -0.0083 -0.0688
   39MOL    C53 9249   6.661   3.732   0.061 -0.4754 -0.2221  0.1395
   39MOL    H54 9250   6.960   3.812   0.064 -0.6861  0.7335 -1.2203
   39MOL    H55 9251   7.085   3.699   0.045 -0.2908 -0.9288 -1.4749
   39MOL    H56 9252   6.852   3.539   0.028 -0.8433 -0.3194  0.1687
   39MOL    H57 9253   6.811   3.769   0.222 -2.4613  0.4358  1.0391
   39MOL    H58 9254   6.723   3.623   0.229 -1.5744 -0.0198 -1.2759
   39MOL    H59 9255   6.601   3.651   0.021 -1.4722  0.3595  0.4255
   39MOL    H60 9256   6.600   3.808   0.111 -0.1712  0.8042 -1.0038
   39MOL    H61 9257   6.700   3.784   7.679 -0.2326 -0.8789 -0.1367
   39MOL    C62 9258   6.973   3.543   0.218 -0.2276  0.2339  0.1424
   39MOL    C63 9259   7.058   3.424   0.160 -0.5152 -0.3103  0.2267
   39MOL    C64 9260   6.973   3.301   0.127  0.4360 -0.1031 -0.1602
   39MOL    C65 9261   7.046   3.215   0.018 -0.2225  0.9288 -0.5035
   39MOL    H66 9262   6.893   3.521   0.289  1.4137 -0.6912  1.7323
   39MOL    H67 9263   7.045   3.607   0.269 -0.8676  2.5233 -1.7415
   39MOL    H68 9264   7.114   3.456   0.073 -1.6045  0.3774 -0.2303
   39MOL    H69 9265   6.872   3.331   0.100 -0.4061  0.7135  3.6036
   39MOL    H70 9266   6.962   3.250   0.223  2.3106  0.4343  0.3536
   39MOL    H71 9267   6.984   3.128   0.000 -0.1168  0.6979  0.2302
   39MOL    H72 9268   7.049   3.254   7.622  0.4418  3.8678  0.5814
   39MOL    H73 9269   7.148   3.186   0.042 -0.8602 -2.0080 -1.1779
   39MOL    C74 9270   7.179   3.402   0.254 -0.4534  0.1689  0.2577
   39MOL    C75 9271   7.294   3.509   0.246  0.4013  0.1754  0.2333
   39MOL    C76 9272   7.412   3.463   0.161 -0.6861  0.0558  1.3034
   39MOL    C77 9273   7.387   3.466   0.007  1.2716  0.3614  0.0177
   39MOL    H78 9274   7.225   3.305   0.235 -0.4020  0.1466  0.4932
   39MOL    H79 9275   7.130   3.390   0.351 -0.2892  0.0355  0.3242
   39MOL    H80 9276   7.260   3.602   0.203 -1.2833 -0.5334 -0.0033
   39MOL    H81 9277   7.444   3.365   0.196 -0.4730 -0.3461  0.0312
   39MOL    H82 9278   7.497   3.528   0.182 -0.4763  0.2348 -0.0280
   39MOL    H83 9279   7.307   3.397   7.685 -1.2939  2.3322  2.2816
   39MOL    H84 9280   7.368   3.570   7.684  0.4962 -0.0066 -0.8555
   39MOL    H85 9281   7.478   3.418   7.678  0.8802 -2.0378  2.2139
   39MOL    C86 9282   7.332   3.538   0.394 -0.6217 -0.0932 -0.3080
   39MOL    C87 9283   7.417   3.664   0.414 -0.3030 -0.6489  0.4060
   39MOL    C88 9284   7.535   3.640   0.502  0.0242 -0.1376 -0.0132
   39MOL    C89 9285   7.512   3.628   0.655 -0.2231 -0.2969  0.1158
   39MOL    H90 9286   7.389   3.459   0.442 -0.6139 -0.0650 -0.2711
   39MOL    H91 9287   7.244   3.535   0.459 -1.1484  0.1068 -1.0118
   39MOL    H92 9288   7.473   3.693   0.325  1.5249  1.8634  2.3191
   39MOL    H93 9289   7.607   3.720   0.487  0.6252 -0.6698  0.0584
   39MOL    H94 9290   7.588   3.551   0.467 -0.9544 -0.8221  0.2158
   39MOL    H95 9291   7.412   3.588   0.672 -0.1347 -0.1834  0.9361
   39MOL    H96 9292   7.576   3.555   0.706  2.0938  3.4089  2.7499
   39MOL    H97 9293   7.522   3.727   0.699  0.0428 -0.6085  0.7682
   39MOL    C98 9294   7.344   3.796   0.449  0.3409 -0.3254 -0.1474
   39MOL    C99 9295   7.250   3.859   0.347  0.0016  0.0100  0.5863
   39MOL   C100 9296   7.335   3.914   0.227 -0.0190 -0.1796  0.5377
   39MOL   C101 9297   7.466   3.991   0.266 -0.8102 -0.2988  0.7834
   39MOL   H102 9298   7.409   3.865   0.503  0.9047  0.6275 -2.0102
   39MOL   H103 9299   7.274   3.761   0.525  0.4575 -3.7850 -1.5259
   39MOL   H104 9300   7.188   3.780   0.304  0.1206  0.5939 -0.7041
   39MOL   H105 9301   7.280   3.976   0.157 -1.6552 -0.1575  1.7956
   39MOL   H106 9302   7.368   3.831   0.164  0.5388 -0.7402  1.5337
   39MOL   H107 9303   7.517   4.027   0.176  0.9253  0.2671  1.9722
   39MOL   H108 9304   7.428   4.081   0.315 -3.1375 -0.4173 -0.7517
   39MOL   H109 9305   7.532   3.939   0.335  1.3498 -0.2529 -1.1449
   39MOL   C110 9306   7.150   3.955   0.399  0.1782  0.2507 -0.0730
   39MOL   C111 9307   7.067   3.917   0.527  0.4589  1.0119  0.2973
   39MOL   C112 9308   6.968   3.800   0.498  0.2734  0.6144 -0.1974
   39MOL   C113 9309   6.881   3.765   0.616 -0.0091 -0.3300 -0.2934
   39MOL   H114 9310   7.090   3.986   0.313  2.0131  1.4774 -0.9569
   39MOL   H115 9311   7.208   4.043   0.429  0.0456  0.9192 -1.7046
   39MOL   H116 9312   7.120   3.872   0.611 -0.3959 -0.3405  0.1240
   39MOL   H117 9313   7.018   3.709   0.466 -0.3910  0.0537  0.3639
   39MOL   H118 9314   6.912   3.836   0.412 -0.2928 -0.7518 -0.4032
   39MOL   H119 9315   6.821   3.675   0.601 -0.9699  0.1273  0.7227
   39MOL   H120 9316   6.949   3.727   0.692 -0.7709 -0.8207  0.1559
   39MOL   H121 9317   6.810   3.842   0.646 -2.6349 -2.6307 -0.3849
   39MOL   C122 9318   6.997   4.050   0.568 -0.3559 -0.8722 -1.0690
   39MOL   C123 9319   7.082   4.158   0.641 -0.4136 -0.0534  0.1854
   39MOL   C124 9320   7.141   4.103   0.778  0.8091 -0.1119 -0.1534
   39MOL   C125 9321   7.031   4.070   0.886 -0.1510  0.0889  0.3772
   39MOL   H126 9322   6.914   4.035   0.637 -0.0521  0.3361 -0.4335
   39MOL   H127 9323   6.942   4.094   0.485  0.7772  2.2393 -0.2167
   39MOL   H128 9324   7.171   4.187   0.586 -0.5637  0.5753  0.2714
   39MOL   H129 9325   7.205   4.177   0.827 -0.5774  1.3146 -0.4525
   39MOL   H130 9326   7.205   4.018   0.757 -0.5081 -1.3291  0.6584
   39MOL   H131 9327   6.986   4.162   0.925  0.1408  0.9873 -1.3817
   39MOL   H132 9328   6.949   4.007   0.850  0.3557  0.8588 -2.2242
   39MOL   H133 9329   7.075   4.020   0.972 -0.3088 -1.1815 -0.2726
   39MOL   C134 9330   7.000   4.287   0.655  0.8293  0.2730 -0.3068
   39MOL   C135 9331   7.076   4.426   0.659 -0.4222 -0.0249 -0.3129
   39MOL   C136 9332   6.982   4.538   0.712  0.0878 -0.1200 -0.3669
   39MOL   C137 9333   6.973   4.556   0.854  0.2806  0.4992  0.3078
   39MOL   H138 9334   6.929   4.269   0.736  1.2195  2.5443  0.5625
   39MOL   H139 9335   6.931   4.300   0.571 -0.4654  1.4143  0.8982
   39MOL   H140 9336   7.160   4.420   0.728  0.6978 -0.2997 -1.6889
   39MOL   H141 9337   6.880   4.535   0.673 -0.7475 -1.9513  1.8903
   39MOL   H142 9338   7.014   4.636   0.675  1.2019 -1.2323 -2.4622
   39MOL   H143 9339   6.965   4.465   0.914 -2.7947  0.6055  0.1324
   39MOL   H144 9340   7.069   4.590   0.891  1.2352 -0.7934 -0.9247
   39MOL   H145 9341   6.896   4.622   0.893 -0.2342 -1.3035  2.5022
   39MOL   C146 9342   7.139   4.461   0.517 -0.8647  0.5826 -0.0505
   39MOL   C147 9343   7.254   4.561   0.526 -0.5456  0.6128 -0.1012
   39MOL   C148 9344   7.250   4.657   0.405 -0.0584 -0.2474  0.5450
   39MOL   C149 9345   7.232   4.593   0.269 -0.3664  0.3146  0.6728
   39MOL   H150 9346   7.057   4.478   0.448 -1.5283 -1.0463  0.3294
   39MOL   H151 9347   7.181   4.371   0.473 -2.4509 -0.8967  1.4132
   39MOL   H152 9348   7.234   4.628   0.609 -1.9175  0.2092 -0.0789
   39MOL   H153 9349   7.336   4.723   0.401 -0.9169  0.8128 -0.7461
   39MOL   H154 9350   7.166   4.726   0.416 -0.5076 -0.6477 -0.3403
   39MOL   H155 9351   7.250   4.654   0.181  0.4651 -1.7822 -0.6561
   39MOL   H156 9352   7.301   4.509   0.259 -0.0826  0.4886  1.1857
   39MOL   H157 9353   7.132   4.559   0.240  0.5970 -0.9967 -1.2725
   39MOL   C158 9354   7.393   4.484   0.546 -0.5203 -0.3785 -0.1972
   39MOL   C159 9355   7.435   4.413   0.679  0.2343 -0.2522 -0.0111
   39MOL   C160 9356   7.427   4.512   0.801  0.1993  0.2157 -1.1138
   39MOL   C161 9357   7.518   4.641   0.799 -0.2677  0.2044 -0.1647
   39MOL   H162 9358   7.470   4.555   0.516 -1.6861  0.4020 -1.4030
   39MOL   H163 9359   7.396   4.402   0.473  0.9209 -0.3418 -0.1990
   39MOL   H164 9360   7.372   4.328   0.705  0.7408  0.0074  2.2417
   39MOL   H165 9361   7.445   4.455   0.892  0.7464 -0.0317 -1.3760
   39MOL   H166 9362   7.324   4.546   0.809  0.1811  0.1054 -0.9099
   39MOL   H167 9363   7.500   4.702   0.710  0.5205  1.1852  0.3374
   39MOL   H168 9364   7.507   4.702   0.889 -2.3668  0.8695 -0.8421
   39MOL   H169 9365   7.624   4.613   0.795 -0.6270 -0.9716 -2.2470
   39MOL   C170 9366   7.585   4.349   0.675 -0.2388 -0.4438  0.1350
   39MOL   C171 9367   7.614   4.242   0.573 -0.7995  0.7554  0.4848
   39MOL   C172 9368   7.525   4.115   0.589  0.7903  0.5330 -0.7294
   39MOL   C173 9369   7.548   4.034   0.716 -0.2858 -0.3092 -0.0617
   39MOL   H174 9370   7.606   4.294   0.767 -0.5121 -0.9373 -0.0949
   39MOL   H175 9371   7.669   4.419   0.671 -0.4469 -0.2734 -1.4008
   39MOL   H176 9372   7.584   4.273   0.473  2.5144 -1.4801 -1.2852
   39MOL   H177 9373   7.542   4.043   0.509 -1.7444  1.6298 -2.2832
   39MOL   H178 9374   7.419   4.136   0.577  0.2180 -2.7560 -2.0494
   39MOL   H179 9375   7.502   4.088   0.799 -0.6753  0.0245 -0.4950
   39MOL   H180 9376   7.501   3.936   0.711  0.6294 -0.7549 -0.1803
   39MOL   H181 9377   7.652   4.021   0.745 -0.3482  0.1649  0.3901
   39MOL   C182 9378   0.058   4.198   0.549 -0.1382  1.0915 -0.3788
   39MOL   C183 9379   0.117   4.249   0.413 -0.1543  0.2824  0.7966
   39MOL   C184 9380   0.105   4.403   0.391  0.0690  0.3551 -0.0828
   39MOL   C185 9381   0.209   4.470   0.291  0.2711 -0.2853 -0.0720
   39MOL   H186 9382   0.062   4.090   0.551  0.2617  1.0923 -1.2625
   39MOL   H187 9383   0.124   4.237   0.627  0.3743  0.2146 -0.3728
   39MOL   H188 9384   0.223   4.226   0.415 -0.1343  0.0412 -1.7172
   39MOL   H189 9385   0.112   4.442   0.493 -1.4464 -0.8783  0.5225
   39MOL   H190 9386   0.006   4.423   0.349 -0.2590 -0.8777  0.0885
   39MOL   H191 9387   0.303   4.447   0.341  0.0369 -1.5552 -0.1900
   39MOL   H192 9388   0.214   4.420   0.194  1.6363  0.6037 -0.4673
   39MOL   H193 9389   0.197   4.578   0.292 -0.0335 -0.2929 -1.7122
   39MOL   C194 9390   0.071   4.167   0.293  0.0427 -0.4278  0.1618
   39MOL   C195 9391   0.179   4.139   0.189  0.3418 -0.6240  1.2180
   39MOL   C196 9392   0.125   4.173   0.042  0.7970  0.2116  0.1823
   39MOL   C197 9393   0.238   4.210   7.652 -0.7109  0.1983 -0.3680
   39MOL   H198 9394   7.702   4.232   0.249  0.3141  1.0055  1.7173
   39MOL   H199 9395   0.018   4.081   0.334 -0.9931  0.4527  0.7048
   39MOL   H200 9396   0.269   4.198   0.201 -1.3287  1.8187  2.0647
   39MOL   H201 9397   0.060   4.261   0.041  0.7025  0.1395 -0.1247
   39MOL   H202 9398   0.069   4.090   7.705 -0.9685  1.8735 -0.8379
   39MOL   H203 9399   0.210   4.256   7.557  1.7206  1.3110 -0.5877
   39MOL   H204 9400   0.300   4.290   7.694  0.2565 -3.1954  5.0600
   39MOL   H205 9401   0.308   4.129   7.633  0.1190  0.8189 -0.0303
   39MOL   C206 9402   0.243   3.996   0.201 -0.3482 -0.2329 -0.6928
   39MOL   C207 9403   0.329   3.974   0.331 -0.3092 -0.9525  0.2004
   39MOL   C208 9404   0.459   4.057   0.338 -0.4213 -0.1698 -0.1148
   39MOL   C209 9405   0.569   4.012   0.244  0.5345 -0.6365  0.2465
   39MOL   H210 9406   0.311   3.976   0.119 -1.0563  0.7801 -1.5334
   39MOL   H211 9407   0.170   3.915   0.195 -0.8800  0.2847 -1.1901
   39MOL   H212 9408   0.272   4.010   0.417 -0.7971 -2.4450  0.5209
   39MOL   H213 9409   0.504   4.059   0.437 -0.6862 -3.8375  0.1555
   39MOL   H214 9410   0.441   4.160   0.309  0.5302  0.4286  1.3656
   39MOL   H215 9411   0.596   3.907   0.244  0.3397 -0.6898  0.8491
   39MOL   H216 9412   0.525   4.034   0.146  2.4763  2.2725 -0.0521
   39MOL   H217 9413   0.654   4.080   0.251  0.4697 -0.7556  2.6451
   39MOL   C218 9414   0.360   3.822   0.358  0.0509  0.4187 -0.2808
   39MOL   C219 9415   0.244   3.755   0.433 -0.5219  0.9553  0.0785
   39MOL   C220 9416   0.263   3.799   0.589  0.1435 -0.0838 -0.3065
   39MOL   C221 9417   0.148   3.761   0.684 -0.5498  0.0201  0.4884
   39MOL   H222 9418   0.455   3.799   0.406 -1.0498  0.6424  2.0517
   39MOL   H223 9419   0.371   3.778   0.258 -2.5322 -0.0095 -0.3989
   39MOL   H224 9420   0.148   3.799   0.405 -1.1662 -0.6567 -0.3293
   39MOL   H225 9421   0.284   3.905   0.603 -0.2299  0.1132 -1.2012
   39MOL   H226 9422   0.348   3.742   0.626 -0.8614  0.0004  2.2043
   39MOL   H227 9423   0.162   3.787   0.789  0.6141 -1.0142  0.6110
   39MOL   H228 9424   0.052   3.806   0.660 -0.0209  0.7377 -0.3104
   39MOL   H229 9425   0.135   3.653   0.686 -1.6050  0.1575  1.4383
   39MOL   C230 9426   0.254   3.596   0.413  0.0497  0.1701 -0.5310
   39MOL   C231 9427   0.156   3.538   0.308 -0.2887 -0.1198 -0.2127
   39MOL   C232 9428   0.195   3.390   0.278  0.5139 -0.3814 -0.0904
   39MOL   C233 9429   0.349   3.370   0.242  0.4603 -0.5563  0.8463
   39MOL   H234 9430   0.227   3.538   0.501  1.3710 -1.1458 -0.9819
   39MOL   H235 9431   0.358   3.574   0.389 -0.2139 -0.2823 -1.2498
   39MOL   H236 9432   0.053   3.538   0.341 -0.2095  0.4391  0.0301
   39MOL   H237 9433   0.143   3.368   0.185  0.7495 -2.8306  0.3262
   39MOL   H238 9434   0.150   3.327   0.354  2.2267 -0.7203  0.6558
   39MOL   H239 9435   0.405   3.380   0.335  0.4526 -0.7427  0.8718
   39MOL   H240 9436   0.361   3.272   0.195  1.4459  0.4419 -1.0488
   39MOL   H241 9437   0.385   3.442   0.168  0.1120  1.8357  2.9316
   39MOL   H242 9438   0.166   3.592   0.214  0.9244 -1.3880 -0.8372
   40MOL     C1 9439   2.373   5.313   3.501  0.3903  0.6946  0.2318
   40MOL     C2 9440   2.520   5.317   3.547  0.4188  0.4701 -0.7217
   40MOL     C3 9441   2.548   5.438   3.649 -0.4780  0.5083  0.9975
   40MOL     C4 9442   2.529   5.584   3.589 -0.2958 -0.0901 -0.1635
   40MOL     H5 9443   2.308   5.286   3.585 -0.1121  0.6671 -0.1622
   40MOL     H6 9444   2.334   5.409   3.466  0.8799  0.9804  0.4511
   40MOL     H7 9445   2.536   5.227   3.605  0.5314  0.5220 -0.6726
   40MOL     H8 9446   2.649   5.437   3.690  0.4017  0.5749 -1.1007
   40MOL     H9 9447   2.475   5.436   3.730 -1.2388 -0.5100  0.2965
   40MOL    H10 9448   2.564   5.662   3.657  0.7437  0.6459 -1.5251
   40MOL    H11 9449   2.555   5.600   3.485 -1.2479  2.2680 -0.0809
   40MOL    H12 9450   2.421   5.598   3.587 -0.3991 -0.9142 -0.5359
   40MOL    H13 9451   2.359   5.235   3.426 -0.2928 -1.8892  2.9668
   40MOL    C14 9452   2.621   5.318   3.432 -0.6619 -0.6637 -0.7512
   40MOL    C15 9453   2.649   5.175   3.376  0.1743  0.0034 -0.3564
   40MOL    C16 9454   2.761   5.092   3.450  0.4634  0.5553 -0.5050
   40MOL    C17 9455   2.896   5.154   3.450 -0.5979 -0.1470 -0.1890
   40MOL    H18 9456   2.713   5.368   3.461 -0.0482 -2.3375  0.2578
   40MOL    H19 9457   2.575   5.389   3.363  0.5096  2.0567  1.1487
   40MOL    H20 9458   2.554   5.122   3.373 -0.6096  1.3429  0.0555
   40MOL    H21 9459   2.763   4.989   3.416  0.8010  0.5598 -0.4948
   40MOL    H22 9460   2.723   5.095   3.552 -2.1992  1.5029 -1.4624
   40MOL    H23 9461   2.948   5.126   3.358 -0.3875 -1.7344  0.3963
   40MOL    H24 9462   2.905   5.262   3.451  2.5562 -0.3163 -2.4948
   40MOL    H25 9463   2.954   5.108   3.530  0.6886 -0.0238 -1.0293
   40MOL    C26 9464   2.700   5.181   3.226  0.2097 -1.3704  0.2853
   40MOL    C27 9465   2.591   5.236   3.127 -0.2547  0.9819  0.4077
   40MOL    C28 9466   2.496   5.117   3.090  0.7415  0.2237 -0.3913
   40MOL    C29 9467   2.561   4.993   3.022  0.1258  0.8534  0.9332
   40MOL    H30 9468   2.745   5.087   3.194  1.0674 -1.3613  1.4133
   40MOL    H31 9469   2.784   5.251   3.230 -0.4570 -0.5837  0.6894
   40MOL    H32 9470   2.519   5.292   3.186 -1.8588 -3.4967  2.9195
   40MOL    H33 9471   2.415   5.155   3.027  0.3129  0.5821  0.3721
   40MOL    H34 9472   2.452   5.081   3.183  1.7635  1.1512  0.4665
   40MOL    H35 9473   2.636   4.935   3.077 -0.6281  0.3718  1.4646
   40MOL    H36 9474   2.493   4.916   2.986  0.4932  1.3043 -0.7770
   40MOL    H37 9475   2.604   5.026   2.928 -0.0057  0.6479  0.8002
   40MOL    C38 9476   2.653   5.316   3.006 -0.2305  0.5112  0.2865
   40MOL    C39 9477   2.550   5.407   2.931  0.0422 -0.3838  0.0342
   40MOL    C40 9478   2.625   5.465   2.814 -0.2781  0.2320 -0.4036
   40MOL    C41 9479   2.674   5.362   2.709 -0.5843 -0.0129  1.0209
   40MOL    H42 9480   2.708   5.246   2.944 -1.0404 -0.8527  1.0885
   40MOL    H43 9481   2.727   5.386   3.045  2.2758 -2.3881  0.9093
   40MOL    H44 9482   2.476   5.337   2.891 -0.9612  0.0829  1.0512
   40MOL    H45 9483   2.704   5.529   2.854 -0.7194  1.2444 -1.1273
   40MOL    H46 9484   2.564   5.533   2.756 -0.0076  0.0957 -0.8539
   40MOL    H47 9485   2.783   5.369   2.711 -0.4166 -1.4639 -1.1311
   40MOL    H48 9486   2.635   5.261   2.713  1.4886 -0.9171 -0.3304
   40MOL    H49 9487   2.665   5.394   2.605  1.0543 -1.2039  0.4888
   40MOL    C50 9488   2.481   5.520   3.013  0.1069 -0.1644  0.4412
   40MOL    C51 9489   2.365   5.598   2.946  0.4778 -0.8835  0.0080
   40MOL    C52 9490   2.311   5.698   3.045 -0.6273  0.6394 -0.2291
   40MOL    C53 9491   2.296   5.656   3.193 -0.7224  0.5645  0.1561
   40MOL    H54 9492   2.556   5.588   3.053 -0.4650  1.0801 -0.5476
   40MOL    H55 9493   2.443   5.464   3.098 -0.9315  0.7704  0.6092
   40MOL    H56 9494   2.407   5.652   2.862  0.1239 -0.8746 -0.1632
   40MOL    H57 9495   2.214   5.729   3.003 -0.3785  1.4798 -0.2043
   40MOL    H58 9496   2.363   5.793   3.032 -0.0671  0.0711 -2.3804
   40MOL    H59 9497   2.386   5.625   3.247  0.2036 -0.3787 -1.8717
   40MOL    H60 9498   2.250   5.737   3.249 -2.2544  0.3124 -0.6947
   40MOL    H61 9499   2.241   5.562   3.205  2.8360 -1.4317  1.7555
   40MOL    C62 9500   2.265   5.489   2.893 -0.0706 -0.5573 -0.1480
   40MOL    C63 9501   2.245   5.482   2.738  0.3223  0.0838 -0.1546
   40MOL    C64 9502   2.194   5.616   2.679  0.1200  0.5883 -0.2215
   40MOL    C65 9503   2.255   5.649   2.540 -0.1441  0.4736  0.0385
   40MOL    H66 9504   2.165   5.507   2.931 -0.7047 -2.9809 -0.6289
   40MOL    H67 9505   2.272   5.390   2.938  1.1933 -0.0370  0.8445
   40MOL    H68 9506   2.341   5.454   2.695  0.0875 -1.2275  0.1717
   40MOL    H69 9507   2.219   5.691   2.753  1.5156 -1.8476  1.8442
   40MOL    H70 9508   2.086   5.610   2.691  0.4619 -3.6740  1.4735
   40MOL    H71 9509   2.233   5.749   2.504 -1.6339  0.1573  0.0510
   40MOL    H72 9510   2.364   5.639   2.537 -0.3682 -3.3773  1.6770
   40MOL    H73 9511   2.214   5.574   2.472 -3.5703  1.8819  0.4478
   40MOL    C74 9512   2.150   5.368   2.680 -0.0898  0.1069  0.2061
   40MOL    C75 9513   2.200   5.222   2.693  0.8213  0.1208 -0.5160
   40MOL    C76 9514   2.322   5.184   2.613 -0.5221 -0.2888 -0.1237
   40MOL    C77 9515   2.398   5.061   2.673  0.4325 -0.0521 -0.0291
   40MOL    H78 9516   2.122   5.376   2.575 -2.5733 -0.0222  0.8278
   40MOL    H79 9517   2.054   5.364   2.730 -1.3732 -2.9233 -2.3039
   40MOL    H80 9518   2.221   5.212   2.800 -4.2968  0.6219  0.6664
   40MOL    H81 9519   2.397   5.264   2.611 -0.2902 -0.4958  0.2389
   40MOL    H82 9520   2.290   5.169   2.510  1.6177  0.1059 -0.8742
   40MOL    H83 9521   2.336   4.975   2.699  1.1677 -0.0948  1.6324
   40MOL    H84 9522   2.472   5.024   2.602  0.2484 -1.8304  0.6839
   40MOL    H85 9523   2.447   5.100   2.762  0.7960  2.0294 -1.1073
   40MOL    C86 9524   2.091   5.121   2.668 -0.1006  0.1134 -0.2791
   40MOL    C87 9525   1.992   5.075   2.781 -0.7028 -0.3504 -0.5785
   40MOL    C88 9526   1.886   5.171   2.835 -0.3694  0.2392  0.7439
   40MOL    C89 9527   1.777   5.093   2.917 -0.5194  0.1587 -0.3718
   40MOL    H90 9528   2.130   5.037   2.612 -0.5033 -0.1990 -0.0958
   40MOL    H91 9529   2.024   5.160   2.591 -0.1661  1.4491  0.4229
   40MOL    H92 9530   1.933   5.000   2.728 -1.2344  0.8970 -1.7634
   40MOL    H93 9531   1.841   5.231   2.756  0.5272  1.6216  1.2615
   40MOL    H94 9532   1.931   5.243   2.904 -1.8030  2.6714 -0.7782
   40MOL    H95 9533   1.714   5.160   2.975  1.1750 -0.6008  2.4559
   40MOL    H96 9534   1.714   5.037   2.848  1.7501 -2.4569 -0.4187
   40MOL    H97 9535   1.817   5.014   2.981  0.5084 -0.1063 -1.3143
   40MOL    C98 9536   2.072   5.007   2.899  0.7733  1.0805  0.0816
   40MOL    C99 9537   2.047   4.851   2.918 -0.1018 -0.1997  0.1812
   40MOL   C100 9538   2.063   4.820   3.063  0.0618  0.3685  0.4595
   40MOL   C101 9539   2.193   4.871   3.130 -0.7604  0.1929 -0.1318
   40MOL   H102 9540   2.051   5.058   2.993  2.3624  0.4054  0.8186
   40MOL   H103 9541   2.179   5.016   2.886  1.5380 -3.6588  2.1537
   40MOL   H104 9542   1.944   4.830   2.890  0.0048  1.2344 -1.3342
   40MOL   H105 9543   2.051   4.712   3.077  0.8124  0.1280 -0.6449
   40MOL   H106 9544   1.986   4.858   3.130  0.9606  0.5374  1.3909
   40MOL   H107 9545   2.204   4.979   3.142  1.1860 -0.2326  2.2751
   40MOL   H108 9546   2.196   4.829   3.230  1.4784 -1.3170 -0.7745
   40MOL   H109 9547   2.286   4.843   3.079  0.9604  1.2780  2.3082
   40MOL   C110 9548   2.122   4.764   2.817  0.2668  0.2639 -0.1788
   40MOL   C111 9549   2.118   4.611   2.828  0.1354  0.2499 -0.0585
   40MOL   C112 9550   2.215   4.540   2.726  0.5092 -0.1655  0.1577
   40MOL   C113 9551   2.175   4.568   2.584  0.1527 -0.6454  0.1224
   40MOL   H114 9552   2.228   4.788   2.820 -0.1161  2.1088 -0.7658
   40MOL   H115 9553   2.072   4.787   2.723 -0.8066  0.7269  0.5023
   40MOL   H116 9554   2.157   4.589   2.928  1.0936  2.0011 -0.0412
   40MOL   H117 9555   2.221   4.432   2.729  3.9485 -0.0345  0.2141
   40MOL   H118 9556   2.320   4.561   2.751  0.3811 -0.3905  0.9176
   40MOL   H119 9557   2.258   4.536   2.522 -0.1819 -2.8622  0.7689
   40MOL   H120 9558   2.088   4.513   2.548 -1.6092  1.8727  0.3589
   40MOL   H121 9559   2.138   4.671   2.573 -1.2683 -1.1447  0.0881
   40MOL   C122 9560   1.976   4.550   2.828  0.3235  0.3986 -0.3195
   40MOL   C123 9561   1.967   4.397   2.858  0.4385  0.0254 -0.1068
   40MOL   C124 9562   1.824   4.352   2.853  0.1814 -0.1593  0.2918
   40MOL   C125 9563   1.729   4.404   2.960  0.2086 -0.0883  0.2071
   40MOL   H126 9564   1.944   4.581   2.729  1.6670  1.4673 -0.4333
   40MOL   H127 9565   1.915   4.610   2.896  0.1195  1.5302 -1.4876
   40MOL   H128 9566   2.020   4.341   2.780 -2.9216 -2.1652 -0.9489
   40MOL   H129 9567   1.824   4.243   2.842 -2.7722  0.0187 -1.8206
   40MOL   H130 9568   1.775   4.382   2.761  1.4572  0.1001 -0.3230
   40MOL   H131 9569   1.718   4.512   2.949 -0.4355 -0.0067  1.5001
   40MOL   H132 9570   1.628   4.364   2.943 -0.5051  1.4746  0.6826
   40MOL   H133 9571   1.747   4.376   3.064 -2.0633  1.3999  1.0329
   40MOL   C134 9572   2.053   4.360   2.985 -0.7736 -0.5192 -0.2814
   40MOL   C135 9573   2.056   4.204   3.018 -0.0158  0.1029  0.6892
   40MOL   C136 9574   2.019   4.177   3.164 -0.3338  0.1299 -0.6350
   40MOL   C137 9575   2.140   4.195   3.259  1.5491 -0.2549 -0.5762
   40MOL   H138 9576   2.021   4.419   3.071  1.1744  0.0584  0.0597
   40MOL   H139 9577   2.156   4.388   2.964 -0.6332 -1.8531 -1.4320
   40MOL   H140 9578   1.972   4.156   2.968  0.0373  0.2478  0.4614
   40MOL   H141 9579   1.975   4.079   3.183 -1.1917  0.0899 -2.6375
   40MOL   H142 9580   1.942   4.250   3.189  0.0156 -0.3350  1.8912
   40MOL   H143 9581   2.088   4.193   3.355  1.0259 -0.2898 -0.8591
   40MOL   H144 9582   2.218   4.120   3.242  2.3786  0.1718  1.2632
   40MOL   H145 9583   2.184   4.295   3.256  0.7862  0.1630  1.6709
   40MOL   C146 9584   2.186   4.129   2.977 -0.2952 -0.0881 -0.1546
   40MOL   C147 9585   2.220   4.134   2.827  0.1099 -0.3050  0.2117
   40MOL   C148 9586   2.106   4.090   2.730  0.4181  0.1326 -0.0356
   40MOL   C149 9587   2.084   3.935   2.726  0.4015 -0.2729  0.0260
   40MOL   H150 9588   2.181   4.028   3.018  1.6937  0.0192  0.4095
   40MOL   H151 9589   2.265   4.176   3.035  1.3130  0.6590 -2.8481
   40MOL   H152 9590   2.240   4.239   2.803  1.8259 -1.0112 -1.5982
   40MOL   H153 9591   2.134   4.126   2.631  1.7240 -0.9038 -0.0566
   40MOL   H154 9592   2.011   4.136   2.758 -0.4782 -0.8071 -1.4723
   40MOL   H155 9593   2.001   3.911   2.659  0.2579  0.9575 -0.2463
   40MOL   H156 9594   2.176   3.886   2.693 -0.7228 -1.5757 -1.2493
   40MOL   H157 9595   2.049   3.905   2.825  0.5903  2.0754  0.8245
   40MOL   C158 9596   2.351   4.063   2.784  0.3380 -0.0471 -0.2755
   40MOL   C159 9597   2.479   4.144   2.817 -0.5322  0.1429 -0.3948
   40MOL   C160 9598   2.524   4.247   2.708 -0.0618 -0.5962  0.0937
   40MOL   C161 9599   2.546   4.187   2.568  0.0391  0.1462  0.6680
   40MOL   H162 9600   2.352   4.046   2.676  0.3011 -0.2878 -0.2384
   40MOL   H163 9601   2.348   3.962   2.824  1.6469 -0.7543 -1.8873
   40MOL   H164 9602   2.472   4.202   2.909  1.0452  1.1244 -0.8654
   40MOL   H165 9603   2.622   4.283   2.741 -0.1626 -0.6227  0.4213
   40MOL   H166 9604   2.465   4.338   2.706 -0.4549 -0.8717 -0.7102
   40MOL   H167 9605   2.604   4.095   2.564  1.3032  0.9805 -0.8698
   40MOL   H168 9606   2.456   4.167   2.510  0.6794  0.3714 -0.4154
   40MOL   H169 9607   2.604   4.253   2.504  0.2860 -0.4478  0.2780
   40MOL   C170 9608   2.595   4.050   2.844 -0.2210 -0.5745 -0.0887
   40MOL   C171 9609   2.583   3.976   2.979  0.1054  0.2615 -0.4034
   40MOL   C172 9610   2.617   4.058   3.100 -0.4513 -0.4603  0.2195
   40MOL   C173 9611   2.574   3.994   3.237  0.2232  0.2217  0.0542
   40MOL   H174 9612   2.686   4.109   2.844 -0.6442  0.0741  0.3107
   40MOL   H175 9613   2.594   3.979   2.761 -1.4524 -1.0061  0.2827
   40MOL   H176 9614   2.477   3.962   3.001  0.2468 -1.0767 -0.5468
   40MOL   H177 9615   2.554   4.146   3.086 -0.5727 -0.9153 -2.3676
   40MOL   H178 9616   2.722   4.088   3.105 -0.6057 -0.1302  1.7447
   40MOL   H179 9617   2.583   4.063   3.321  0.7564  0.4651 -0.1994
   40MOL   H180 9618   2.469   3.965   3.237  0.5104 -1.0314 -2.6695
   40MOL   H181 9619   2.638   3.908   3.259 -0.6342 -0.6109 -0.6469
   40MOL   C182 9620   2.658   3.839   2.973 -0.3098  0.1101  0.7328
   40MOL   C183 9621   2.587   3.716   3.024 -0.0299 -0.1411  0.4533
   40MOL   C184 9622   2.690   3.602   3.028  0.1881  0.3973 -0.1613
   40MOL   C185 9623   2.799   3.610   3.135 -0.4920  0.4232  0.6261
   40MOL   H186 9624   2.757   3.847   3.017 -0.2996  1.8565  0.4393
   40MOL   H187 9625   2.671   3.816   2.868  0.3979  2.2695  0.3241
   40MOL   H188 9626   2.550   3.732   3.126 -0.6794  2.0213 -0.1142
   40MOL   H189 9627   2.743   3.606   2.932  1.3070  1.2029  0.4719
   40MOL   H190 9628   2.632   3.511   3.045  1.1141  0.0656  1.3056
   40MOL   H191 9629   2.854   3.517   3.136  0.2615  0.8396 -1.0189
   40MOL   H192 9630   2.881   3.680   3.120  1.1110 -1.6587 -0.5644
   40MOL   H193 9631   2.764   3.633   3.236 -0.3859  1.0975  0.5126
   40MOL   C194 9632   2.465   3.669   2.940 -0.5962  0.0932  1.2242
   40MOL   C195 9633   2.346   3.612   3.011  0.4089 -0.2758 -0.2395
   40MOL   C196 9634   2.255   3.522   2.915 -0.5889  0.5598  0.5647
   40MOL   C197 9635   2.154   3.590   2.815 -0.2699  0.5819 -0.4944
   40MOL   H198 9636   2.500   3.587   2.878 -1.9373  0.4767 -0.0579
   40MOL   H199 9637   2.435   3.750   2.874 -0.1609 -0.7751 -0.0616
   40MOL   H200 9638   2.383   3.539   3.082 -0.6812 -0.6086 -0.0042
   40MOL   H201 9639   2.194   3.465   2.984 -1.0708  0.4293  0.0351
   40MOL   H202 9640   2.301   3.440   2.859 -0.4913  0.4632  0.7875
   40MOL   H203 9641   2.203   3.629   2.726 -0.7457  0.8557 -0.6392
   40MOL   H204 9642   2.082   3.515   2.785 -0.4747  1.0678 -1.2276
   40MOL   H205 9643   2.089   3.668   2.855 -1.6226 -0.5879 -0.4010
   40MOL   C206 9644   2.284   3.728   3.099 -0.8662  0.0786  0.3828
   40MOL   C207 9645   2.208   3.682   3.225  0.0315 -0.2289  0.2424
   40MOL   C208 9646   2.108   3.790   3.268  0.1087 -0.6335 -0.2066
   40MOL   C209 9647   2.006   3.744   3.378 -0.1735 -0.6061  0.5449
   40MOL   H210 9648   2.207   3.769   3.034  0.0421  1.2312  0.0217
   40MOL   H211 9649   2.356   3.807   3.117 -1.5092  0.3301  1.9502
   40MOL   H212 9650   2.156   3.595   3.185  0.7145 -0.9132  0.8406
   40MOL   H213 9651   2.051   3.847   3.195 -0.8062  0.3912  1.2680
   40MOL   H214 9652   2.166   3.869   3.316 -0.1993 -0.6656  0.2231
   40MOL   H215 9653   2.055   3.774   3.470  0.3502  0.7398 -0.1712
   40MOL   H216 9654   1.910   3.795   3.382  0.4814  0.6183  0.8935
   40MOL   H217 9655   1.995   3.635   3.380 -1.4135 -0.4739  1.4281
   40MOL   C218 9656   2.317   3.637   3.330 -0.6606  0.3798  0.0165
   40MOL   C219 9657   2.278   3.531   3.443  0.3470  0.3439  0.6485
   40MOL   C220 9658   2.413   3.504   3.513 -0.1265  0.0217  0.0895
   40MOL   C221 9659   2.517   3.421   3.438 -0.5843 -0.3752  0.4719
   40MOL   H222 9660   2.348   3.725   3.387  0.6625 -1.4614  2.2458
   40MOL   H223 9661   2.405   3.606   3.273  0.8467  2.9387  0.8323
   40MOL   H224 9662   2.217   3.590   3.511 -0.1455  1.0400 -0.3863
   40MOL   H225 9663   2.382   3.452   3.604  1.4519 -0.8689  0.1338
   40MOL   H226 9664   2.455   3.601   3.539 -1.5310  1.2799 -2.1508
   40MOL   H227 9665   2.596   3.402   3.511 -0.0375  2.8305  0.7906
   40MOL   H228 9666   2.476   3.326   3.406  1.3594 -0.9932 -0.2372
   40MOL   H229 9667   2.564   3.474   3.355 -0.9835 -0.5660  0.1261
   40MOL   C230 9668   2.210   3.402   3.382 -0.3925 -0.1418  0.2818
   40MOL   C231 9669   2.154   3.305   3.487  0.5278  0.0752 -0.2097
   40MOL   C232 9670   2.030   3.356   3.544 -0.0872 -0.3004 -0.0987
   40MOL   C233 9671   1.935   3.258   3.620 -0.4092  0.5516  0.2802
   40MOL   H234 9672   2.283   3.354   3.315  1.4857  1.4728  1.1252
   40MOL   H235 9673   2.126   3.436   3.323 -0.4361  2.1857  1.6381
   40MOL   H236 9674   2.130   3.211   3.437 -2.0110  0.4799  0.2270
   40MOL   H237 9675   1.963   3.409   3.476  1.7402 -0.9686 -2.5002
   40MOL   H238 9676   2.067   3.435   3.610 -2.5444  0.3247  0.6021
   40MOL   H239 9677   1.850   3.307   3.668 -1.0654  0.6705 -0.9601
   40MOL   H240 9678   1.886   3.194   3.546  2.3946  0.2905 -1.4040
   40MOL   H241 9679   1.991   3.194   3.688 -1.3253 -0.6976 -0.1126
   40MOL   H242 9680   2.227   3.285   3.566 -0.4223 -0.2276  0.5949
   41MOL     C1 9681   5.238   1.947   0.068 -0.2929  0.5688 -0.0660
   41MOL     C2 9682   5.151   2.015   0.167  0.4362 -0.1578 -0.0664
   41MOL     C3 9683   5.047   1.920   0.230  0.7945  0.1125  0.2164
   41MOL     C4 9684   5.105   1.817   0.322 -0.1252 -0.2396  0.1085
   41MOL     H5 9685   5.321   2.014   0.045  0.8295 -0.8093 -0.1178
   41MOL     H6 9686   5.278   1.858   0.116 -3.4058 -1.2275 -0.6990
   41MOL     H7 9687   5.200   2.058   0.253  0.2715  0.3387 -0.2198
   41MOL     H8 9688   4.996   1.870   0.148  0.4694  2.4414 -1.0424
   41MOL     H9 9689   4.974   1.985   0.279 -0.7611 -1.9474  0.7015
   41MOL    H10 9690   5.128   1.727   0.265 -1.1533 -0.3257 -0.1913
   41MOL    H11 9691   5.192   1.857   0.374 -3.2272  3.1692  2.9675
   41MOL    H12 9692   5.031   1.777   0.391 -0.3290 -5.7775 -3.0541
   41MOL    H13 9693   5.192   1.902   7.686 -1.2657  0.1242  0.6706
   41MOL    C14 9694   5.076   2.132   0.102 -0.4546 -0.1949  0.0310
   41MOL    C15 9695   5.008   2.244   0.195 -0.6027 -0.1289  0.3218
   41MOL    C16 9696   4.894   2.309   0.115 -0.2709  0.3098  0.1195
   41MOL    C17 9697   4.944   2.391   7.701  0.0550  0.4029  0.5076
   41MOL    H18 9698   5.000   2.095   0.034 -2.1668 -1.8911  2.7654
   41MOL    H19 9699   5.154   2.178   0.042 -0.2283 -0.6854 -0.0441
   41MOL    H20 9700   4.956   2.177   0.264 -0.9657 -0.6812 -0.4798
   41MOL    H21 9701   4.835   2.379   0.174 -1.0045 -0.6216  0.5000
   41MOL    H22 9702   4.826   2.235   0.073 -0.1090  0.4148 -0.3314
   41MOL    H23 9703   4.853   2.445   7.675  1.6351  2.9877  0.2306
   41MOL    H24 9704   5.027   2.453   0.028  0.4801  0.7255 -1.1180
   41MOL    H25 9705   4.977   2.321   7.624 -2.4703  1.0736 -1.2518
   41MOL    C26 9706   5.118   2.334   0.276  0.5950 -0.4803  0.2573
   41MOL    C27 9707   5.058   2.450   0.373  0.1947 -0.6323 -0.2319
   41MOL    C28 9708   5.107   2.595   0.348  0.4234  0.2137  0.0927
   41MOL    C29 9709   5.254   2.615   0.384  0.2439  0.1814 -0.0400
   41MOL    H30 9710   5.176   2.391   0.204  0.0790  1.5957  1.4463
   41MOL    H31 9711   5.194   2.275   0.328  0.4950 -2.0513 -1.3449
   41MOL    H32 9712   4.953   2.463   0.346  0.8313  1.2503 -1.9060
   41MOL    H33 9713   5.034   2.665   0.390  0.2119  0.7264 -1.0868
   41MOL    H34 9714   5.097   2.616   0.241  0.9734 -1.6745 -0.3480
   41MOL    H35 9715   5.316   2.531   0.351 -1.7748 -2.0060  1.5610
   41MOL    H36 9716   5.297   2.711   0.355 -2.3260  1.8464  1.4761
   41MOL    H37 9717   5.254   2.625   0.493 -2.2086  2.8039 -0.2496
   41MOL    C38 9718   5.074   2.407   0.517  0.4062 -0.1948 -0.3531
   41MOL    C39 9719   5.004   2.279   0.567  0.1099 -0.5223  0.2357
   41MOL    C40 9720   4.844   2.295   0.547 -0.0938 -0.2501 -0.3979
   41MOL    C41 9721   4.776   2.409   0.632  0.5428  0.2331 -0.2034
   41MOL    H42 9722   5.043   2.493   0.577  0.2872 -0.5572  0.1026
   41MOL    H43 9723   5.182   2.406   0.522  0.3354 -2.2167  0.9493
   41MOL    H44 9724   5.025   2.196   0.500  1.1142  0.4039 -0.5969
   41MOL    H45 9725   4.790   2.206   0.579  1.1388 -0.7875  0.1814
   41MOL    H46 9726   4.830   2.309   0.440 -1.0010  0.3553 -0.2147
   41MOL    H47 9727   4.780   2.397   0.740  2.9315 -2.1592 -0.4994
   41MOL    H48 9728   4.824   2.505   0.616 -3.4382  2.4278  0.4468
   41MOL    H49 9729   4.675   2.433   0.599  0.9344 -0.3072 -1.9002
   41MOL    C50 9730   5.036   2.242   0.709  0.3535  0.4509 -0.4608
   41MOL    C51 9731   5.184   2.241   0.759  0.4496 -0.1697  0.0521
   41MOL    C52 9732   5.267   2.128   0.702  0.2102  0.4141  0.4125
   41MOL    C53 9733   5.305   2.131   0.555  0.8036  0.3807 -0.5600
   41MOL    H54 9734   4.993   2.144   0.726  1.5938 -0.1051 -0.4365
   41MOL    H55 9735   4.980   2.302   0.780 -0.0027 -1.0486  0.5421
   41MOL    H56 9736   5.232   2.333   0.728  1.8798 -0.1162  2.3165
   41MOL    H57 9737   5.224   2.030   0.723 -1.9138  0.3441 -3.6712
   41MOL    H58 9738   5.363   2.136   0.753 -0.7611  0.3008  2.3003
   41MOL    H59 9739   5.227   2.092   0.490  3.1233  0.6475 -3.6221
   41MOL    H60 9740   5.336   2.225   0.510  0.4600  0.8038  0.0785
   41MOL    H61 9741   5.396   2.074   0.535 -0.8994 -1.9314 -1.9212
   41MOL    C62 9742   5.190   2.238   0.910  0.1225  0.1779  0.5951
   41MOL    C63 9743   5.167   2.381   0.974  0.3897  0.8850  0.5143
   41MOL    C64 9744   5.290   2.468   0.949  0.0717 -0.1923 -0.1360
   41MOL    C65 9745   5.261   2.619   0.954  0.0951 -0.1558  0.2599
   41MOL    H66 9746   5.279   2.188   0.947 -1.2384 -2.0183  1.0538
   41MOL    H67 9747   5.119   2.162   0.944 -0.2834 -0.0374 -0.7044
   41MOL    H68 9748   5.093   2.441   0.922  0.6390  1.4490  0.8024
   41MOL    H69 9749   5.332   2.459   0.849  0.1439 -3.2055  0.1447
   41MOL    H70 9750   5.352   2.435   1.032  0.7595  0.7000 -0.2891
   41MOL    H71 9751   5.212   2.638   1.050  0.9858 -0.0315  0.6913
   41MOL    H72 9752   5.357   2.670   0.948  0.2439 -0.4856 -0.2447
   41MOL    H73 9753   5.211   2.656   0.865 -0.1868 -0.8793  0.1094
   41MOL    C74 9754   5.124   2.370   1.119 -0.2983  0.0889 -1.2763
   41MOL    C75 9755   4.973   2.334   1.152  0.5787 -0.4820 -0.2615
   41MOL    C76 9756   4.880   2.442   1.094  0.1003 -0.3885 -0.5509
   41MOL    C77 9757   4.732   2.436   1.136 -0.0508  0.2280 -0.4881
   41MOL    H78 9758   5.151   2.467   1.162  1.0881 -1.4769  1.5955
   41MOL    H79 9759   5.198   2.310   1.172 -0.3695 -0.9348 -2.3299
   41MOL    H80 9760   4.949   2.239   1.105  0.8253 -0.8760  0.4009
   41MOL    H81 9761   4.890   2.427   0.986 -0.1470 -0.5635 -0.5494
   41MOL    H82 9762   4.922   2.541   1.114  0.8581 -0.8037 -0.0677
   41MOL    H83 9763   4.726   2.438   1.245 -0.2543 -2.4282 -0.4269
   41MOL    H84 9764   4.675   2.521   1.097  0.1494  0.5123 -0.1622
   41MOL    H85 9765   4.675   2.345   1.120 -1.2803  0.6199  1.4991
   41MOL    C86 9766   4.949   2.301   1.302 -0.3224 -0.3561  0.2364
   41MOL    C87 9767   5.053   2.200   1.371  0.4874  0.5800  0.6163
   41MOL    C88 9768   5.056   2.063   1.294 -0.1960 -0.2818  0.2100
   41MOL    C89 9769   4.920   1.979   1.292 -1.0142 -0.2417  0.7264
   41MOL    H90 9770   4.850   2.264   1.329 -0.8420 -0.4228 -1.6482
   41MOL    H91 9771   4.958   2.398   1.351 -3.2544 -0.8720  1.9028
   41MOL    H92 9772   5.154   2.238   1.379  1.2424 -1.0292 -0.9064
   41MOL    H93 9773   5.126   2.000   1.349 -0.3163  0.2364  0.9729
   41MOL    H94 9774   5.105   2.073   1.197  0.7332 -1.9238  0.4952
   41MOL    H95 9775   4.936   1.875   1.264  0.2412  0.3707 -0.8870
   41MOL    H96 9776   4.880   1.987   1.393 -2.8836  1.9126 -0.1213
   41MOL    H97 9777   4.852   2.031   1.224  0.8430  0.7460 -0.4158
   41MOL    C98 9778   5.008   2.190   1.517 -0.0061 -0.2389  0.4137
   41MOL    C99 9779   5.070   2.075   1.606  0.2954  0.4225 -0.0687
   41MOL   C100 9780   5.008   2.071   1.753  0.2746 -0.0611  0.0228
   41MOL   C101 9781   4.864   2.015   1.758 -0.4310  0.0159  0.3303
   41MOL   H102 9782   4.900   2.174   1.510  0.0611 -0.8299  0.6620
   41MOL   H103 9783   5.015   2.284   1.571  0.6726 -0.5291  0.8289
   41MOL   H104 9784   5.047   1.974   1.572  1.1819 -0.4666  1.8955
   41MOL   H105 9785   5.018   2.168   1.799 -0.7759  0.2350 -0.3567
   41MOL   H106 9786   5.078   2.012   1.813  0.1159 -0.1675  0.1020
   41MOL   H107 9787   4.803   2.065   1.683 -0.6032 -1.2284 -0.3678
   41MOL   H108 9788   4.864   1.907   1.744  1.8735  0.0349 -0.0796
   41MOL   H109 9789   4.809   2.046   1.847  1.0514 -1.5813  1.8581
   41MOL   C110 9790   5.224   2.088   1.609 -0.2937 -0.5066 -0.2506
   41MOL   C111 9791   5.309   1.968   1.654 -0.6858 -0.4380  0.2993
   41MOL   C112 9792   5.447   2.018   1.699 -0.3282 -0.7274  0.7558
   41MOL   C113 9793   5.514   1.924   1.799 -0.5857 -0.3132  0.0128
   41MOL   H114 9794   5.232   2.172   1.678 -1.2335 -0.8608  0.2936
   41MOL   H115 9795   5.273   2.128   1.520 -0.7825 -0.9228 -0.7098
   41MOL   H116 9796   5.258   1.952   1.749  0.5973 -0.2844  1.0295
   41MOL   H117 9797   5.446   2.117   1.745  0.5216 -1.1475  1.6909
   41MOL   H118 9798   5.520   2.033   1.619 -0.6242  3.5346  1.1447
   41MOL   H119 9799   5.451   1.914   1.888 -0.8685  0.3932 -0.1034
   41MOL   H120 9800   5.544   1.828   1.757  3.4987  0.6384  0.5536
   41MOL   H121 9801   5.604   1.969   1.840  0.6656 -2.3153 -0.4954
   41MOL   C122 9802   5.310   1.846   1.560  0.6445 -0.6537 -0.3310
   41MOL   C123 9803   5.231   1.712   1.591 -0.0261  0.1748  0.0729
   41MOL   C124 9804   5.302   1.652   1.720  0.7241 -0.2816  0.7042
   41MOL   C125 9805   5.221   1.532   1.769 -1.1143  0.0432  0.4287
   41MOL   H126 9806   5.414   1.826   1.537  1.2275 -0.8185  2.3732
   41MOL   H127 9807   5.283   1.887   1.462 -1.4915 -1.6251 -0.1859
   41MOL   H128 9808   5.126   1.737   1.607  0.5138  1.4972  1.7494
   41MOL   H129 9809   5.290   1.723   1.801 -1.2167  0.6274 -0.3649
   41MOL   H130 9810   5.408   1.631   1.700  0.7963 -0.9304  1.7052
   41MOL   H131 9811   5.225   1.455   1.693  1.6049  1.0121 -0.4889
   41MOL   H132 9812   5.252   1.504   1.870 -1.8381 -0.4069  0.5286
   41MOL   H133 9813   5.115   1.553   1.778 -1.5027 -1.1286 -1.2851
   41MOL   C134 9814   5.237   1.615   1.470 -0.0903  0.0857 -0.5109
   41MOL   C135 9815   5.104   1.628   1.386 -0.6237 -0.5799  0.6350
   41MOL   C136 9816   4.986   1.564   1.472  0.7365 -0.2595 -0.1190
   41MOL   C137 9817   4.868   1.657   1.494  0.3581  0.7107  0.8669
   41MOL   H138 9818   5.235   1.507   1.489  1.8023  0.2245  0.5004
   41MOL   H139 9819   5.319   1.630   1.400 -2.7497  2.0262 -3.3555
   41MOL   H140 9820   5.082   1.733   1.369 -1.3713 -0.8969 -0.4209
   41MOL   H141 9821   5.027   1.536   1.569  0.4425 -0.6766 -0.1163
   41MOL   H142 9822   4.953   1.472   1.425 -0.2104 -0.5639  1.1090
   41MOL   H143 9823   4.885   1.733   1.572  1.0715  3.5700 -1.9611
   41MOL   H144 9824   4.849   1.707   1.399  0.8733  0.1832  0.4858
   41MOL   H145 9825   4.783   1.597   1.526  0.8464 -0.1993  0.4595
   41MOL   C146 9826   5.130   1.555   1.246 -0.0477 -0.0917  0.8647
   41MOL   C147 9827   5.019   1.574   1.138  0.2159 -0.0388 -0.1638
   41MOL   C148 9828   4.978   1.437   1.078 -0.2287  0.5218 -0.1113
   41MOL   C149 9829   5.097   1.385   0.984  0.4698 -0.0231  0.2919
   41MOL   H150 9830   5.134   1.450   1.275 -0.0979 -0.0258  1.1150
   41MOL   H151 9831   5.219   1.593   1.196 -0.7023 -0.0103 -0.2533
   41MOL   H152 9832   4.934   1.611   1.195  0.0105 -0.9126  0.1092
   41MOL   H153 9833   4.884   1.444   1.024  0.5249 -1.1990 -1.7042
   41MOL   H154 9834   4.962   1.359   1.153  0.4155  0.6742  0.1969
   41MOL   H155 9835   5.192   1.415   1.028  1.4170 -2.8950  0.3360
   41MOL   H156 9836   5.083   1.280   0.960  0.0955 -0.0908  0.8027
   41MOL   H157 9837   5.095   1.434   0.887  1.6514  0.4603  0.4964
   41MOL   C158 9838   5.056   1.692   1.039  0.1824  0.2969 -0.1690
   41MOL   C159 9839   4.955   1.739   0.930  0.1312 -0.0013  0.1090
   41MOL   C160 9840   5.041   1.822   0.834  0.5702  0.4474 -0.0555
   41MOL   C161 9841   5.121   1.738   0.730 -0.4794 -0.9468  0.0106
   41MOL   H162 9842   5.142   1.655   0.984 -0.7614 -3.3723  0.6407
   41MOL   H163 9843   5.097   1.779   1.092  0.9744 -0.0932 -0.1350
   41MOL   H164 9844   4.918   1.657   0.869 -2.2969  0.3552  1.0353
   41MOL   H165 9845   5.104   1.891   0.889  1.0841  1.6204 -2.0597
   41MOL   H166 9846   4.984   1.892   0.774  2.4743  1.7690 -0.3702
   41MOL   H167 9847   5.059   1.657   0.694 -0.5219 -0.6580 -0.5639
   41MOL   H168 9848   5.146   1.800   0.644 -1.5155  1.7486  1.5679
   41MOL   H169 9849   5.219   1.700   0.757 -1.1764 -1.0143  2.5896
   41MOL   C170 9850   4.842   1.831   0.988  0.3285  0.2676 -1.1433
   41MOL   C171 9851   4.736   1.885   0.891  0.1595 -0.3275 -1.1663
   41MOL   C172 9852   4.655   1.994   0.952  0.0184  0.2328 -0.9509
   41MOL   C173 9853   4.676   2.134   0.889 -0.2247  0.4409 -0.1664
   41MOL   H174 9854   4.883   1.926   1.025 -2.1548  1.0145 -0.2204
   41MOL   H175 9855   4.804   1.791   1.082  1.9637 -0.5888 -0.8381
   41MOL   H176 9856   4.785   1.929   0.804  0.4320  0.4816 -0.6097
   41MOL   H177 9857   4.663   1.992   1.060 -0.1161 -1.3684 -0.9444
   41MOL   H178 9858   4.551   1.963   0.940 -1.3308  3.3426  1.9768
   41MOL   H179 9859   4.776   2.168   0.913  0.2215 -0.1391 -1.1525
   41MOL   H180 9860   4.665   2.147   0.781 -1.2986  1.6250  0.0785
   41MOL   H181 9861   4.608   2.212   0.923 -0.8395  0.1177 -0.6312
   41MOL   C182 9862   4.652   1.768   0.834  0.5446  0.3074  0.3483
   41MOL   C183 9863   4.573   1.803   0.710 -0.6755  0.1335  0.3234
   41MOL   C184 9864   4.442   1.716   0.714 -0.4243 -0.4449 -0.0939
   41MOL   C185 9865   4.329   1.744   0.821  0.3443 -0.2756  0.4288
   41MOL   H186 9866   4.596   1.716   0.912  0.5052  0.3054  0.3187
   41MOL   H187 9867   4.730   1.701   0.797  0.2913 -0.2529  0.8164
   41MOL   H188 9868   4.543   1.906   0.728 -1.4734 -0.0093 -0.1234
   41MOL   H189 9869   4.473   1.612   0.708 -0.4429 -0.4470 -0.1592
   41MOL   H190 9870   4.394   1.737   0.619  0.9312 -0.8166 -0.8756
   41MOL   H191 9871   4.251   1.668   0.816 -0.4549  0.6117 -0.9703
   41MOL   H192 9872   4.362   1.744   0.925  2.8174  0.3215 -0.3177
   41MOL   H193 9873   4.278   1.840   0.810 -0.3996 -0.4276  2.3130
   41MOL   C194 9874   4.659   1.800   0.573  0.2034  0.2386 -0.2652
   41MOL   C195 9875   4.604   1.874   0.447  0.3461  0.7409  0.1687
   41MOL   C196 9876   4.673   1.820   0.316 -0.6823 -0.0669  0.2477
   41MOL   C197 9877   4.624   1.681   0.274 -0.3077 -0.0635  0.0998
   41MOL   H198 9878   4.692   1.697   0.560  1.5292  0.6661 -0.3144
   41MOL   H199 9879   4.752   1.855   0.589  0.6196 -0.2331 -1.0733
   41MOL   H200 9880   4.496   1.858   0.447  0.6318 -1.5483 -1.8380
   41MOL   H201 9881   4.777   1.804   0.345 -0.7699 -3.0595 -0.9558
   41MOL   H202 9882   4.651   1.894   0.239 -0.2410 -1.6166 -1.4041
   41MOL   H203 9883   4.652   1.603   0.346 -0.3367 -1.1505 -1.0554
   41MOL   H204 9884   4.518   1.672   0.252  0.0299 -0.0059 -1.5490
   41MOL   H205 9885   4.683   1.654   0.186 -1.1841 -0.7632 -0.2793
   41MOL   C206 9886   4.614   2.025   0.456  0.5918 -0.2919  0.0683
   41MOL   C207 9887   4.515   2.106   0.367 -0.1430  0.6771  0.6448
   41MOL   C208 9888   4.584   2.201   0.266  0.3101 -0.2021 -0.6204
   41MOL   C209 9889   4.487   2.221   0.150 -0.2522 -0.7065  0.4316
   41MOL   H210 9890   4.717   2.059   0.442  0.7599 -0.5974  0.5711
   41MOL   H211 9891   4.588   2.049   0.559  0.4926  2.3823 -0.5250
   41MOL   H212 9892   4.463   2.035   0.303 -0.4420  0.4195  1.1703
   41MOL   H213 9893   4.676   2.154   0.231 -0.6205 -1.7124 -1.0727
   41MOL   H214 9894   4.604   2.296   0.315  2.4150 -0.8984 -0.0599
   41MOL   H215 9895   4.385   2.253   0.169 -0.6489  0.0047 -2.6155
   41MOL   H216 9896   4.514   2.307   0.089 -1.2897 -0.6908 -0.0184
   41MOL   H217 9897   4.482   2.132   0.087 -1.2767  1.6271 -2.8935
   41MOL   C218 9898   4.420   2.189   0.460  0.4830  0.0430  0.1380
   41MOL   C219 9899   4.317   2.116   0.546 -0.7729  0.1722  0.4291
   41MOL   C220 9900   4.200   2.069   0.455  0.1210  0.0474  0.4385
   41MOL   C221 9901   4.122   1.942   0.509  0.3800  0.1261 -0.1094
   41MOL   H222 9902   4.371   2.270   0.405  0.6848  0.1365  0.0950
   41MOL   H223 9903   4.484   2.238   0.533  0.2527  0.3402  0.1404
   41MOL   H224 9904   4.365   2.023   0.576  0.2428 -0.5122 -3.0815
   41MOL   H225 9905   4.236   2.048   0.354  0.7577 -0.6835  0.8104
   41MOL   H226 9906   4.141   2.161   0.454  1.5728  1.0263  1.7918
   41MOL   H227 9907   4.035   1.938   0.443  0.3202 -0.4905  0.0040
   41MOL   H228 9908   4.188   1.861   0.479  0.1396  0.3933 -1.3847
   41MOL   H229 9909   4.094   1.942   0.614  1.1508 -1.1708  0.1169
   41MOL   C230 9910   4.257   2.202   0.668 -0.2808  0.3552  0.1338
   41MOL   C231 9911   4.339   2.216   0.792  0.1359 -0.5204 -0.1820
   41MOL   C232 9912   4.264   2.285   0.899 -0.1144 -0.0321 -0.0123
   41MOL   C233 9913   4.359   2.316   1.023 -0.6107  0.1380 -0.3221
   41MOL   H234 9914   4.164   2.153   0.696  0.1792 -0.8583 -0.4374
   41MOL   H235 9915   4.225   2.303   0.642  0.3113  0.5859  0.2872
   41MOL   H236 9916   4.367   2.121   0.839  1.6669  0.8646  1.7892
   41MOL   H237 9917   4.173   2.232   0.927 -0.0999 -0.9908 -1.7249
   41MOL   H238 9918   4.227   2.382   0.866 -1.5488 -0.8189 -0.7850
   41MOL   H239 9919   4.320   2.394   1.089 -2.8500 -0.0390 -1.4052
   41MOL   H240 9920   4.382   2.234   1.090 -0.4081 -0.7029 -1.4167
   41MOL   H241 9921   4.460   2.342   0.990 -0.8886 -0.7556 -1.9331
   41MOL   H242 9922   4.434   2.267   0.778  0.0630 -0.4847 -0.5310
   42MOL     C1 9923   6.014   3.478   7.591  0.0971 -0.1076 -0.3157
   42MOL     C2 9924   5.898   3.451   7.496  0.1915  0.0695  0.3998
   42MOL     C3 9925   5.763   3.521   7.534 -0.0616 -0.6286  0.5516
   42MOL     C4 9926   5.708   3.487   7.678  0.2490 -0.3360  0.4662
   42MOL     H5 9927   6.032   3.583   7.615 -1.9230 -0.3140  2.2996
   42MOL     H6 9928   6.006   3.423   7.684 -0.7958  0.1957 -0.2038
   42MOL     H7 9929   5.923   3.486   7.396  0.4356  0.3782  0.5664
   42MOL     H8 9930   5.699   3.485   7.453  1.6902 -2.3715 -0.1075
   42MOL     H9 9931   5.765   3.628   7.514 -3.5127 -0.3443  1.3991
   42MOL    H10 9932   5.614   3.540   7.690  1.3651  1.4215  1.6165
   42MOL    H11 9933   5.690   3.382   7.698  1.3610 -0.8020 -0.8351
   42MOL    H12 9934   5.763   3.529   0.056  0.6267  0.7201 -0.2974
   42MOL    H13 9935   6.107   3.444   7.545  0.2627 -0.3436  0.1950
   42MOL    C14 9936   5.877   3.300   7.470  0.5601  0.4454 -0.9194
   42MOL    C15 9937   6.003   3.215   7.427 -0.4612 -0.0543  1.0473
   42MOL    C16 9938   6.061   3.276   7.293 -0.3319  0.2986 -0.0584
   42MOL    C17 9939   5.970   3.274   7.172  0.0392  0.3767  0.1022
   42MOL    H18 9940   5.801   3.288   7.393  1.1147 -1.2044 -1.2239
   42MOL    H19 9941   5.832   3.257   7.560  1.5546  0.4278 -0.4224
   42MOL    H20 9942   6.079   3.227   7.505 -0.9444 -1.7359  1.8152
   42MOL    H21 9943   6.151   3.218   7.273 -0.0617  0.0829  1.7560
   42MOL    H22 9944   6.108   3.372   7.312  1.9122 -1.0635  1.5596
   42MOL    H23 9945   5.949   3.175   7.131  0.6999  0.4165 -0.3449
   42MOL    H24 9946   5.873   3.316   7.196 -1.0627 -0.7240 -2.2100
   42MOL    H25 9947   6.004   3.335   7.088  0.0560  0.5331  0.2223
   42MOL    C26 9948   5.960   3.070   7.425  0.8613  0.1560 -0.6570
   42MOL    C27 9949   6.079   2.965   7.427 -0.2006  0.6581 -0.5657
   42MOL    C28 9950   6.036   2.828   7.370 -0.4161 -0.0890  0.7358
   42MOL    C29 9951   6.027   2.829   7.214  0.1518  0.0981  0.3042
   42MOL    H30 9952   5.890   3.048   7.344 -1.1103 -0.4415  1.1523
   42MOL    H31 9953   5.895   3.047   7.509 -1.1758 -0.1261 -2.2524
   42MOL    H32 9954   6.166   3.000   7.371  0.9495  0.0133  0.7946
   42MOL    H33 9955   5.944   2.805   7.423 -0.8073  0.6327  0.3814
   42MOL    H34 9956   6.113   2.754   7.389 -2.4837 -2.6143 -0.4229
   42MOL    H35 9957   6.111   2.868   7.157  0.5577  1.3863  1.7549
   42MOL    H36 9958   6.005   2.727   7.183 -1.0729  0.6959 -0.8648
   42MOL    H37 9959   5.942   2.892   7.187 -0.8409  0.1462  3.3517
   42MOL    C38 9960   6.134   2.950   7.572  0.3253 -0.2659  0.8213
   42MOL    C39 9961   6.283   2.905   7.585  0.0266  0.0414  0.5738
   42MOL    C40 9962   6.304   2.854   0.022 -0.1961  0.6831  0.1647
   42MOL    C41 9963   6.285   2.699   0.035  0.3162 -0.6393 -0.0932
   42MOL    H42 9964   6.072   2.890   7.639  0.0562  0.4981  1.2656
   42MOL    H43 9965   6.125   3.043   7.628 -2.4665 -0.4252  0.7060
   42MOL    H44 9966   6.305   2.832   7.507 -0.8711  0.1185  0.2424
   42MOL    H45 9967   6.233   2.899   0.091 -1.1512  0.2013 -0.4980
   42MOL    H46 9968   6.401   2.877   0.066 -1.0022  1.3456  1.6452
   42MOL    H47 9969   6.304   2.666   0.137 -1.3497  2.3789  1.2657
   42MOL    H48 9970   6.184   2.669   0.008 -0.7899  0.8913  2.2370
   42MOL    H49 9971   6.358   2.649   7.678 -0.2973 -1.6754  0.0091
   42MOL    C50 9972   6.369   3.029   7.542 -0.3485 -0.4162  0.0426
   42MOL    C51 9973   6.505   2.998   7.474  0.8710  0.2724 -1.0734
   42MOL    C52 9974   6.608   3.110   7.491 -0.7957  0.2813 -0.7662
   42MOL    C53 9975   6.634   3.163   7.630 -0.4177 -0.9716  0.4849
   42MOL    H54 9976   6.387   3.085   7.634  1.2216 -0.7115 -0.0674
   42MOL    H55 9977   6.309   3.092   7.477  0.7886  0.0687 -0.5567
   42MOL    H56 9978   6.540   2.915   7.537 -0.1690 -0.7863 -1.8706
   42MOL    H57 9979   6.571   3.193   7.431  0.4170 -1.0939 -3.5407
   42MOL    H58 9980   6.705   3.074   7.455 -0.8708 -1.1273  0.3844
   42MOL    H59 9981   6.677   3.098   0.001  0.4840 -0.4135  0.4577
   42MOL    H60 9982   6.706   3.243   7.613 -0.9497 -0.2618  1.4865
   42MOL    H61 9983   6.544   3.208   7.673  0.4641 -0.9003  2.2927
   42MOL    C62 9984   6.495   2.952   7.322  1.1329 -0.0283 -0.6817
   42MOL    C63 9985   6.626   2.926   7.252 -0.4941  0.6012 -0.0499
   42MOL    C64 9986   6.672   3.058   7.179  0.1044  0.1295  0.2378
   42MOL    C65 9987   6.808   3.052   7.107 -0.6303 -0.1531  0.5245
   42MOL    H66 9988   6.436   3.034   7.282 -0.7491 -1.1171 -0.2186
   42MOL    H67 9989   6.430   2.865   7.333  1.8147 -0.6159 -1.2434
   42MOL    H68 9990   6.708   2.905   7.320 -1.5888  1.1802  1.4757
   42MOL    H69 9991   6.687   3.148   7.239 -0.9644 -0.5035  1.4854
   42MOL    H70 9992   6.602   3.082   7.098 -0.6100 -3.4829 -0.3025
   42MOL    H71 9993   6.810   3.104   7.011 -0.6790 -1.9111 -0.4639
   42MOL    H72 9994   6.888   3.077   7.177  0.2276 -2.0470  0.2530
   42MOL    H73 9995   6.827   2.954   7.064  0.6697  0.2921  0.0847
   42MOL    C74 9996   6.624   2.798   7.159 -0.7806  0.0812  0.8751
   42MOL    C75 9997   6.530   2.799   7.032  0.2761 -0.3845 -0.0746
   42MOL    C76 9998   6.383   2.767   7.059  0.2158  0.1126  0.0010
   42MOL    C77 9999   6.288   2.768   6.937 -0.5192  0.1739  0.6009
   42MOL    H7810000   6.588   2.715   7.220 -0.3200 -0.4692  0.3983
   42MOL    H7910001   6.727   2.775   7.133 -0.7945 -0.8235  1.6342
   42MOL    H8010002   6.542   2.897   6.986  0.6193  0.3841  1.6406
   42MOL    H8110003   6.344   2.839   7.132  0.8976  0.2530  0.2284
   42MOL    H8210004   6.376   2.664   7.095 -0.9672 -0.7153 -2.4569
   42MOL    H8310005   6.292   2.680   6.873  1.5862 -0.3700  1.4378
   42MOL    H8410006   6.187   2.759   6.977 -0.4978 -0.0221  0.6105
   42MOL    H8510007   6.282   2.857   6.874 -0.6783  0.8225  1.5247
   42MOL    C8610008   6.576   2.685   6.933  0.0893  1.1038 -0.2802
   42MOL    C8710009   6.713   2.710   6.853 -0.5061  0.3725 -0.2393
   42MOL    C8810010   6.678   2.821   6.750 -0.5418 -0.9792 -0.0065
   42MOL    C8910011   6.790   2.886   6.678  0.2429  0.0245  0.2898
   42MOL    H9010012   6.504   2.674   6.852  0.8369  0.8858 -0.9185
   42MOL    H9110013   6.572   2.589   6.984 -0.2620  0.8096 -0.8605
   42MOL    H9210014   6.790   2.740   6.923  0.9576 -2.3167 -0.6432
   42MOL    H9310015   6.624   2.903   6.797  0.8666  0.7357 -1.2922
   42MOL    H9410016   6.610   2.777   6.677 -0.2898 -1.4448  0.0401
   42MOL    H9510017   6.760   2.956   6.600  0.7495 -0.6433 -0.5246
   42MOL    H9610018   6.846   2.947   6.748 -0.6624  0.6939  0.4447
   42MOL    H9710019   6.849   2.806   6.633 -2.3541 -1.6996 -0.2182
   42MOL    C9810020   6.767   2.580   6.782  0.8260 -0.4729  0.3671
   42MOL    C9910021   6.836   2.484   6.879  0.1821  0.3593 -0.1470
   42MOL   C10010022   6.976   2.517   6.934 -0.3300 -0.0621 -0.8712
   42MOL   C10110023   7.097   2.509   6.836 -0.0293  0.0703 -0.1246
   42MOL   H10210024   6.828   2.615   6.699 -0.0310  0.6944  0.2082
   42MOL   H10310025   6.668   2.545   6.750  1.0721 -1.1162  0.3098
   42MOL   H10410026   6.773   2.483   6.968 -0.7356 -0.2983 -0.7871
   42MOL   H10510027   6.990   2.445   7.014 -0.3112  1.3647  0.4289
   42MOL   H10610028   6.970   2.618   6.974  0.8102  1.3717 -4.0789
   42MOL   H10710029   7.085   2.580   6.754 -1.8079 -0.5201 -0.3911
   42MOL   H10810030   7.186   2.534   6.894  0.3023 -0.3547 -0.4588
   42MOL   H10910031   7.117   2.408   6.801  0.7812  0.1537  0.1000
   42MOL   C11010032   6.823   2.346   6.820  0.6891 -0.0029  0.7393
   42MOL   C11110033   6.696   2.264   6.870  0.0991  0.2460  0.2999
   42MOL   C11210034   6.701   2.221   7.016 -0.0708  0.0803  0.2280
   42MOL   C11310035   6.829   2.145   7.052  0.1898  0.4765 -0.4060
   42MOL   H11410036   6.918   2.299   6.847  1.3728  1.3407  0.7026
   42MOL   H11510037   6.820   2.359   6.712  2.5432  0.2562  0.6989
   42MOL   H11610038   6.613   2.333   6.861 -0.3629 -0.0397  2.2505
   42MOL   H11710039   6.609   2.168   7.038 -0.8185  1.3058  0.1035
   42MOL   H11810040   6.694   2.308   7.082  2.9818 -0.6047  1.5281
   42MOL   H11910041   6.837   2.122   7.158 -1.0375  0.6822 -0.2562
   42MOL   H12010042   6.831   2.045   7.008 -3.6759  0.1586 -0.0414
   42MOL   H12110043   6.922   2.195   7.028 -0.5102  0.2283 -3.8942
   42MOL   C12210044   6.652   2.146   6.783  0.8771 -0.6398  0.0695
   42MOL   C12310045   6.597   2.174   6.638 -0.2408 -0.3248 -0.4757
   42MOL   C12410046   6.442   2.163   6.619  0.0825  0.4283  0.3697
   42MOL   C12510047   6.353   2.241   6.723 -0.1756  0.9929  0.5397
   42MOL   H12610048   6.577   2.085   6.834 -1.7407  0.1209 -2.6790
   42MOL   H12710049   6.736   2.077   6.775  0.7584 -0.7646 -0.0975
   42MOL   H12810050   6.629   2.277   6.627  0.7683 -0.2874  2.4366
   42MOL   H12910051   6.410   2.059   6.622 -2.4225  0.9877 -3.2559
   42MOL   H13010052   6.414   2.197   6.520  1.6488 -3.3030 -1.4874
   42MOL   H13110053   6.369   2.207   6.826 -0.1727  2.8642  1.1715
   42MOL   H13210054   6.377   2.346   6.710  2.4008  0.2541 -1.1561
   42MOL   H13310055   6.247   2.245   6.698 -0.4454 -1.1230  1.2009
   42MOL   C13410056   6.673   2.082   6.543 -0.3712 -0.2515 -0.9759
   42MOL   C13510057   6.810   2.134   6.500 -0.4037  0.6616  0.4487
   42MOL   C13610058   6.789   2.251   6.397  0.4290  0.7214 -0.2958
   42MOL   C13710059   6.920   2.321   6.350  0.1220  0.7569 -0.2479
   42MOL   H13810060   6.619   2.072   6.449  1.6421 -0.5690 -2.1341
   42MOL   H13910061   6.683   1.986   6.595  0.5055  0.2831 -0.1301
   42MOL   H14010062   6.867   2.169   6.586  0.0923  0.9877 -0.0083
   42MOL   H14110063   6.736   2.322   6.459  0.4441 -0.8079  1.5175
   42MOL   H14210064   6.719   2.228   6.316 -3.1805 -0.8795  3.1160
   42MOL   H14310065   6.992   2.246   6.318  0.4225  0.8380  0.2339
   42MOL   H14410066   6.893   2.396   6.275 -0.4697  0.3435 -0.4492
   42MOL   H14510067   6.952   2.371   6.441  2.1695  1.3472 -1.2614
   42MOL   C14610068   6.891   2.025   6.437  0.0656 -0.3254  0.0527
   42MOL   C14710069   7.021   1.993   6.510  0.4057 -0.4689 -0.5059
   42MOL   C14810070   7.111   1.897   6.432  0.0507  0.1854 -0.0150
   42MOL   C14910071   7.157   1.942   6.293  0.6830  0.3989  0.1744
   42MOL   H15010072   6.907   2.056   6.334 -0.8267  2.6070  0.7711
   42MOL   H15110073   6.842   1.927   6.440 -0.0491 -0.2437  0.9935
   42MOL   H15210074   7.077   2.086   6.503  0.4693 -0.5769 -1.5406
   42MOL   H15310075   7.066   1.797   6.432  1.9345 -0.6817 -0.8475
   42MOL   H15410076   7.193   1.884   6.502 -0.7369 -1.6233  0.6124
   42MOL   H15510077   7.205   1.857   6.243  1.4137 -0.3237  2.0469
   42MOL   H15610078   7.074   1.978   6.233 -0.1138  0.3244  1.2087
   42MOL   H15710079   7.224   2.027   6.295  0.7210  0.3461  2.6039
   42MOL   C15810080   6.999   1.945   6.658 -0.0653  0.4577 -0.3519
   42MOL   C15910081   7.123   1.953   6.750 -0.5867 -0.2183 -0.1817
   42MOL   C16010082   7.193   2.094   6.770  0.3878  0.2037 -0.5652
   42MOL   C16110083   7.219   2.150   6.908  1.2379 -0.0652 -0.7399
   42MOL   H16210084   6.963   1.842   6.663  1.8476 -0.2212  0.1703
   42MOL   H16310085   6.913   1.998   6.696 -0.0646  0.1725  0.0597
   42MOL   H16410086   7.070   1.943   6.844  3.0816  0.4133  2.0489
   42MOL   H16510087   7.135   2.171   6.719  0.4276  1.0315  0.6139
   42MOL   H16610088   7.281   2.092   6.707  2.5050  3.0406  2.1441
   42MOL   H16710089   7.132   2.151   6.973  0.4616 -0.4839 -1.7604
   42MOL   H16810090   7.294   2.103   6.972 -0.8312  0.0343  1.8377
   42MOL   H16910091   7.256   2.252   6.897  0.5816  0.1070 -1.3720
   42MOL   C17010092   7.223   1.829   6.753 -0.3347  0.4399  0.5273
   42MOL   C17110093   7.274   1.778   6.883 -0.2212  0.3648 -0.5816
   42MOL   C17210094   7.400   1.695   6.859 -0.6966 -0.3141  0.0364
   42MOL   C17310095   7.534   1.755   6.804 -0.0983 -0.9259 -0.3311
   42MOL   H17410096   7.299   1.842   6.676 -0.6305 -0.7300  0.0152
   42MOL   H17510097   7.165   1.747   6.709  1.4949 -0.5624 -0.0814
   42MOL   H17610098   7.296   1.870   6.938 -1.1285 -0.1244  0.6246
   42MOL   H17710099   7.375   1.615   6.790 -0.1691 -1.4462  1.1482
   42MOL   H17810100   7.429   1.648   6.953 -1.1877 -0.3728  0.1585
   42MOL   H17910101   7.524   1.813   6.712 -0.0236  1.7014  1.2522
   42MOL   H18010102   7.573   1.817   6.884  0.3466 -1.8595  0.1750
   42MOL   H18110103   7.599   1.668   6.794 -0.5650 -1.2228 -0.8367
   42MOL   C18210104   7.167   1.687   6.954  0.1792 -0.3786  0.1669
   42MOL   C18310105   7.133   1.728   7.100 -0.1368  0.5347  0.2881
   42MOL   C18410106   7.254   1.714   7.197 -0.3380 -0.0875  0.2151
   42MOL   C18510107   7.347   1.837   7.200  0.1790 -0.1504  0.3774
   42MOL   H18610108   7.202   1.584   6.946 -2.5120 -1.1255 -3.4432
   42MOL   H18710109   7.077   1.709   6.896  0.4141 -0.0148 -0.0636
   42MOL   H18810110   7.100   1.832   7.099 -3.9844 -0.6197 -0.4109
   42MOL   H18910111   7.321   1.637   7.160  1.2202  1.2722  0.1412
   42MOL   H19010112   7.217   1.685   7.296  0.3261 -1.5640  0.0344
   42MOL   H19110113   7.427   1.808   7.132  0.2277  0.9207 -0.0438
   42MOL   H19210114   7.302   1.933   7.172  0.3598 -0.0033  0.5842
   42MOL   H19310115   7.382   1.841   7.303  1.3807 -1.5100  0.0405
   42MOL   C19410116   7.015   1.640   7.149 -0.6093  0.3034  0.6961
   42MOL   C19510117   6.873   1.686   7.099 -0.4547  0.3317  0.8343
   42MOL   C19610118   6.815   1.797   7.191  0.4067  0.1613 -0.4675
   42MOL   C19710119   6.781   1.767   7.340 -0.6976 -0.0869 -0.8043
   42MOL   H19810120   7.017   1.658   7.256 -0.2751  1.5478  0.4865
   42MOL   H19910121   7.041   1.535   7.135 -1.3155  0.4008 -1.5363
   42MOL   H20010122   6.891   1.729   7.000  1.4332 -0.0676  0.9874
   42MOL   H20110123   6.722   1.827   7.143 -0.7740 -0.5350  1.3068
   42MOL   H20210124   6.884   1.880   7.189  0.2368  0.2833 -1.7464
   42MOL   H20310125   6.693   1.703   7.330  0.7321 -2.1529 -0.5893
   42MOL   H20410126   6.864   1.713   7.386 -0.5595  1.2177  0.5192
   42MOL   H20510127   6.758   1.861   7.390  0.9918 -0.9111  1.6296
   42MOL   C20610128   6.776   1.559   7.088  0.4766  0.5598  0.2582
   42MOL   C20710129   6.806   1.463   6.972 -1.0627  0.1684 -0.0688
   42MOL   C20810130   6.708   1.466   6.851  0.5227  0.1182  0.0146
   42MOL   C20910131   6.713   1.591   6.765 -0.7300 -0.4425  0.1857
   42MOL   H21010132   6.673   1.593   7.080  0.6945  1.4902  1.2644
   42MOL   H21110133   6.784   1.502   7.181  0.8864  0.7521  0.3442
   42MOL   H21210134   6.896   1.503   6.926 -1.7433  0.8203 -0.8308
   42MOL   H21310135   6.613   1.453   6.901  1.2986 -1.6730  1.0869
   42MOL   H21410136   6.718   1.381   6.783 -1.1136  2.3350 -3.1255
   42MOL   H21510137   6.801   1.579   6.702 -0.5186  3.2378 -0.3033
   42MOL   H21610138   6.621   1.602   6.707  0.6406  1.2314 -1.7369
   42MOL   H21710139   6.724   1.677   6.830  0.2615 -0.4857  0.0786
   42MOL   C21810140   6.846   1.319   7.020  0.1212 -0.2262  0.5493
   42MOL   C21910141   6.867   1.205   6.909  0.3299 -0.2571 -0.5851
   42MOL   C22010142   6.864   1.061   6.967 -0.6040 -0.6698 -0.2184
   42MOL   C22110143   6.994   1.028   7.055 -0.0215 -0.8728  0.9981
   42MOL   H22210144   6.766   1.286   7.086 -1.4866  0.4095 -1.0087
   42MOL   H22310145   6.939   1.315   7.075 -0.8266 -1.0888  2.1210
   42MOL   H22410146   6.777   1.197   6.848 -0.6232  0.3111  0.7122
   42MOL   H22510147   6.874   0.992   6.883  2.1787 -1.3445  0.6146
   42MOL   H22610148   6.778   1.042   7.031 -0.1887 -1.4355  0.1231
   42MOL   H22710149   7.087   1.036   6.999 -0.5607 -0.3021  0.1702
   42MOL   H22810150   7.013   1.099   7.135  2.1632  0.6081 -0.7806
   42MOL   H22910151   7.000   0.926   7.093  4.4143 -0.8949  0.4297
   42MOL   C23010152   6.978   1.246   6.804 -0.7557  0.1778  0.2871
   42MOL   C23110153   6.974   1.167   6.674  0.3565 -0.2640 -0.3509
   42MOL   C23210154   7.071   1.218   6.570  0.3658  0.2654  0.1052
   42MOL   C23310155   7.075   1.140   6.437 -0.0915 -0.0598 -0.6208
   42MOL   H23410156   7.076   1.229   6.846 -0.5846  0.2833 -0.0658
   42MOL   H23510157   6.971   1.353   6.780  0.3435 -0.1189 -1.4149
   42MOL   H23610158   7.001   1.062   6.690 -0.3200 -0.4760 -0.5870
   42MOL   H23710159   7.167   1.224   6.622  0.3353  1.9100 -0.0147
   42MOL   H23810160   7.044   1.318   6.539  1.6023  0.6299  0.1628
   42MOL   H23910161   7.137   1.051   6.445  2.9369  2.1857  2.0901
   42MOL   H24010162   6.971   1.115   6.415 -0.5916  1.5021 -0.0656
   42MOL   H24110163   7.114   1.205   6.358 -1.9226  0.5733 -1.0198
   42MOL   H24210164   6.871   1.166   6.638  0.1476 -0.3844  0.2493
   43MOL     C110165   3.562   4.059   0.179 -0.0738  0.1023 -0.2137
   43MOL     C210166   3.560   3.915   0.110 -0.8797  0.3582 -0.7368
   43MOL     C310167   3.707   3.875   0.082  0.5319 -0.6668 -0.5206
   43MOL     C410168   3.730   3.725   0.037  0.7363 -0.2826 -0.1510
   43MOL     H510169   3.611   4.047   0.275 -1.0302  0.6879  0.3591
   43MOL     H610170   3.608   4.139   0.123  0.6748  2.2870  3.3973
   43MOL     H710171   3.521   3.847   0.186  0.1900  0.5194 -0.0412
   43MOL     H810172   3.772   3.902   0.165  1.7731 -0.3811 -1.5863
   43MOL     H910173   3.730   3.943   0.000  1.4868 -0.9669 -0.5005
   43MOL    H1010174   3.675   3.670   0.113 -0.6249  0.6262 -0.4681
   43MOL    H1110175   3.683   3.694   7.649  0.9695 -0.1414 -0.3152
   43MOL    H1210176   3.835   3.694   0.029  0.7203  0.0507 -1.9897
   43MOL    H1310177   3.461   4.089   0.209  0.4342  2.5872 -0.9332
   43MOL    C1410178   3.475   3.918   7.689  0.0080  0.3588 -0.1033
   43MOL    C1510179   3.324   3.945   0.004  0.2173  0.3601 -0.3846
   43MOL    C1610180   3.236   3.813   7.702  0.6923 -0.2947  0.3768
   43MOL    C1710181   3.251   3.727   0.119 -0.3175  0.1820  0.2662
   43MOL    H1810182   3.473   3.824   7.633  0.0113  0.8970 -1.0217
   43MOL    H1910183   3.514   3.986   7.613 -1.7308  0.8187 -0.6112
   43MOL    H2010184   3.298   3.993   0.099 -2.4240 -0.2169 -0.7674
   43MOL    H2110185   3.255   3.761   7.608  0.7328  1.0436 -0.3683
   43MOL    H2210186   3.131   3.841   7.694  0.5570 -1.2048 -1.0609
   43MOL    H2310187   3.211   3.773   0.209  1.2017 -0.5534  1.3402
   43MOL    H2410188   3.186   3.639   0.118  1.8825 -1.4811  0.3068
   43MOL    H2510189   3.354   3.695   0.135 -0.7922  0.3518  3.8810
   43MOL    C2610190   3.281   4.041   7.598 -0.5573  0.3422  0.3131
   43MOL    C2710191   3.141   4.095   7.604 -0.5956 -0.0118  0.2776
   43MOL    C2810192   3.081   4.117   7.464  0.2080 -0.9498  0.3675
   43MOL    C2910193   3.026   3.993   7.395  0.1683  0.4597 -0.5096
   43MOL    H3010194   3.295   3.988   7.504  0.3780 -2.6550  2.0846
   43MOL    H3110195   3.357   4.118   7.585 -1.3983  0.8985 -1.3784
   43MOL    H3210196   3.073   4.033   7.662  1.9305 -1.6934  1.5281
   43MOL    H3310197   3.160   4.167   7.408 -1.5214 -1.0469 -2.2114
   43MOL    H3410198   3.004   4.194   7.468  4.2282  3.1486  2.3180
   43MOL    H3510199   2.974   4.015   7.301  0.7204 -1.5927 -1.3391
   43MOL    H3610200   3.107   3.923   7.375  1.4391  2.1605 -1.4381
   43MOL    H3710201   2.961   3.936   7.461 -1.0236  1.0187 -1.1791
   43MOL    C3810202   3.144   4.234   7.672  0.9415 -0.1421  0.4026
   43MOL    C3910203   3.003   4.307   7.704 -0.2264 -0.1819  0.2941
   43MOL    C4010204   2.994   4.451   7.650 -0.3971  0.8626  0.7471
   43MOL    C4110205   2.976   4.462   7.501 -0.0895 -0.1201 -0.2916
   43MOL    H4210206   3.189   4.305   7.602  0.8173 -0.8301 -0.3896
   43MOL    H4310207   3.201   4.241   0.059  1.0085 -1.3225  0.4587
   43MOL    H4410208   2.917   4.259   7.658 -0.0954  0.7788 -0.9965
   43MOL    H4510209   3.083   4.506   7.680  0.8780 -0.8984  0.2362
   43MOL    H4610210   2.910   4.508   7.690 -1.0409  0.0895  0.4982
   43MOL    H4710211   2.948   4.564   7.478 -0.8536 -0.0715  0.8109
   43MOL    H4810212   3.067   4.443   7.443 -0.3492  0.7056 -0.9712
   43MOL    H4910213   2.895   4.392   7.482 -0.5787  0.6099 -0.9248
   43MOL    C5010214   2.971   4.298   0.152 -0.3900  0.7310  0.1897
   43MOL    C5110215   2.976   4.156   0.214 -0.2831  0.2163  0.5556
   43MOL    C5210216   2.849   4.084   0.168  0.1717  0.2457 -0.5945
   43MOL    C5310217   2.847   3.930   0.211 -0.2558  0.1707 -0.0090
   43MOL    H5410218   2.874   4.346   0.170 -0.9457 -0.5113  0.6157
   43MOL    H5510219   3.036   4.369   0.202 -0.3295  0.5249  0.4073
   43MOL    H5610220   3.063   4.103   0.177 -0.6716 -2.5286  3.3697
   43MOL    H5710221   2.844   4.072   0.060  0.7480 -0.6530 -0.5262
   43MOL    H5810222   2.757   4.138   0.190 -0.6098 -0.3377 -2.3532
   43MOL    H5910223   2.944   3.880   0.218 -1.0864 -1.5583 -0.7192
   43MOL    H6010224   2.810   3.914   0.312  0.2845  1.0405  0.3329
   43MOL    H6110225   2.781   3.875   0.144  1.1843 -0.3261 -1.0460
   43MOL    C6210226   2.973   4.172   0.371  0.0973  0.0471  0.6654
   43MOL    C6310227   3.105   4.229   0.436 -0.1507  0.3591 -1.0580
   43MOL    C6410228   3.235   4.147   0.385  1.3693  0.0538  0.3028
   43MOL    C6510229   3.234   4.000   0.423 -0.2092  0.7436 -0.5227
   43MOL    H6610230   2.959   4.069   0.402 -0.2058 -0.4712 -1.1473
   43MOL    H6710231   2.885   4.225   0.406 -0.2351 -1.3909  2.0665
   43MOL    H6810232   3.116   4.333   0.408 -1.3878  0.6392 -0.5515
   43MOL    H6910233   3.324   4.197   0.424  1.3774  1.6758 -1.7253
   43MOL    H7010234   3.231   4.162   0.277 -1.2239  1.1863  0.5037
   43MOL    H7110235   3.150   3.938   0.389  0.2970  0.5257 -1.3881
   43MOL    H7210236   3.316   3.946   0.376 -1.4274  0.6904 -2.6531
   43MOL    H7310237   3.241   3.990   0.532  0.6100 -0.7098 -0.6912
   43MOL    C7410238   3.081   4.219   0.593 -0.3684 -0.6367  0.3596
   43MOL    C7510239   3.196   4.251   0.693  0.6165 -0.5747 -0.1888
   43MOL    C7610240   3.165   4.220   0.846  0.0099  0.4330  0.4952
   43MOL    C7710241   3.155   4.082   0.895  0.2892 -0.2620 -0.1730
   43MOL    H7810242   3.046   4.116   0.603 -0.9628 -0.6878 -1.9245
   43MOL    H7910243   3.002   4.289   0.620  1.8462  1.3524  1.7831
   43MOL    H8010244   3.276   4.179   0.678  0.6128 -1.2258  2.6107
   43MOL    H8110245   3.080   4.278   0.884  0.7532  2.1002 -0.2955
   43MOL    H8210246   3.248   4.261   0.903 -0.8937  1.2130  1.2687
   43MOL    H8310247   3.140   4.076   1.003  2.0184  0.5637  0.1321
   43MOL    H8410248   3.075   4.027   0.846 -0.1997  1.2629 -1.0960
   43MOL    H8510249   3.248   4.028   0.874  0.8122 -0.0514  1.5224
   43MOL    C8610250   3.268   4.388   0.672 -0.0638 -0.2440 -0.5456
   43MOL    C8710251   3.184   4.524   0.678 -0.3274  1.0895  0.5826
   43MOL    C8810252   3.260   4.625   0.599 -0.3999 -0.6004  0.5406
   43MOL    C8910253   3.393   4.684   0.666 -0.2024  0.0244  0.1161
   43MOL    H9010254   3.309   4.374   0.572  0.0851 -0.7020 -0.4216
   43MOL    H9110255   3.354   4.398   0.738  0.5758  0.8799 -1.5343
   43MOL    H9210256   3.095   4.500   0.619 -0.4451  1.7617  0.4871
   43MOL    H9310257   3.200   4.710   0.568  1.7383  0.8605  0.2528
   43MOL    H9410258   3.291   4.584   0.503 -1.1408  1.7203 -0.7274
   43MOL    H9510259   3.379   4.721   0.767 -1.2776 -0.6258  0.2208
   43MOL    H9610260   3.468   4.607   0.687  0.7546  0.8257 -0.3285
   43MOL    H9710261   3.440   4.762   0.607  0.9135  0.0359  1.0152
   43MOL    C9810262   3.131   4.564   0.819 -0.9047 -0.2988  0.2338
   43MOL    C9910263   3.027   4.675   0.819  0.8978 -0.5412 -0.3610
   43MOL   C10010264   3.089   4.807   0.865  0.2593  0.3071 -0.4766
   43MOL   C10110265   3.120   4.805   1.015  0.7678 -0.3181  0.4879
   43MOL   H10210266   3.221   4.579   0.879 -0.1713  1.2706 -1.2271
   43MOL   H10310267   3.094   4.477   0.873  0.1231 -0.8331  0.0845
   43MOL   H10410268   3.002   4.701   0.716  0.5090 -0.6464 -0.2942
   43MOL   H10510269   3.023   4.892   0.847 -0.4840 -0.3440 -0.8545
   43MOL   H10610270   3.183   4.834   0.816  1.5328 -1.4109  0.9413
   43MOL   H10710271   3.170   4.715   1.050  0.6129 -0.1881  1.0530
   43MOL   H10810272   3.153   4.902   1.054 -1.8843  0.5431  0.7417
   43MOL   H10910273   3.020   4.787   1.056  0.1701  1.2365 -0.2263
   43MOL   C11010274   2.897   4.641   0.904  0.3768 -0.2784  0.3029
   43MOL   C11110275   2.778   4.570   0.837 -0.0712 -0.4736  1.0767
   43MOL   C11210276   2.817   4.429   0.790  0.6880  0.7427  0.4847
   43MOL   C11310277   2.703   4.331   0.760  0.2699  0.9683 -0.8305
   43MOL   H11410278   2.844   4.728   0.943 -0.1630  0.4641 -2.0003
   43MOL   H11510279   2.929   4.582   0.989  0.8743 -0.4992 -0.0295
   43MOL   H11610280   2.707   4.564   0.919 -0.1130 -0.7924  1.0160
   43MOL   H11710281   2.894   4.385   0.853  0.3423  0.7917  0.9411
   43MOL   H11810282   2.863   4.430   0.691 -1.6750  0.7172 -0.6378
   43MOL   H11910283   2.730   4.226   0.767 -2.6778  0.2605  0.7914
   43MOL   H12010284   2.628   4.335   0.839  0.6419 -0.5727 -0.3834
   43MOL   H12110285   2.661   4.339   0.660  0.5409  1.2872 -0.9187
   43MOL   C12210286   2.708   4.653   0.728 -0.0761  0.6721  0.0453
   43MOL   C12310287   2.649   4.792   0.772 -0.2603  0.3577 -0.1175
   43MOL   C12410288   2.539   4.783   0.883  0.0990  0.1510 -0.0706
   43MOL   C12510289   2.418   4.710   0.834 -0.2731 -0.5929 -0.2043
   43MOL   H12610290   2.623   4.601   0.683  1.7024 -2.7963  0.5797
   43MOL   H12710291   2.786   4.677   0.656 -0.2737  1.1175 -0.0216
   43MOL   H12810292   2.731   4.851   0.812 -0.6226 -0.0894  1.2912
   43MOL   H12910293   2.520   4.887   0.910  2.1647  1.0348 -1.8998
   43MOL   H13010294   2.577   4.724   0.967  1.4215  2.6393  1.1485
   43MOL   H13110295   2.444   4.607   0.813  1.6929 -0.0947 -0.3364
   43MOL   H13210296   2.336   4.708   0.906 -0.3423 -2.9093 -0.3337
   43MOL   H13310297   2.385   4.762   0.744  2.3871 -0.0889 -0.9399
   43MOL   C13410298   2.587   4.883   0.658  0.3685  1.2070 -0.4122
   43MOL   C13510299   2.692   4.960   0.581  0.6234  0.7596 -0.2630
   43MOL   C13610300   2.724   5.086   0.659  0.2827 -0.0667 -0.5243
   43MOL   C13710301   2.633   5.202   0.658  0.0556  0.4351 -0.6087
   43MOL   H13810302   2.497   4.939   0.686 -0.0687 -0.5469  1.8854
   43MOL   H13910303   2.550   4.802   0.595  0.9472  0.3807  0.2953
   43MOL   H14010304   2.786   4.906   0.573  0.3906  0.5991 -2.1614
   43MOL   H14110305   2.822   5.119   0.625  1.4204 -1.8987  0.8981
   43MOL   H14210306   2.739   5.067   0.765  1.2747 -0.1284 -0.6705
   43MOL   H14310307   2.602   5.233   0.559  0.9445 -1.3751 -1.4807
   43MOL   H14410308   2.544   5.182   0.717  1.2042  1.8927  1.7439
   43MOL   H14510309   2.674   5.288   0.713 -1.1456  0.5705  0.0974
   43MOL   C14610310   2.644   4.974   0.436  0.8714 -0.0226 -0.1419
   43MOL   C14710311   2.733   5.066   0.354 -0.1140 -0.0547  0.0353
   43MOL   C14810312   2.658   5.122   0.242  0.8419 -0.4356  0.3723
   43MOL   C14910313   2.717   5.250   0.191 -0.9132 -0.5230  0.1006
   43MOL   H15010314   2.543   5.016   0.432  1.6928  2.1755  1.3025
   43MOL   H15110315   2.644   4.876   0.390  1.6125  0.5205 -1.3284
   43MOL   H15210316   2.755   5.147   0.424 -2.0015  2.3330 -2.0142
   43MOL   H15310317   2.563   5.154   0.286  0.4448 -1.1542  0.0588
   43MOL   H15410318   2.642   5.041   0.171 -0.0074  0.4863 -0.5129
   43MOL   H15510319   2.815   5.236   0.144 -0.8510  3.0506 -1.0044
   43MOL   H15610320   2.644   5.300   0.127 -1.5954  0.5710  1.6979
   43MOL   H15710321   2.721   5.317   0.277 -0.6564 -0.5209  0.0873
   43MOL   C15810322   2.874   5.010   0.321 -0.7595 -0.8241  0.2527
   43MOL   C15910323   2.879   4.869   0.258 -0.0083  0.1801 -0.1071
   43MOL   C16010324   2.890   4.754   0.368 -0.3469 -0.0414  0.2725
   43MOL   C16110325   2.910   4.610   0.314  0.4235 -0.0862  0.5089
   43MOL   H16210326   2.936   5.009   0.411  1.2628 -0.2924 -1.0890
   43MOL   H16310327   2.924   5.079   0.252 -1.6258 -0.4312  0.0094
   43MOL   H16410328   2.794   4.842   0.196 -1.8267  1.4953  1.7590
   43MOL   H16510329   2.798   4.746   0.426  0.6941 -0.3573  1.9123
   43MOL   H16610330   2.963   4.777   0.446  1.9520  0.0066 -1.8458
   43MOL   H16710331   2.887   4.528   0.381  0.2954 -0.5397 -0.0906
   43MOL   H16810332   2.860   4.593   0.218 -0.5793  2.4272  0.5214
   43MOL   H16910333   3.016   4.603   0.293  0.4663  0.7512  0.4048
   43MOL   C17010334   2.996   4.856   0.162  0.1675 -0.2140  0.2307
   43MOL   C17110335   2.983   4.951   0.026  0.3292  0.2438 -0.0113
   43MOL   C17210336   2.908   4.892   7.613  0.2443  0.2022  0.3939
   43MOL   C17310337   2.760   4.854   7.640 -1.0710 -0.0296  0.4981
   43MOL   H17410338   3.012   4.754   0.126  0.5662  0.4842 -1.6576
   43MOL   H17510339   3.081   4.896   0.218  2.0516 -1.5939 -1.5598
   43MOL   H17610340   2.930   5.044   0.049 -0.2754 -0.4403  1.4477
   43MOL   H17710341   2.967   4.805   7.587  0.6615  0.3986  0.6684
   43MOL   H17810342   2.909   4.962   7.530 -3.4569 -2.2592 -1.8720
   43MOL   H17910343   2.717   4.816   7.547 -3.8793 -0.9926  2.1150
   43MOL   H18010344   2.746   4.779   0.012 -0.5070 -1.1009 -0.4063
   43MOL   H18110345   2.704   4.946   7.655 -2.6941 -1.0216  0.6591
   43MOL   C18210346   3.123   4.989   7.680  0.6722  0.3303 -1.1157
   43MOL   C18310347   3.184   5.108   0.052  0.2062  0.0481 -0.2963
   43MOL   C18410348   3.143   5.250   7.699  0.8862 -0.1537  0.4564
   43MOL   C18510349   3.134   5.364   0.096  0.6258  0.1850 -0.8458
   43MOL   H18610350   3.123   4.999   7.572  0.9968  1.6047 -1.0064
   43MOL   H18710351   3.195   4.910   7.704 -0.2460 -0.5698 -1.2998
   43MOL   H18810352   3.138   5.094   0.150  0.2140  0.0547 -0.2917
   43MOL   H18910353   3.044   5.236   7.658  0.2601 -0.3793  1.9976
   43MOL   H19010354   3.194   5.281   7.607  1.5010 -0.7330  0.5942
   43MOL   H19110355   3.228   5.384   0.147  0.5439 -0.8721 -0.2625
   43MOL   H19210356   3.096   5.456   0.052 -0.2711  0.2098 -0.0514
   43MOL   H19310357   3.058   5.344   0.172  3.6357 -0.6883  2.0925
   43MOL   C19410358   3.341   5.090   0.053 -0.3274 -0.6877  0.5674
   43MOL   C19510359   3.394   4.985   0.160  0.1550  0.2637 -0.1655
   43MOL   C19610360   3.374   5.045   0.307 -0.1583 -0.2382  0.6842
   43MOL   C19710361   3.429   5.185   0.337  0.2508 -0.1227  0.2938
   43MOL   H19810362   3.386   5.188   0.071  0.3173 -0.7495 -0.6583
   43MOL   H19910363   3.373   5.072   7.656 -1.4093  0.2488  0.0542
   43MOL   H20010364   3.328   4.899   0.156  0.7676 -0.1608 -1.4259
   43MOL   H20110365   3.416   4.980   0.383  1.6744 -0.9728 -0.8952
   43MOL   H20210366   3.266   5.057   0.311 -0.2596  0.1264 -2.1401
   43MOL   H20310367   3.361   5.263   0.304 -0.7793 -0.8731  0.6168
   43MOL   H20410368   3.432   5.207   0.444 -0.0555 -1.0780  0.5043
   43MOL   H20510369   3.531   5.206   0.304  0.9013 -1.7933  1.1451
   43MOL   C20610370   3.539   4.937   0.132 -0.0191 -0.3559 -0.0880
   43MOL   C20710371   3.604   4.847   0.238 -0.0947 -0.2495  0.4044
   43MOL   C20810372   3.763   4.836   0.229  0.0296  0.1842 -0.2107
   43MOL   C20910373   3.832   4.789   0.354 -0.3917  0.0068  0.4294
   43MOL   H21010374   3.603   5.025   0.122 -1.1131  0.7068  1.9008
   43MOL   H21110375   3.545   4.904   0.028  0.7316 -1.3242  0.2607
   43MOL   H21210376   3.603   4.902   0.332  0.4016  0.1910  0.1566
   43MOL   H21310377   3.803   4.937   0.215  5.3026 -1.7661 -0.1609
   43MOL   H21410378   3.790   4.777   0.141 -1.3798  0.7588 -1.0548
   43MOL   H21510379   3.802   4.857   0.435 -0.6089  0.5378 -0.0941
   43MOL   H21610380   3.810   4.687   0.385  1.5455 -0.0976  1.5711
   43MOL   H21710381   3.940   4.774   0.347 -0.6549 -1.7201 -0.0157
   43MOL   C21810382   3.539   4.710   0.258 -0.3087  0.2949  0.2834
   43MOL   C21910383   3.564   4.606   0.143  0.2992  1.0809  0.0495
   43MOL   C22010384   3.434   4.547   0.085  0.2537  0.0100  0.2974
   43MOL   C22110385   3.333   4.497   0.193 -0.2325  0.2710  0.0932
   43MOL   H22210386   3.436   4.735   0.282 -0.1475  1.5195 -0.2845
   43MOL   H22310387   3.575   4.668   0.352  0.2199  1.5850  0.6686
   43MOL   H22410388   3.597   4.657   0.052  1.4361 -2.4435 -1.5797
   43MOL   H22510389   3.451   4.459   0.022 -0.2103  0.9981 -1.2277
   43MOL   H22610390   3.393   4.612   0.008  2.0673  0.2856 -0.4752
   43MOL   H22710391   3.243   4.469   0.139 -1.6413  0.8002  2.1171
   43MOL   H22810392   3.387   4.415   0.242 -1.6512 -1.1655 -0.7102
   43MOL   H22910393   3.297   4.570   0.265 -2.8928 -0.9846  0.0968
   43MOL   C23010394   3.668   4.497   0.189  0.7842  0.1403  0.1449
   43MOL   C23110395   3.741   4.426   0.073  0.5062  0.3995  0.1520
   43MOL   C23210396   3.859   4.342   0.130 -0.2907 -0.4522  0.9852
   43MOL   C23310397   3.952   4.285   0.023  0.3633  0.5239 -0.0703
   43MOL   H23410398   3.621   4.430   0.261 -1.7418 -0.3280 -1.8230
   43MOL   H23510399   3.741   4.545   0.253 -1.0037  2.3270  0.6274
   43MOL   H23610400   3.676   4.362   0.013 -0.0857  1.2176 -0.0829
   43MOL   H23710401   3.823   4.260   0.192 -0.0360 -1.1427  0.2327
   43MOL   H23810402   3.923   4.407   0.190  0.2273  1.3488 -1.4041
   43MOL   H23910403   4.038   4.241   0.074 -0.0524  0.3472  0.4818
   43MOL   H24010404   3.916   4.208   7.660  1.2315 -1.7778  1.9417
   43MOL   H24110405   3.992   4.367   7.671 -0.1067  1.8624  1.4542
   43MOL   H24210406   3.776   4.507   0.009 -1.1625  0.7816 -0.3016
   44MOL     C110407   0.030   7.238   7.000  0.3119 -0.0701  0.3086
   44MOL     C210408   7.620   7.337   6.983  0.1947  0.7237  0.3871
   44MOL     C310409   7.654   7.465   7.060  0.3577  0.2903  0.7666
   44MOL     C410410   7.559   7.584   7.025 -0.2706  0.0203 -0.4877
   44MOL     H510411   0.031   7.197   7.101  2.3239  0.4302  0.5228
   44MOL     H610412   0.032   7.144   6.945  1.8261  1.0705 -1.6784
   44MOL     H710413   7.612   7.370   6.879 -2.7374  2.1908  1.0113
   44MOL     H810414   0.051   7.500   7.057  0.8526 -1.0458  1.7582
   44MOL     H910415   7.656   7.444   7.167 -1.6562 -0.2422  0.7186
   44MOL    H1010416   7.453   7.561   7.037  0.1643 -0.5103  2.8000
   44MOL    H1110417   7.564   7.674   7.087  1.9040  0.0149 -0.6468
   44MOL    H1210418   7.569   7.605   6.919 -0.4988 -0.3173 -0.5774
   44MOL    H1310419   0.126   7.288   6.986  0.0469  0.3424 -0.0508
   44MOL    C1410420   7.480   7.283   7.021  0.8240  0.4197  0.0910
   44MOL    C1510421   7.392   7.235   6.900  0.0146  0.5477 -0.8081
   44MOL    C1610422   7.330   7.354   6.817 -0.1220  0.4420 -0.4765
   44MOL    C1710423   7.217   7.442   6.877 -0.0353 -0.3768 -0.4798
   44MOL    H1810424   7.421   7.352   7.082 -0.5450 -0.0097 -0.7265
   44MOL    H1910425   7.492   7.204   7.094 -0.0308  1.9040  1.8780
   44MOL    H2010426   7.457   7.188   6.826 -0.5981 -1.6033 -0.0269
   44MOL    H2110427   7.315   7.332   6.712  0.5750  0.6602 -0.6265
   44MOL    H2210428   7.413   7.424   6.808 -0.7410  1.3045  0.4046
   44MOL    H2310429   7.251   7.545   6.887 -0.1192 -0.3462 -0.5150
   44MOL    H2410430   7.131   7.450   6.811 -0.1758  0.3284 -0.2241
   44MOL    H2510431   7.194   7.403   6.976  1.0083  0.0669 -0.0577
   44MOL    C2610432   7.286   7.126   6.928 -0.5869 -0.7496 -0.6197
   44MOL    C2710433   7.193   7.097   6.812 -0.2181  0.5264  0.5657
   44MOL    C2810434   7.071   7.020   6.867  0.4284  0.3865  0.2000
   44MOL    C2910435   6.948   7.104   6.855  0.6666  0.2898  0.3480
   44MOL    H3010436   7.231   7.148   7.020  0.2696  0.5190 -0.3862
   44MOL    H3110437   7.344   7.044   6.972 -0.1943  0.5995  1.4597
   44MOL    H3210438   7.160   7.195   6.777  0.3706  0.9867  1.2783
   44MOL    H3310439   7.070   6.991   6.972  0.8505 -0.3153  0.0118
   44MOL    H3410440   7.052   6.923   6.821 -1.3923  2.1266 -2.8627
   44MOL    H3510441   6.953   7.190   6.921 -0.0586  1.3916 -0.9929
   44MOL    H3610442   6.949   7.141   6.752 -0.1028 -2.9523 -0.8642
   44MOL    H3710443   6.854   7.053   6.871 -1.1049  3.2510 -0.1619
   44MOL    C3810444   7.264   7.022   6.701 -0.3901  0.4944  0.4929
   44MOL    C3910445   7.183   7.000   6.565  0.1070  0.5966 -0.7979
   44MOL    C4010446   7.246   6.908   6.459  0.1291  0.2387  1.3210
   44MOL    C4110447   7.322   6.783   6.505  0.4693  0.0208 -0.5911
   44MOL    H4210448   7.298   6.929   6.746 -2.1342 -0.3792  0.0250
   44MOL    H4310449   7.356   7.075   6.673  1.3133 -1.9899  1.1838
   44MOL    H4410450   7.093   6.948   6.599 -1.2165  1.1381 -3.2910
   44MOL    H4510451   7.322   6.972   6.415 -0.8232  1.4546  1.4406
   44MOL    H4610452   7.175   6.874   6.384  0.9389  2.3383 -0.4409
   44MOL    H4710453   7.364   6.731   6.418 -2.3426 -1.4939 -1.1034
   44MOL    H4810454   7.400   6.788   6.581 -0.7038 -2.5103  0.8412
   44MOL    H4910455   7.246   6.715   6.543 -0.5013  1.1457 -0.5118
   44MOL    C5010456   7.150   7.142   6.501  0.7113  0.7251 -0.4272
   44MOL    C5110457   7.003   7.158   6.446 -0.7774 -0.0383 -0.2043
   44MOL    C5210458   6.960   7.065   6.334  0.3265  0.5234 -0.2230
   44MOL    C5310459   6.813   7.054   6.297  0.3397 -0.6175 -0.0178
   44MOL    H5410460   7.225   7.171   6.428  1.5155  3.4883  1.4273
   44MOL    H5510461   7.160   7.216   6.580 -0.7161 -0.5435  0.9807
   44MOL    H5610462   6.931   7.139   6.525 -1.3548  0.6615 -0.5540
   44MOL    H5710463   6.996   6.966   6.363  2.0757  0.7014 -1.6669
   44MOL    H5810464   7.016   7.083   6.242  1.1061 -0.1614  0.1113
   44MOL    H5910465   6.790   6.971   6.231 -0.7981  0.2181 -0.6949
   44MOL    H6010466   6.755   7.041   6.388  0.9158 -1.6488  0.2047
   44MOL    H6110467   6.775   7.151   6.264  2.0837 -0.1520 -0.7349
   44MOL    C6210468   6.984   7.304   6.401  0.8077 -0.7585  0.0680
   44MOL    C6310469   6.940   7.411   6.510  0.6327  0.3286  0.3940
   44MOL    C6410470   6.800   7.385   6.584  0.1767  0.1813  0.2116
   44MOL    C6510471   6.775   7.459   6.729 -0.4035 -0.5428  0.1016
   44MOL    H6610472   6.908   7.313   6.323  1.7377  1.4204 -0.6432
   44MOL    H6710473   7.071   7.346   6.351  0.4354 -0.4154 -0.3026
   44MOL    H6810474   7.021   7.410   6.583  0.2785  0.8913  0.7924
   44MOL    H6910475   6.786   7.279   6.605  0.3286 -0.0335 -0.7203
   44MOL    H7010476   6.715   7.408   6.520 -0.4456  0.0783  0.9960
   44MOL    H7110477   6.827   7.412   6.812  1.1240  1.4201  0.2958
   44MOL    H7210478   6.819   7.559   6.732  1.4735 -1.3352 -0.2517
   44MOL    H7310479   6.670   7.467   6.756 -0.4574 -0.2776 -0.1809
   44MOL    C7410480   6.930   7.547   6.445  0.2318  0.1835 -0.0729
   44MOL    C7510481   7.064   7.620   6.417  0.4411  0.2446  0.0640
   44MOL    C7610482   7.142   7.660   6.549  0.1259  0.8925  0.3495
   44MOL    C7710483   7.292   7.682   6.515  0.5793 -0.4142 -0.0445
   44MOL    H7810484   6.863   7.612   6.501  0.1231 -0.3044  0.3682
   44MOL    H7910485   6.877   7.533   6.350 -1.9608 -1.4862  1.3477
   44MOL    H8010486   7.126   7.541   6.374 -0.2852  0.2414 -0.9757
   44MOL    H8110487   7.132   7.582   6.626 -0.8930 -0.8230 -1.4776
   44MOL    H8210488   7.086   0.044   6.574 -4.2400 -2.0330  1.7409
   44MOL    H8310489   7.356   7.602   6.477  0.8526  0.2750 -1.0234
   44MOL    H8410490   7.304   0.047   6.434 -0.9921 -1.2951 -1.0623
   44MOL    H8510491   7.341   0.026   6.599 -1.8586  0.6686  0.7773
   44MOL    C8610492   7.058   0.033   6.311 -0.5363 -0.3723  0.5118
   44MOL    C8710493   7.083   7.684   6.168 -0.2803  0.0172  0.2273
   44MOL    C8810494   7.241   7.665   6.144  0.1180  0.2008  0.0046
   44MOL    C8910495   7.325   0.087   6.125  0.1017  0.1230  0.2610
   44MOL    H9010496   7.140   0.101   6.332  1.7357 -2.3525 -1.5414
   44MOL    H9110497   6.963   0.085   6.315 -0.4719 -0.0910 -1.2044
   44MOL    H9210498   7.036   7.588   6.151 -3.1242  1.0251  2.0036
   44MOL    H9310499   7.248   7.611   6.050  1.3959  0.5372 -0.1033
   44MOL    H9410500   7.279   7.593   6.216 -0.2872 -0.6504 -0.6214
   44MOL    H9510501   7.430   0.064   6.106  0.2288 -0.0962  1.2058
   44MOL    H9610502   7.290   0.146   6.040  0.5829 -0.6513 -0.4783
   44MOL    H9710503   7.317   0.161   6.205 -0.3841  1.7441 -1.2377
   44MOL    C9810504   7.006   0.064   6.062 -0.1393  0.2912  0.0539
   44MOL    C9910505   6.859   0.030   6.019 -0.3258 -0.1221 -0.0720
   44MOL   C10010506   6.828   0.116   5.896 -0.0444  0.6723  0.2783
   44MOL   C10110507   6.886   0.065   5.765  0.3485 -0.3752 -0.3090
   44MOL   H10210508   7.062   0.067   5.969 -0.9466 -0.6561 -0.4705
   44MOL   H10310509   7.003   0.169   6.092  1.8156  0.3384  0.1725
   44MOL   H10410510   6.871   7.631   5.992 -0.3473 -0.7502  2.2844
   44MOL   H10510511   6.834   0.223   5.915 -0.2580  0.6631  0.3932
   44MOL   H10610512   6.722   0.098   5.876 -0.1839  1.8761 -0.1063
   44MOL   H10710513   6.840   0.119   5.682 -0.9180  0.4326  0.8873
   44MOL   H10810514   6.995   0.068   5.766  0.3483 -0.7549  1.1729
   44MOL   H10910515   6.856   7.667   5.759 -4.0148  0.7359  0.6017
   44MOL   C11010516   6.757   0.048   6.130  0.4993 -0.5302 -0.0809
   44MOL   C11110517   6.602   0.032   6.095  0.1890 -0.5408  0.9619
   44MOL   C11210518   6.524   0.036   6.228 -0.4468 -0.0417  0.8111
   44MOL   C11310519   6.532   7.622   6.324  0.3885  0.3013 -0.5345
   44MOL   H11410520   6.769   0.148   6.172 -0.4473 -0.4254 -0.0454
   44MOL   H11510521   6.781   7.681   6.207 -1.1531  0.3629  1.3350
   44MOL   H11610522   6.574   0.122   6.039 -1.6245 -0.5728  1.7776
   44MOL   H11710523   6.419   0.049   6.201 -0.2681 -1.2146 -0.5004
   44MOL   H11810524   6.555   0.123   6.286 -1.6205  1.4980 -0.7937
   44MOL   H11910525   6.526   7.526   6.274  3.6518 -0.6310  0.7041
   44MOL   H12010526   6.633   7.610   6.365 -0.1197 -1.3986  0.2255
   44MOL   H12110527   6.465   7.630   6.410 -0.3992 -1.0694 -1.0093
   44MOL   C12210528   6.570   7.611   6.013  0.1575 -0.5405 -0.6550
   44MOL   C12310529   6.421   7.592   5.966 -0.1318 -0.0753 -0.0999
   44MOL   C12410530   6.417   7.454   5.892  0.2394 -0.1756 -0.2276
   44MOL   C12510531   6.502   7.437   5.760 -0.1066  0.7733 -0.3783
   44MOL   H12610532   6.594   7.529   6.081 -1.2093 -1.4698 -1.2713
   44MOL   H12710533   6.641   7.602   5.931 -0.7435 -0.8380 -1.4077
   44MOL   H12810534   6.362   7.582   6.057 -0.2230 -0.8303 -0.2398
   44MOL   H12910535   6.312   7.436   5.872 -0.0626  0.4527  0.7298
   44MOL   H13010536   6.458   7.382   5.964  0.6148  0.1590 -0.0999
   44MOL   H13110537   6.607   7.435   5.791  0.1086  0.2025 -1.1398
   44MOL   H13210538   6.495   7.341   5.709  1.4819  0.9001 -0.8596
   44MOL   H13310539   6.488   7.518   5.689  0.2295  2.0870  1.0108
   44MOL   C13410540   6.373   0.001   5.868  0.1878  0.4556  1.5424
   44MOL   C13510541   6.234   0.005   5.808  0.8890 -0.3921  0.6215
   44MOL   C13610542   6.218   0.098   5.686 -0.3337 -0.2594 -0.5592
   44MOL   C13710543   6.291   0.042   5.563 -1.1385 -0.6523  0.0346
   44MOL   H13810544   6.450   0.000   5.790 -0.4730 -0.5648  0.8841
   44MOL   H13910545   6.376   0.096   5.920 -0.1897  1.7978 -0.8071
   44MOL   H14010546   6.230   7.609   5.769  2.6998 -0.4522  0.5513
   44MOL   H14110547   6.263   0.193   5.717  0.6938 -1.2187  0.9805
   44MOL   H14210548   6.113   0.117   5.665 -0.9004 -0.8715  1.6621
   44MOL   H14310549   6.235   7.675   5.505  0.3508 -1.9544  0.2103
   44MOL   H14410550   6.302   0.117   5.484  2.3822 -0.8121  0.2841
   44MOL   H14510551   6.391   0.005   5.588 -0.6153  1.9588  2.1667
   44MOL   C14610552   6.124   0.040   5.910  0.0606  0.8298  0.3058
   44MOL   C14710553   6.006   7.642   5.898  0.0372 -0.0917  0.3563
   44MOL   C14810554   5.950   7.615   5.759  0.6364 -0.8319  0.4881
   44MOL   C14910555   5.875   7.484   5.739 -0.0788 -0.0002 -0.3643
   44MOL   H15010556   6.092   0.144   5.912 -1.6229  0.3038  0.7846
   44MOL   H15110557   6.169   0.018   6.007  0.8763 -0.4566 -0.3543
   44MOL   H15210558   6.056   7.553   5.936 -1.0704 -0.7011  0.4152
   44MOL   H15310559   6.021   7.619   5.676  1.0884 -2.5819  0.7664
   44MOL   H15410560   5.879   7.693   5.729  0.6340 -0.7712  0.6551
   44MOL   H15510561   5.848   7.463   5.635  4.7949 -0.9241 -1.5293
   44MOL   H15610562   5.943   7.405   5.770 -0.2239  0.9639  2.5092
   44MOL   H15710563   5.785   7.479   5.801  0.7229  0.1314  0.8119
   44MOL   C15810564   5.893   7.674   5.999  0.0263  0.2865 -0.0188
   44MOL   C15910565   5.938   0.006   6.143 -0.0954 -0.8904 -0.4654
   44MOL   C16010566   6.010   7.589   6.209  0.3279 -0.5697  0.5322
   44MOL   C16110567   6.075   7.606   6.340 -0.4085  0.6268  0.5239
   44MOL   H16210568   5.813   7.601   6.007  1.5346 -1.4429 -0.4541
   44MOL   H16310569   5.836   0.051   5.958 -0.7994  0.2196  0.9822
   44MOL   H16410570   6.004   0.092   6.138  0.2249 -1.1517 -0.7048
   44MOL   H16510571   6.090   7.549   6.147  1.0658  0.9043  0.5033
   44MOL   H16610572   5.935   7.511   6.219 -0.9660  0.7649  1.4191
   44MOL   H16710573   6.132   7.516   6.365 -2.4790 -0.3026  2.0685
   44MOL   H16810574   6.140   7.693   6.350  3.0197 -1.6582 -0.8751
   44MOL   H16910575   5.997   7.611   6.416  1.0344  1.8258  1.9562
   44MOL   C17010576   5.807   0.058   6.221  0.9527 -1.0951 -0.4557
   44MOL   C17110577   5.829   0.157   6.337 -0.0641  0.1594  0.3911
   44MOL   C17210578   5.696   0.159   6.426 -0.5739 -0.0448  0.4197
   44MOL   C17310579   5.563   0.179   6.352 -0.4346  0.1352 -1.0721
   44MOL   H17410580   5.765   7.675   6.270  2.5081 -1.0799  0.9532
   44MOL   H17510581   5.740   0.105   6.149  1.1761  1.6219  1.0423
   44MOL   H17610582   5.909   0.114   6.398 -1.0957  1.7789  2.9675
   44MOL   H17710583   5.715   0.234   6.503  0.4585  0.6687 -0.5076
   44MOL   H17810584   5.692   0.067   6.485 -1.4946  0.6270  1.4285
   44MOL   H17910585   5.559   0.267   6.287 -1.7239  0.5048 -0.5168
   44MOL   H18010586   5.519   0.100   6.291  0.4643 -0.2153 -1.2614
   44MOL   H18110587   5.494   0.189   6.436 -2.8052 -2.6048 -2.6276
   44MOL   C18210588   5.872   0.293   6.288  0.3221 -0.4585 -0.4966
   44MOL   C18310589   6.002   0.346   6.360 -0.1708  0.1097 -0.0906
   44MOL   C18410590   5.973   0.366   6.506  0.3707  0.6182  0.2415
   44MOL   C18510591   5.866   0.474   6.547 -0.3867  0.5973 -0.4291
   44MOL   H18610592   5.790   0.362   6.270  1.4537  0.7732 -1.0230
   44MOL   H18710593   5.895   0.277   6.182 -2.0574 -0.5642 -1.0162
   44MOL   H18810594   6.085   0.276   6.349  0.0659  0.6620 -2.0607
   44MOL   H18910595   6.063   0.401   6.556  1.9864 -1.4463 -1.1466
   44MOL   H19010596   5.954   0.268   6.551  1.0600 -1.0283 -2.9083
   44MOL   H19110597   5.907   0.573   6.526 -0.8265  0.7680 -0.4817
   44MOL   H19210598   5.769   0.466   6.497 -0.7152  0.7575  0.1852
   44MOL   H19310599   5.864   0.478   6.656  0.3628  0.4494 -0.4023
   44MOL   C19410600   6.057   0.475   6.293  0.2727 -0.3645  0.3615
   44MOL   C19510601   6.144   0.448   6.171 -0.8610 -0.3492 -0.1680
   44MOL   C19610602   6.291   0.428   6.213 -0.4835  0.1134  0.0461
   44MOL   C19710603   6.373   0.378   6.102 -0.1411  0.3398 -0.0910
   44MOL   H19810604   6.104   0.538   6.370  0.8855 -0.7545  0.3077
   44MOL   H19910605   5.972   0.541   6.279 -0.4274 -1.3017  0.1439
   44MOL   H20010606   6.119   0.359   6.113 -1.0048 -1.7460  2.0036
   44MOL   H20110607   6.281   0.363   6.300 -0.1707 -0.1793 -0.1329
   44MOL   H20210608   6.328   0.526   6.243  1.0296 -0.8930  1.5838
   44MOL   H20310609   6.389   0.457   6.029  1.6083 -0.0372 -0.1303
   44MOL   H20410610   6.465   0.346   6.151 -0.3543 -0.8802 -0.4593
   44MOL   H20510611   6.333   0.290   6.052 -3.8444  0.6487  2.1477
   44MOL   C20610612   6.123   0.566   6.079 -0.0751 -0.4936  0.0664
   44MOL   C20710613   5.992   0.558   5.998  0.6334 -0.2787  0.6843
   44MOL   C20810614   5.983   0.438   5.895 -0.5969  0.2294  0.2998
   44MOL   C20910615   6.113   0.424   5.809 -0.5613 -0.0384  0.4779
   44MOL   H21010616   6.209   0.586   6.014  0.2092  1.0856  0.9024
   44MOL   H21110617   6.127   0.655   6.141 -1.0558 -1.5018  1.5965
   44MOL   H21210618   5.907   0.545   6.065 -0.2703  1.4774 -0.0806
   44MOL   H21310619   5.898   0.435   5.826  1.4522  3.6413 -2.5547
   44MOL   H21410620   5.988   0.342   5.947  0.9352  0.1961  0.1231
   44MOL   H21510621   6.188   0.371   5.867 -1.3514 -0.9536  0.6810
   44MOL   H21610622   6.077   0.347   5.741 -1.3894 -0.2160  1.1096
   44MOL   H21710623   6.152   0.517   5.767  1.2726 -0.1866  1.8109
   44MOL   C21810624   5.975   0.689   5.927  0.4434  0.0195 -0.7291
   44MOL   C21910625   5.961   0.819   6.014 -0.3918 -0.3884  0.7865
   44MOL   C22010626   5.872   0.811   6.137  1.4708 -0.4204  0.1312
   44MOL   C22110627   5.731   0.767   6.116 -0.6519  0.1723 -0.4278
   44MOL   H22210628   5.886   0.684   5.864  0.9944  0.3937 -1.5325
   44MOL   H22310629   6.060   0.701   5.860 -0.5512 -1.8792 -2.3987
   44MOL   H22410630   6.060   0.839   6.054  0.4145  2.2491 -2.2883
   44MOL   H22510631   5.868   0.907   6.190  1.1604  0.8141 -2.0533
   44MOL   H22610632   5.915   0.746   6.214  2.7751  0.1425 -0.0986
   44MOL   H22710633   5.690   0.726   6.208  0.7664 -0.6925 -0.1735
   44MOL   H22810634   5.662   0.848   6.093  0.3665  1.7427  1.8579
   44MOL   H22910635   5.732   0.687   6.041  0.2519  0.2613 -0.5163
   44MOL   C23010636   5.937   0.930   5.912  0.4925 -0.9601  0.1047
   44MOL   C23110637   5.942   1.068   5.974 -0.0603  0.3076 -0.7525
   44MOL   C23210638   5.968   1.173   5.865 -0.2690 -0.7844  0.2827
   44MOL   C23310639   6.002   1.318   5.909  0.2686 -0.2752 -0.1148
   44MOL   H23410640   5.842   0.905   5.865 -0.2291 -0.5905  1.3435
   44MOL   H23510641   6.017   0.925   5.837 -1.1208  0.6939 -1.7932
   44MOL   H23610642   5.854   1.083   6.037  1.0496  1.3072  0.6028
   44MOL   H23710643   5.897   1.172   5.783  0.7222 -1.9531 -0.5780
   44MOL   H23810644   6.054   1.134   5.810 -1.9722 -2.2580 -1.4160
   44MOL   H23910645   6.089   1.308   5.974 -0.0572 -0.5393  0.2854
   44MOL   H24010646   6.027   1.388   5.830 -1.4077  0.2686 -0.1776
   44MOL   H24110647   5.924   1.361   5.972 -1.2091  0.1861 -2.2017
   44MOL   H24210648   6.021   1.074   6.049 -1.5789  0.4687  0.8695
   45MOL     C110649   2.031   0.201   6.630  0.1443 -0.0517 -0.0609
   45MOL     C210650   2.014   0.311   6.735  0.0278  0.2499 -0.2563
   45MOL     C310651   1.936   0.432   6.685  0.1911 -0.5753  0.0272
   45MOL     C410652   2.011   0.507   6.571 -0.0781  0.5308 -0.0568
   45MOL     H510653   1.929   0.165   6.613 -0.9823  1.8089  2.4763
   45MOL     H610654   2.077   0.228   6.535 -1.0379  1.1615 -0.3156
   45MOL     H710655   1.948   0.272   6.812  1.0762 -0.7000  0.1623
   45MOL     H810656   1.911   0.493   6.771 -2.3405 -0.8547 -0.4580
   45MOL     H910657   1.843   0.389   6.648 -1.1669  0.7262  1.8528
   45MOL    H1010658   1.966   0.604   6.549 -0.1174 -0.1092 -2.9409
   45MOL    H1110659   2.114   0.538   6.590 -0.5298  2.4617 -0.6587
   45MOL    H1210660   2.009   0.458   6.474 -1.8394 -0.0554  0.2623
   45MOL    H1310661   2.090   0.119   6.671 -0.7451 -1.3801 -1.3665
   45MOL    C1410662   2.149   0.347   6.800 -0.1645  0.4582  0.4565
   45MOL    C1510663   2.230   0.238   6.873 -0.2264 -0.1488  0.7284
   45MOL    C1610664   2.140   0.165   6.969 -0.8738 -0.4809  0.4850
   45MOL    C1710665   2.096   0.233   7.105 -0.1492  0.0886 -0.0768
   45MOL    H1810666   2.133   0.431   6.868 -1.4233 -0.1332  0.9129
   45MOL    H1910667   2.220   0.380   6.723  0.5059 -1.4624  0.2278
   45MOL    H2010668   2.269   0.158   6.810  2.6322  0.1543  2.0360
   45MOL    H2110669   2.199   0.076   6.988 -1.0955 -0.7407 -0.0080
   45MOL    H2210670   2.058   0.124   6.910  0.3183 -3.7527  1.0365
   45MOL    H2310671   2.016   0.305   7.086  1.1908  1.3794 -0.9738
   45MOL    H2410672   2.058   0.171   7.186  2.0155 -5.2376 -2.9042
   45MOL    H2510673   2.170   0.301   7.147 -0.9776  0.9609  0.0095
   45MOL    C2610674   2.359   0.288   6.940 -0.3690 -0.0517 -0.0590
   45MOL    C2710675   2.469   0.337   6.853 -0.2113 -0.1827 -0.0230
   45MOL    C2810676   2.540   0.215   6.786 -0.1854  0.3517 -0.0120
   45MOL    C2910677   2.628   0.267   6.671  0.5828 -0.4286  0.6357
   45MOL    H3010678   2.387   0.202   7.001 -1.7061  0.5067  1.3726
   45MOL    H3110679   2.331   0.367   7.009  2.8480  1.5251 -0.4778
   45MOL    H3210680   2.438   0.401   6.770 -1.2351  0.1489  0.6037
   45MOL    H3310681   2.471   0.148   6.734 -1.5324  2.5757 -1.1646
   45MOL    H3410682   2.596   0.156   6.859 -0.9550  0.9634  1.0979
   45MOL    H3510683   2.583   0.347   6.611 -0.7957 -2.0795 -0.5808
   45MOL    H3610684   2.720   0.319   6.699 -0.0571 -1.4322  4.8576
   45MOL    H3710685   2.647   0.182   6.606 -1.6631  1.3950 -2.5564
   45MOL    C3810686   2.579   0.416   6.933 -0.3116  0.7543  0.6741
   45MOL    C3910687   2.535   0.563   6.973  0.5495  0.1714 -0.2513
   45MOL    C4010688   2.536   0.655   6.848 -0.4459  0.3939  0.9630
   45MOL    C4110689   2.479   0.791   6.873  0.4826  0.3760  0.0076
   45MOL    H4210690   2.664   0.433   6.867 -1.0760 -3.0018 -1.3769
   45MOL    H4310691   2.607   0.364   7.024 -0.6075 -1.9847 -0.7710
   45MOL    H4410692   2.435   0.565   7.016  0.4460 -0.8164 -0.4295
   45MOL    H4510693   2.469   0.615   6.772  0.2980  2.1952 -0.6809
   45MOL    H4610694   2.641   0.654   6.818 -0.5601 -1.5601  0.6006
   45MOL    H4710695   2.384   0.790   6.926  0.2714  0.9106 -0.3623
   45MOL    H4810696   2.553   0.843   6.935 -1.0473  0.9656  1.3691
   45MOL    H4910697   2.461   0.836   6.775  2.0093 -1.9339 -1.3952
   45MOL    C5010698   2.638   0.616   7.072 -0.1456  0.0793  0.4475
   45MOL    C5110699   2.610   0.613   7.226 -0.0266  0.3024 -0.2910
   45MOL    C5210700   2.488   0.702   7.280  0.3636 -0.1535 -0.4042
   45MOL    C5310701   2.440   0.675   7.420  0.6688  0.3843 -0.2189
   45MOL    H5410702   2.673   0.715   7.045  0.7769 -0.8324 -1.8409
   45MOL    H5510703   2.731   0.568   7.041  0.2118  1.0628 -0.0093
   45MOL    H5610704   2.579   0.511   7.251  1.2359 -0.0471 -0.0724
   45MOL    H5710705   2.405   0.683   7.212  0.1536  3.7837 -1.3843
   45MOL    H5810706   2.519   0.804   7.258 -1.6264  0.2619 -1.3967
   45MOL    H5910707   2.393   0.576   7.424 -0.4097  0.9648  2.3563
   45MOL    H6010708   2.520   0.674   7.494 -1.3531  0.3184  2.0473
   45MOL    H6110709   2.360   0.739   7.457 -0.6055 -0.8223 -0.8397
   45MOL    C6210710   2.741   0.626   7.316  0.4248  0.6805  0.3923
   45MOL    C6310711   2.804   0.762   7.345 -0.6434  0.1349 -0.2471
   45MOL    C6410712   2.885   0.802   7.227  0.3181 -0.7536 -0.4661
   45MOL    C6510713   2.961   0.935   7.244  0.8419 -0.1141 -0.3778
   45MOL    H6610714   2.811   0.555   7.272  0.3034 -0.1874  1.5591
   45MOL    H6710715   2.720   0.575   7.410  0.2171  1.7278  0.9165
   45MOL    H6810716   2.727   0.838   7.355 -0.3405  0.4740 -0.4491
   45MOL    H6910717   2.836   0.822   7.132  1.0393  0.3431 -0.6143
   45MOL    H7010718   2.958   0.722   7.216 -0.1857 -1.3023  0.1195
   45MOL    H7110719   2.980   0.990   7.152  0.4790  0.0863 -0.3319
   45MOL    H7210720   2.898   0.999   7.307 -1.1736 -0.2391 -2.2351
   45MOL    H7310721   3.059   0.921   7.290  0.6845  0.6385  0.2122
   45MOL    C7410722   2.881   0.766   7.478 -0.1775 -0.4250  0.6987
   45MOL    C7510723   2.792   0.755   7.604  0.3986  0.3714  0.5033
   45MOL    C7610724   2.786   0.892   7.674 -0.4098  0.0372 -0.4081
   45MOL    C7710725   2.718   0.996   7.580 -0.0787  0.3531  0.1958
   45MOL    H7810726   2.933   0.862   7.488  0.4667 -0.8826  1.8577
   45MOL    H7910727   2.948   0.680   7.479 -0.1982 -0.4454  0.2993
   45MOL    H8010728   2.684   0.741   7.594  0.5524  0.0100 -0.6478
   45MOL    H8110729   2.878   0.928   0.014 -1.6215  0.8508  1.4262
   45MOL    H8210730   2.721   0.882   0.055  2.3428  1.2040  1.8465
   45MOL    H8310731   2.619   0.969   7.544 -1.1348  1.9006  1.8956
   45MOL    H8410732   2.728   1.097   7.618  2.1598 -0.2473  1.3553
   45MOL    H8510733   2.774   0.992   7.486 -1.4526  2.5751 -0.7263
   45MOL    C8610734   2.844   0.633   7.691  0.7334  0.3416 -0.1824
   45MOL    C8710735   2.751   0.582   0.105 -0.9272 -0.3379 -0.2117
   45MOL    C8810736   2.805   0.620   0.243 -0.6757 -0.1970  0.6643
   45MOL    C8910737   2.933   0.552   0.291 -0.3767 -0.0628 -0.3340
   45MOL    H9010738   2.934   0.667   0.036 -0.2344  1.5912  0.7516
   45MOL    H9110739   2.870   0.546   7.631 -1.7496 -2.2109  2.2448
   45MOL    H9210740   2.652   0.626   0.101 -1.4162 -1.3965  0.1032
   45MOL    H9310741   2.730   0.617   0.322 -2.8840  0.5733 -1.3501
   45MOL    H9410742   2.836   0.724   0.232  0.9265 -0.8347 -0.9459
   45MOL    H9510743   3.021   0.577   0.234  0.1138  1.6144  1.1082
   45MOL    H9610744   2.957   0.576   0.395  1.4114 -0.3696 -0.6705
   45MOL    H9710745   2.922   0.443   0.291 -1.5439 -0.0307  3.2864
   45MOL    C9810746   2.719   0.429   0.094 -0.0626 -0.0229  0.5036
   45MOL    C9910747   2.634   0.399   7.678 -0.1759 -0.2153 -0.3955
   45MOL   C10010748   2.488   0.450   0.000 -0.6849 -0.2771  0.0018
   45MOL   C10110749   2.415   0.393   0.120 -0.1851 -0.5375 -0.0926
   45MOL   H10210750   2.687   0.383   0.187  0.7333 -1.4612  0.0815
   45MOL   H10310751   2.811   0.378   0.066 -1.1375 -1.3166 -0.8081
   45MOL   H10410752   2.671   0.455   7.592 -0.1298 -0.2434 -0.3939
   45MOL   H10510753   2.431   0.416   7.620 -1.7164 -0.2528  0.6697
   45MOL   H10610754   2.488   0.558   0.016 -2.3884 -0.2290 -0.2414
   45MOL   H10710755   2.325   0.447   0.151  1.1174  0.1930  2.5348
   45MOL   H10810756   2.386   0.288   0.125  0.5157 -0.6520  1.5690
   45MOL   H10910757   2.471   0.412   0.211 -0.0716  0.1266 -0.2960
   45MOL   C11010758   2.636   0.251   7.640 -0.2633 -0.9098  0.0400
   45MOL   C11110759   2.748   0.202   7.538 -0.3000 -0.2256 -0.0131
   45MOL   C11210760   2.726   0.243   7.398  0.0429 -0.2745  0.5035
   45MOL   C11310761   2.599   0.192   7.329  0.6641 -0.2645 -0.5156
   45MOL   H11410762   2.548   0.229   7.580 -0.2789  0.4639 -0.4783
   45MOL   H11510763   2.625   0.175   0.011  3.6741 -0.4438  1.1494
   45MOL   H11610764   2.834   0.262   7.566 -1.2959  0.2578  2.0489
   45MOL   H11710765   2.817   0.223   7.342  0.1682  1.2104  0.1457
   45MOL   H11810766   2.736   0.351   7.388  0.5804 -0.5533 -2.6147
   45MOL   H11910767   2.510   0.253   7.343  0.1330 -0.9542 -0.8482
   45MOL   H12010768   2.619   0.202   7.222 -2.0657 -0.6025 -1.0845
   45MOL   H12110769   2.569   0.091   7.354  1.2146 -0.4884 -0.7511
   45MOL   C12210770   2.796   0.058   7.549 -0.5859  0.1703 -0.0994
   45MOL   C12310771   2.884   0.031   7.670  0.5053  0.6018 -0.0961
   45MOL   C12410772   3.033   0.041   7.643 -0.2319 -0.0600 -0.0750
   45MOL   C12510773   3.094   7.650   7.543  0.3394 -0.7263 -0.0931
   45MOL   H12610774   2.850   0.029   7.458  2.7723 -1.6908  2.3596
   45MOL   H12710775   2.707   7.703   7.558 -1.6433  1.9252  1.7715
   45MOL   H12810776   2.854   0.101   0.042 -1.1991  0.6206 -0.7491
   45MOL   H12910777   3.086   0.023   0.031 -3.3724 -0.7004  1.6727
   45MOL   H13010778   3.040   0.147   7.621  1.3975 -0.6155 -2.3899
   45MOL   H13110779   3.038   7.651   7.449 -0.2464  1.6665  0.2438
   45MOL   H13210780   3.199   7.677   7.528  0.4487 -2.1668 -2.1085
   45MOL   H13310781   3.073   7.547   7.570 -1.3229 -1.0658 -2.4927
   45MOL   C13410782   2.838   7.612   0.044 -0.2245 -0.6740 -1.1837
   45MOL   C13510783   2.897   7.600   0.188  0.5744  0.0206 -0.0570
   45MOL   C13610784   2.945   7.453   0.228  0.8228 -0.0574  0.2465
   45MOL   C13710785   2.840   7.340   0.211 -0.2193  0.5019  1.1100
   45MOL   H13810786   2.864   7.527   7.687 -0.0340 -1.1185 -0.5071
   45MOL   H13910787   2.730   7.617   0.051 -0.1525  0.9120 -0.9752
   45MOL   H14010788   2.988   7.658   0.203 -0.1339  1.3632 -0.9431
   45MOL   H14110789   2.983   7.447   0.330 -0.7377 -0.9700  0.7948
   45MOL   H14210790   3.033   7.434   0.166  0.8031 -2.2595  0.8636
   45MOL   H14310791   2.778   7.346   0.122  0.6840  2.2262  0.5632
   45MOL   H14410792   2.894   7.247   0.198  0.0942  0.9315 -0.7316
   45MOL   H14510793   2.786   7.319   0.304 -0.7431 -2.0655  0.2545
   45MOL   C14610794   2.797   7.657   0.291 -0.5167  0.0246  0.6720
   45MOL   C14710795   2.843   7.666   0.437  0.2870 -0.7686 -0.6735
   45MOL   C14810796   2.721   7.702   0.524  0.2807 -0.3171 -0.9017
   45MOL   C14910797   2.595   7.606   0.526 -0.0842 -0.2281 -0.7587
   45MOL   H15010798   2.710   7.592   0.285 -1.0961  0.6655  1.8962
   45MOL   H15110799   2.761   0.049   0.259 -1.7061 -0.7172 -0.2728
   45MOL   H15210800   2.859   7.567   0.480  0.3096 -0.6726 -0.4566
   45MOL   H15310801   2.697   0.100   0.505  0.6822 -0.0076  0.2786
   45MOL   H15410802   2.757   0.005   0.627  0.2048 -1.9595 -0.7119
   45MOL   H15510803   2.528   7.603   0.441 -1.0475  1.8495 -0.1221
   45MOL   H15610804   2.628   7.504   0.544 -2.2748 -1.0168 -0.9991
   45MOL   H15710805   2.528   7.629   0.609 -2.3204  0.6239 -2.7341
   45MOL   C15810806   2.962   0.063   0.452  0.0687 -0.0342  0.1984
   45MOL   C15910807   3.015   0.091   0.594  0.3516 -0.4354  0.2108
   45MOL   C16010808   3.134   0.184   0.593  0.0776 -0.0310 -0.4183
   45MOL   C16110809   3.102   0.311   0.520 -1.1857 -0.6903  0.3813
   45MOL   H16210810   2.932   0.156   0.404  0.7967 -0.6270 -1.4537
   45MOL   H16310811   3.043   0.030   0.387 -0.7950 -1.7774 -0.0185
   45MOL   H16410812   2.935   0.136   0.652 -0.4281 -1.7286  0.1453
   45MOL   H16510813   3.222   0.138   0.549 -1.1069 -1.6989 -1.0902
   45MOL   H16610814   3.151   0.218   0.695  0.2177 -1.5493  0.0776
   45MOL   H16710815   3.178   0.388   0.515  0.9491 -2.7354  0.1311
   45MOL   H16810816   3.091   0.285   0.415  0.4495 -0.1792  0.0631
   45MOL   H16910817   3.002   0.346   0.542 -0.5734 -0.0334  2.2767
   45MOL   C17010818   3.068   7.659   0.660 -0.2764  0.7424 -0.5131
   45MOL   C17110819   3.166   7.672   0.778 -0.3021  0.1817  0.2940
   45MOL   C17210820   3.217   7.528   0.823 -0.4203  0.3349 -0.2464
   45MOL   C17310821   3.291   7.450   0.710  0.0284  0.6703  0.1060
   45MOL   H17410822   3.120   7.613   0.575 -0.8302  0.2734 -0.6040
   45MOL   H17510823   2.983   7.594   0.682 -1.0590  1.5149 -1.2168
   45MOL   H17610824   3.252   0.031   0.761 -0.0006 -1.1994 -4.1597
   45MOL   H17710825   3.137   7.470   0.869  0.3108 -1.1176 -0.7608
   45MOL   H17810826   3.286   7.534   0.908 -0.7277  0.0411  0.0267
   45MOL   H17910827   3.235   7.436   0.618 -1.5784 -1.7262  1.4009
   45MOL   H18010828   3.377   7.503   0.669 -1.4034  1.6936 -1.6606
   45MOL   H18110829   3.329   7.353   0.741  0.0662 -0.0759 -2.1738
   45MOL   C18210830   3.081   0.033   0.894 -0.0452 -0.1239  0.3037
   45MOL   C18310831   3.158   0.062   1.030 -0.2395 -0.8574  0.6933
   45MOL   C18410832   3.050   0.073   1.142 -0.4554  0.0312  0.4780
   45MOL   C18510833   3.001   7.645   1.194  0.5319  0.4607  0.0105
   45MOL   H18610834   2.995   7.676   0.918 -0.1696  0.5431  1.6141
   45MOL   H18710835   3.025   0.120   0.861 -0.9958 -0.7098  0.3591
   45MOL   H18810836   3.222   7.682   1.053 -0.0189 -0.4168  1.7232
   45MOL   H18910837   2.976   0.146   1.108  0.8522  0.0671 -2.3848
   45MOL   H19010838   3.106   0.118   1.225  0.4341 -0.2213  0.0213
   45MOL   H19110839   2.946   7.654   1.288  0.3683  0.9774 -0.1283
   45MOL   H19210840   2.944   7.588   1.121 -0.1956 -1.6998  2.1900
   45MOL   H19310841   3.085   7.584   1.227  0.0717  0.2828  0.8837
   45MOL   C19410842   3.250   0.189   1.029  0.2164  0.2135  0.5752
   45MOL   C19510843   3.401   0.164   1.020 -0.2189  0.1474 -0.4624
   45MOL   C19610844   3.468   0.128   1.155  1.1685  0.0774 -0.2540
   45MOL   C19710845   3.601   0.053   1.147  0.8130 -0.0227  0.0602
   45MOL   H19810846   3.233   0.243   1.122  2.0503  0.2292  0.9028
   45MOL   H19910847   3.230   0.255   0.944 -1.4044  0.9816  1.5273
   45MOL   H20010848   3.412   0.077   0.955  1.0183  1.0718 -1.4959
   45MOL   H20110849   3.407   0.068   1.223  0.2011  2.8045  1.3231
   45MOL   H20210850   3.478   0.223   1.206 -2.4516 -0.3151  1.3668
   45MOL   H20310851   3.588   7.651   1.134  1.2607 -0.0135 -0.4654
   45MOL   H20410852   3.652   0.098   1.062 -1.4045 -2.1963 -2.5338
   45MOL   H20510853   3.658   0.083   1.235 -0.2281  0.5300  0.5499
   45MOL   C20610854   3.468   0.290   0.953 -0.5289 -0.1880 -0.5206
   45MOL   C20710855   3.494   0.282   0.801  0.5492 -1.1065 -0.3307
   45MOL   C20810856   3.585   0.166   0.759 -0.3322 -0.3669 -0.2456
   45MOL   C20910857   3.585   0.138   0.608 -0.4692 -0.3358  0.0679
   45MOL   H21010858   3.569   0.300   0.993 -1.2412 -1.7175  1.7602
   45MOL   H21110859   3.413   0.379   0.984  2.0832  1.2848  0.0349
   45MOL   H21210860   3.400   0.265   0.748  0.2983 -0.4718 -0.0866
   45MOL   H21310861   3.581   0.082   0.828  4.6880 -0.6667 -0.1325
   45MOL   H21410862   3.692   0.182   0.777 -0.7413  1.1858  0.9246
   45MOL   H21510863   3.512   0.190   0.546 -0.4125  0.3736  0.5922
   45MOL   H21610864   3.673   0.185   0.564  0.0837  1.8465  3.2461
   45MOL   H21710865   3.579   0.031   0.587 -1.9652 -0.3897  0.7042
   45MOL   C21810866   3.557   0.413   0.745  0.5815  0.1203 -0.0508
   45MOL   C21910867   3.477   0.545   0.758 -0.8571 -0.5268 -0.1136
   45MOL   C22010868   3.359   0.563   0.672 -0.0146 -0.1855  0.2648
   45MOL   C22110869   3.386   0.602   0.528  0.3843  0.4753 -0.4118
   45MOL   H22210870   3.595   0.399   0.643 -0.2639  1.3966 -0.5443
   45MOL   H22310871   3.642   0.439   0.808 -0.1209  3.4606 -0.3976
   45MOL   H22410872   3.440   0.560   0.860  1.2534  1.2905  0.4469
   45MOL   H22510873   3.301   0.643   0.718  0.5112  0.4291 -0.1346
   45MOL   H22610874   3.302   0.471   0.686 -1.4167  0.8949  1.9307
   45MOL   H22710875   3.442   0.694   0.512  0.0136  0.7607 -0.0665
   45MOL   H22810876   3.436   0.516   0.484 -2.5108 -1.2420 -0.4756
   45MOL   H22910877   3.293   0.634   0.480  1.0043  1.3530 -1.0453
   45MOL   C23010878   3.574   0.665   0.754 -1.1493 -0.4632 -0.3163
   45MOL   C23110879   3.660   0.699   0.870  0.0144  0.1618 -0.9366
   45MOL   C23210880   3.598   0.791   0.975  0.5800 -0.4628 -0.0530
   45MOL   C23310881   3.696   0.875   1.056 -0.0589  0.1645  0.1597
   45MOL   H23410882   3.526   0.756   0.718  1.1419 -0.3976 -3.4698
   45MOL   H23510883   3.640   0.638   0.671 -0.8867 -1.3525  0.1730
   45MOL   H23610884   3.699   0.606   0.913 -0.7369  1.2786  2.2570
   45MOL   H23710885   3.536   0.735   1.045  2.0062 -0.2170  1.4580
   45MOL   H23810886   3.531   0.862   0.928  0.9388  0.0771  0.2488
   45MOL   H23910887   3.737   0.806   1.129 -0.3506  0.5403  0.6856
   45MOL   H24010888   3.773   0.928   0.999  2.4370 -1.5542  1.8695
   45MOL   H24110889   3.642   0.957   1.104  0.1659 -0.5823  1.6908
   45MOL   H24210890   3.735   0.762   0.823  0.5366 -0.4001 -0.8678
   46MOL     C110891   4.342   2.580   5.795  0.3369 -0.3119 -0.3372
   46MOL     C210892   4.285   2.477   5.896 -0.2013 -0.5184  0.1058
   46MOL     C310893   4.133   2.467   5.875  0.2218  0.2501 -0.0224
   46MOL     C410894   4.098   2.385   5.752 -0.3217  0.5055 -0.7539
   46MOL     H510895   4.289   2.675   5.799  1.0598  0.0611  0.6987
   46MOL     H610896   4.443   2.616   5.814 -0.1075  1.4789 -1.1841
   46MOL     H710897   4.339   2.384   5.885 -0.5158 -0.9031  1.6369
   46MOL     H810898   4.088   2.566   5.873 -1.4677 -0.4698  1.4184
   46MOL     H910899   4.100   2.408   5.961  1.4590 -2.0572 -1.0776
   46MOL    H1010900   3.989   2.388   5.743 -0.3011  1.8065 -0.5804
   46MOL    H1110901   4.143   2.427   5.662  1.5344 -2.8284 -1.4535
   46MOL    H1210902   4.139   2.285   5.768  0.8449  0.9372 -1.0585
   46MOL    H1310903   4.327   2.549   5.691 -2.4955 -1.0774  0.2743
   46MOL    C1410904   4.322   2.512   6.046 -0.1962 -0.2030 -0.2172
   46MOL    C1510905   4.282   2.391   6.148 -0.3604 -0.3069 -0.0053
   46MOL    C1610906   4.314   2.448   6.293  0.1988  0.0655 -0.0871
   46MOL    C1710907   4.460   2.488   6.325 -0.5074  0.7596 -0.2676
   46MOL    H1810908   4.274   2.604   6.078  0.4603 -0.3234  1.1540
   46MOL    H1910909   4.429   2.533   6.056 -0.4468  0.9266  0.1555
   46MOL    H2010910   4.174   2.382   6.150 -0.7438  3.5125 -0.7883
   46MOL    H2110911   4.279   2.367   6.358 -3.5520  1.2645 -0.5020
   46MOL    H2210912   4.244   2.529   6.314  0.8101  0.5453  0.1161
   46MOL    H2310913   4.488   2.495   6.430  2.2528  2.4513 -1.0607
   46MOL    H2410914   4.539   2.424   6.285  0.9446  1.9502  0.6453
   46MOL    H2510915   4.482   2.586   6.281 -0.1026  0.3268 -1.0473
   46MOL    C2610916   4.364   2.265   6.127  0.0788 -0.2303  0.2503
   46MOL    C2710917   4.289   2.162   6.041  0.1221  0.3688  0.4083
   46MOL    C2810918   4.171   2.093   6.114  0.4362 -0.6394 -0.2980
   46MOL    C2910919   4.195   1.999   6.235  0.3349 -0.1352 -0.5744
   46MOL    H3010920   4.402   2.229   6.223 -1.4421 -1.7558  0.2864
   46MOL    H3110921   4.458   2.291   6.078 -1.0334  1.8117 -0.8884
   46MOL    H3210922   4.232   2.203   5.958 -1.5800 -1.5332  0.5958
   46MOL    H3310923   4.123   2.025   6.044 -0.7971  1.7000 -1.8057
   46MOL    H3410924   4.097   2.170   6.139 -0.9260 -2.2746  0.7840
   46MOL    H3510925   4.236   1.904   6.199 -0.1934 -1.3048  1.8167
   46MOL    H3610926   4.263   2.049   6.304 -0.6317  1.1326 -0.5291
   46MOL    H3710927   4.106   1.981   6.295  0.5001  1.0444  0.0248
   46MOL    C3810928   4.385   2.040   6.000 -0.2858 -0.2748  0.0000
   46MOL    C3910929   4.487   2.068   5.886 -0.3487  0.3069  0.3393
   46MOL    C4010930   4.412   2.072   5.746 -0.7962 -0.2952  0.8355
   46MOL    C4110931   4.497   2.139   5.638 -0.4297  0.5173 -0.3471
   46MOL    H4210932   4.334   1.950   5.965 -1.3968  0.5980 -0.6832
   46MOL    H4310933   4.430   2.016   6.096 -1.5443  1.0069  0.9406
   46MOL    H4410934   4.527   2.166   5.913  1.2796 -0.1116 -0.4727
   46MOL    H4510935   4.327   2.140   5.755 -0.2680  0.6713 -1.2110
   46MOL    H4610936   4.374   1.975   5.714 -0.9336 -0.0488  0.2444
   46MOL    H4710937   4.444   2.152   5.544  1.5140 -0.2422 -1.5779
   46MOL    H4810938   4.524   2.243   5.660  1.4919  0.1901 -1.0546
   46MOL    H4910939   4.586   2.085   5.606 -0.8884 -0.5050  0.1045
   46MOL    C5010940   4.605   1.965   5.879  0.7917 -0.2100  0.0489
   46MOL    C5110941   4.707   1.956   5.990 -0.0774 -0.3239  0.1162
   46MOL    C5210942   4.775   2.091   6.028 -0.4497 -0.9605 -0.4661
   46MOL    C5310943   4.831   2.167   5.909  0.2722 -0.3358  0.2958
   46MOL    H5410944   4.665   1.984   5.790  0.6482 -2.4298 -0.5467
   46MOL    H5510945   4.571   1.863   5.859  1.7615 -0.2586 -1.4170
   46MOL    H5610946   4.668   1.933   6.089  2.1869 -1.4657  0.7806
   46MOL    H5710947   4.861   2.074   6.094  0.4708  0.1763 -1.3637
   46MOL    H5810948   4.712   2.150   6.094  0.6905 -0.3942  0.1435
   46MOL    H5910949   4.920   2.114   5.876  0.4594 -1.8060  3.0598
   46MOL    H6010950   4.761   2.174   5.826 -1.0868 -0.9049  1.3719
   46MOL    H6110951   4.859   2.260   5.959 -1.5687  0.0913  0.5556
   46MOL    C6210952   4.811   1.842   5.971  0.5104 -0.1263  0.1552
   46MOL    C6310953   4.914   1.816   6.088 -0.2429  0.2300  0.3172
   46MOL    C6410954   5.063   1.841   6.049  1.0680  0.5282  0.6258
   46MOL    C6510955   5.171   1.828   6.158 -0.6588  0.0512  0.5281
   46MOL    H6610956   4.869   1.859   5.880  0.1481 -1.8609 -0.4057
   46MOL    H6710957   4.754   1.754   5.942 -0.1525  0.7399 -1.2476
   46MOL    H6810958   4.898   1.876   6.177 -1.3333  1.1694 -0.4884
   46MOL    H6910959   5.066   1.946   6.020 -1.0137  0.4013 -0.1228
   46MOL    H7010960   5.098   1.776   5.968  1.9419 -1.8624  2.8602
   46MOL    H7110961   5.147   1.888   6.245 -0.4159 -0.0589  0.6736
   46MOL    H7210962   5.173   1.725   6.193  0.6637 -0.3770 -0.7342
   46MOL    H7310963   5.274   1.838   6.124  0.0677  0.4951  2.7904
   46MOL    C7410964   4.886   1.676   6.140 -0.3657 -0.3424 -0.1606
   46MOL    C7510965   4.750   1.657   6.207  0.5424 -1.1785  0.5092
   46MOL    C7610966   4.772   1.672   6.358 -0.0219 -0.0961 -0.8371
   46MOL    C7710967   4.645   1.717   6.440  0.3773  0.2892  0.3646
   46MOL    H7810968   4.964   1.648   6.211 -0.6983 -0.8400  0.0213
   46MOL    H7910969   4.884   1.601   6.061 -1.6334 -0.3191 -0.1770
   46MOL    H8010970   4.677   1.728   6.170  1.0024 -0.7274  0.4697
   46MOL    H8110971   4.834   1.758   6.381  1.1658 -0.8031 -1.3964
   46MOL    H8210972   4.829   1.593   6.407  1.2861  0.6439 -1.1445
   46MOL    H8310973   4.563   1.647   6.458 -0.4715  1.5264  1.4025
   46MOL    H8410974   4.668   1.749   6.542  0.8526  0.9473  0.0517
   46MOL    H8510975   4.607   1.802   6.384  0.3568 -0.7901 -1.3061
   46MOL    C8610976   4.690   1.520   6.185  0.5456 -0.3803  0.3805
   46MOL    C8710977   4.593   1.510   6.056  0.2476  0.2690  0.0806
   46MOL    C8810978   4.448   1.564   6.093  0.1191  0.2993 -1.2023
   46MOL    C8910979   4.378   1.641   5.985  0.5707 -0.0506 -0.0866
   46MOL    H9010980   4.633   1.493   6.273  0.0595  0.8813  0.4732
   46MOL    H9110981   4.772   1.449   6.181  3.4345  2.9172 -2.1531
   46MOL    H9210982   4.634   1.582   5.986  1.3655 -1.1056 -0.6975
   46MOL    H9310983   4.462   1.639   6.170  0.1946 -0.6030 -0.3273
   46MOL    H9410984   4.392   1.479   6.132 -0.1282  0.7566 -0.5619
   46MOL    H9510985   4.332   1.574   5.912  1.2784  0.8540 -1.3956
   46MOL    H9610986   4.288   1.697   6.013  0.7818 -0.0346  0.5584
   46MOL    H9710987   4.442   1.709   5.928 -1.1211  1.0702 -0.7117
   46MOL    C9810988   4.577   1.368   5.995  0.1360 -0.3318  0.5253
   46MOL    C9910989   4.712   1.316   5.932  0.1792 -0.3141  0.1702
   46MOL   C10010990   4.766   1.415   5.823 -0.6020 -0.1388  0.4055
   46MOL   C10110991   4.663   1.462   5.716 -0.1467  0.0095  0.5536
   46MOL   H10210992   4.500   1.378   5.919 -1.0207 -2.2407  1.3956
   46MOL   H10310993   4.551   1.296   6.073 -1.5390 -0.9536 -0.5836
   46MOL   H10410994   4.790   1.317   6.008  0.0151  0.8614  0.3336
   46MOL   H10510995   4.851   1.365   5.775 -1.6753 -0.6733 -1.0126
   46MOL   H10610996   4.804   1.508   5.864 -3.6715  0.6041  1.7131
   46MOL   H10710997   4.708   1.486   5.620 -1.3601  3.5809  0.7913
   46MOL   H10810998   4.581   1.397   5.686 -0.1214  0.9297 -1.6284
   46MOL   H10910999   4.619   1.557   5.748  0.5770  0.9948 -1.3185
   46MOL   C11011000   4.701   1.176   5.877 -0.0772  0.2991  0.0802
   46MOL   C11111001   4.705   1.062   5.983  0.7907 -0.2794  0.4916
   46MOL   C11211002   4.850   1.046   6.046 -0.5772 -0.3620  0.6396
   46MOL   C11311003   4.961   1.018   5.946  0.2483 -0.1650 -1.4944
   46MOL   H11411004   4.776   1.160   5.799  0.6345 -1.8112  1.1443
   46MOL   H11511005   4.605   1.178   5.826 -0.2823 -0.5837  0.4174
   46MOL   H11611006   4.638   1.079   6.066 -0.8944 -0.9889 -0.6851
   46MOL   H11711007   4.855   0.967   6.121 -0.4808 -1.0946 -0.1304
   46MOL   H11811008   4.882   1.135   6.101  0.1865  0.0049 -0.3952
   46MOL   H11911009   5.058   1.003   5.993 -0.7402 -0.2053  0.5758
   46MOL   H12011010   4.934   0.925   5.896 -3.2194  0.5030 -1.0349
   46MOL   H12111011   4.976   1.101   5.877  1.5659  0.0302 -0.9851
   46MOL   C12211012   4.662   0.932   5.910 -0.6309  0.0949 -0.1350
   46MOL   C12311013   4.631   0.814   6.003 -0.4313  0.3088  0.0729
   46MOL   C12411014   4.648   0.680   5.941  0.6382  0.1254  0.7202
   46MOL   C12511015   4.576   0.649   5.805  0.0879 -0.0326 -0.3080
   46MOL   H12611016   4.735   0.903   5.834 -0.8784  0.9832 -0.7092
   46MOL   H12711017   4.567   0.948   5.858 -1.4307 -0.0636  1.2566
   46MOL   H12811018   4.698   0.821   6.089 -0.8419  0.7097  0.3648
   46MOL   H12911019   4.613   0.597   6.002  0.0516 -0.0550  0.1437
   46MOL   H13011020   4.755   0.660   5.935  0.9955  2.5787 -2.4157
   46MOL   H13111021   4.631   0.710   5.732  1.5053 -1.0603 -0.1064
   46MOL   H13211022   4.588   0.545   5.777  0.7731  0.0495 -0.3474
   46MOL   H13311023   4.473   0.682   5.791  0.2794  1.0396  0.7095
   46MOL   C13411024   4.496   0.837   6.077  0.0651 -0.1544 -0.0564
   46MOL   C13511025   4.470   0.759   6.214 -0.5533  0.1941  0.4944
   46MOL   C13611026   4.327   0.702   6.227 -0.0081  0.0989  0.5604
   46MOL   C13711027   4.290   0.591   6.133 -0.3838  0.1091 -0.6088
   46MOL   H13811028   4.419   0.804   6.007 -0.1398 -1.1570  0.6121
   46MOL   H13911029   4.472   0.941   6.096  1.8804  0.2779 -0.0548
   46MOL   H14011030   4.541   0.676   6.219 -0.4781  0.0769 -1.9915
   46MOL   H14111031   4.258   0.784   6.203 -1.6656 -1.9750 -2.0507
   46MOL   H14211032   4.314   0.665   6.328 -1.2225 -1.2427 -0.0643
   46MOL   H14311033   4.267   0.624   6.032  1.9379  1.7541 -0.6457
   46MOL   H14411034   4.369   0.516   6.128 -1.0168 -0.5470 -0.9352
   46MOL   H14511035   4.197   0.540   6.158  1.2221 -3.0305 -0.7583
   46MOL   C14611036   4.501   0.846   6.334 -0.3339 -0.1682 -0.2258
   46MOL   C14711037   4.651   0.886   6.356 -0.9860 -0.0403 -0.3889
   46MOL   C14811038   4.747   0.766   6.371  0.5816 -0.4045 -0.2607
   46MOL   C14911039   4.893   0.801   6.404 -0.2894 -0.5900 -0.1643
   46MOL   H15011040   4.477   0.777   6.415 -0.2851 -0.0251 -0.0900
   46MOL   H15111041   4.432   0.930   6.334 -1.2406 -0.9090 -0.7073
   46MOL   H15211042   4.672   0.945   6.266 -0.7336  0.3482 -0.0766
   46MOL   H15311043   4.746   0.697   6.287 -2.7093 -1.7243  0.7821
   46MOL   H15411044   4.705   0.700   6.447 -0.0585  1.7052  1.2715
   46MOL   H15511045   4.962   0.718   6.391  0.3156 -0.5542  2.5536
   46MOL   H15611046   4.925   0.887   6.346 -0.6816  1.4693  2.5291
   46MOL   H15711047   4.898   0.842   6.505  0.5843  0.0079 -0.4434
   46MOL   C15811048   4.646   0.965   6.486 -1.2440  0.3284 -0.3998
   46MOL   C15911049   4.584   1.106   6.484  0.0165 -0.1904  0.3046
   46MOL   C16011050   4.664   1.205   6.398  0.1021 -0.2102  0.3456
   46MOL   C16111051   4.816   1.197   6.417  0.2391  0.2789  0.6185
   46MOL   H16211052   4.743   0.971   6.536 -0.7475  0.9146 -1.4034
   46MOL   H16311053   4.588   0.908   6.559  1.4569 -1.2145  0.6190
   46MOL   H16411054   4.483   1.104   6.443 -0.4508  2.1199  1.2443
   46MOL   H16511055   4.617   1.301   6.418 -0.4545 -0.6210  1.0545
   46MOL   H16611056   4.634   1.191   6.294 -3.6384  1.3159  1.1642
   46MOL   H16711057   4.830   1.194   6.525  1.3687 -0.6694  0.4604
   46MOL   H16811058   4.863   1.108   6.374 -2.4603 -0.1489 -1.6619
   46MOL   H16911059   4.854   1.284   6.363  0.1739 -0.0714  0.0091
   46MOL   C17011060   4.585   1.165   6.623  0.2606 -0.0942 -0.2104
   46MOL   C17111061   4.473   1.113   6.713  0.1750 -0.4087 -0.1844
   46MOL   C17211062   4.336   1.116   6.649  1.0244  0.1344  0.1287
   46MOL   C17311063   4.297   1.252   6.598 -0.3855  0.5836 -0.4778
   46MOL   H17411064   4.585   1.274   6.624  0.0912 -0.0947 -0.0952
   46MOL   H17511065   4.683   1.148   6.667  0.0459  0.4989  0.5102
   46MOL   H17611066   4.498   1.007   6.725  1.4364 -0.4488 -2.8296
   46MOL   H17711067   4.263   1.074   6.718 -0.5014  3.4254  0.6088
   46MOL   H17811068   4.324   1.037   6.575  0.3938 -0.3249  0.7049
   46MOL   H17911069   4.200   1.238   6.551 -1.7392 -0.7850  2.6194
   46MOL   H18011070   4.287   1.334   6.669  1.3462 -1.0413  1.7129
   46MOL   H18111071   4.367   1.288   6.523  0.6122 -0.8628 -0.2615
   46MOL   C18211072   4.471   1.171   6.857  0.2219 -0.1928  0.5358
   46MOL   C18311073   4.603   1.190   6.932  0.0114 -0.6489  0.2474
   46MOL   C18411074   4.661   1.055   6.978 -0.6540 -0.1564  0.1923
   46MOL   C18511075   4.814   1.049   7.009  0.2942  0.0695 -0.1886
   46MOL   H18611076   4.414   1.103   6.920 -2.1665  0.6085 -0.6922
   46MOL   H18711077   4.413   1.264   6.861  1.5566  0.7925 -1.8471
   46MOL   H18811078   4.679   1.218   6.859 -1.9731 -1.8162 -2.3360
   46MOL   H18911079   4.617   0.966   6.932  0.3900 -0.0857 -0.9721
   46MOL   H19011080   4.616   1.023   7.072  0.6070 -1.1361  0.4774
   46MOL   H19111081   4.844   0.949   7.040 -0.0760 -0.7286 -2.3137
   46MOL   H19211082   4.877   1.067   6.922  1.7315 -1.7375  0.4571
   46MOL   H19311083   4.847   1.112   7.092 -1.4156  2.6892 -1.4379
   46MOL   C19411084   4.587   1.279   7.054 -0.2229 -0.0359 -0.3692
   46MOL   C19511085   4.537   1.427   7.038  0.0039 -0.3646 -0.2567
   46MOL   C19611086   4.634   1.511   6.945 -0.1107  0.5360  0.2864
   46MOL   C19711087   4.568   1.647   6.888  0.6200  0.9302  0.9521
   46MOL   H19811088   4.684   1.278   7.103 -1.2099 -0.3505  1.6596
   46MOL   H19911089   4.510   1.223   7.108  1.0356  0.6711  2.2482
   46MOL   H20011090   4.435   1.423   7.001 -1.0133 -0.3984  2.4482
   46MOL   H20111091   4.676   1.458   6.859 -0.0466 -2.1295  1.9028
   46MOL   H20211092   4.716   1.539   7.010 -1.4151  0.8694  1.8136
   46MOL   H20311093   4.481   1.613   6.831  1.6379 -1.0829  0.5533
   46MOL   H20411094   4.542   1.715   6.969 -1.0003 -0.2603  1.4603
   46MOL   H20511095   4.629   1.689   6.808 -1.1506 -0.2144 -1.0490
   46MOL   C20611096   4.530   1.495   7.171  0.8642  0.0505 -0.4627
   46MOL   C20711097   4.433   1.440   7.276 -0.0448  0.0972  0.2131
   46MOL   C20811098   4.293   1.435   7.217 -0.2490 -0.1362  0.1392
   46MOL   C20911099   4.179   1.426   7.318  0.0251  0.0485  0.6261
   46MOL   H21011100   4.487   1.595   7.165 -0.4721 -0.5395 -1.0995
   46MOL   H21111101   4.629   1.505   7.216 -0.8175 -0.8147  3.6338
   46MOL   H21211102   4.465   1.340   7.306  2.1540  0.4012 -1.0450
   46MOL   H21311103   4.284   1.360   7.139 -1.0778  0.9066 -0.7855
   46MOL   H21411104   4.276   1.535   7.177 -2.4783 -0.1128  1.0372
   46MOL   H21511105   4.082   1.435   7.268  0.4109 -1.5073 -0.4618
   46MOL   H21611106   4.181   1.329   7.367 -0.3899 -2.6489 -4.4146
   46MOL   H21711107   4.178   1.508   7.389 -1.8086  1.1432 -0.6240
   46MOL   C21811108   4.449   1.533   7.405  0.1873 -0.0592  0.5313
   46MOL   C21911109   4.414   1.470   7.540 -0.4134 -0.3065  0.6946
   46MOL   C22011110   4.338   1.566   7.635 -0.0316  0.1480  0.9471
   46MOL   C22111111   4.407   1.700   7.655  0.3461 -0.0379 -0.3426
   46MOL   H22211112   4.387   1.621   7.391  0.3930 -0.3344 -2.5496
   46MOL   H22311113   4.553   1.563   7.404  0.7360 -1.8566  0.7208
   46MOL   H22411114   4.337   1.395   7.520 -1.3999  1.2266 -1.4510
   46MOL   H22511115   4.317   1.514   0.023 -0.1554 -1.1303  0.2262
   46MOL   H22611116   4.242   1.583   7.586 -0.3068  0.2573  1.5208
   46MOL   H22711117   4.503   1.693   7.706  0.7049 -0.9277 -1.1402
   46MOL   H22811118   4.422   1.754   7.562  0.2665 -0.0240 -0.3474
   46MOL   H22911119   4.335   1.756   0.009  1.2541  2.0861 -1.1661
   46MOL   C23011120   4.524   1.400   7.621  0.0123  0.2156  0.7494
   46MOL   C23111121   4.568   1.273   7.556  0.5269  0.8792 -0.0269
   46MOL   C23211122   4.685   1.210   7.632 -0.6490  0.8427  0.6875
   46MOL   C23311123   4.821   1.286   7.625  0.1840 -0.1650  0.2405
   46MOL   H23411124   4.495   1.376   0.018 -1.0954 -0.0551  0.3721
   46MOL   H23511125   4.602   1.475   7.634 -0.9553  1.3405  0.0427
   46MOL   H23611126   4.494   1.193   7.563 -1.7612  2.9460 -0.1645
   46MOL   H23711127   4.706   1.108   7.602 -0.4326  1.1487 -0.2368
   46MOL   H23811128   4.662   1.200   0.032 -1.6038  1.9909  0.5926
   46MOL   H23911129   4.795   1.389   7.649  0.2808  0.5797 -2.7275
   46MOL   H24011130   4.886   1.238   7.698  0.7920 -0.0987 -0.2517
   46MOL   H24111131   4.860   1.277   7.524  0.6266  0.5973  0.3342
   46MOL   H24211132   4.609   1.277   7.455  0.4404  0.9737 -0.0589
   47MOL     C111133   7.083   0.310   3.466  0.1688 -0.2006  0.5444
   47MOL     C211134   7.077   0.187   3.556  0.1289  0.5591 -0.3468
   47MOL     C311135   7.039   0.058   3.476 -0.1990 -0.0704 -0.2491
   47MOL     C411136   7.071   7.633   3.536  0.1310  0.6373  0.3464
   47MOL     H511137   7.148   0.306   3.378  1.1764  2.9295  1.0568
   47MOL     H611138   6.980   0.335   3.439  0.6314  1.7512  0.4694
   47MOL     H711139   7.180   0.175   3.588  0.2626  1.6889 -0.3006
   47MOL     H811140   7.091   0.059   3.380  1.8792 -0.3762  0.8478
   47MOL     H911141   6.935   0.055   3.442 -0.0311 -0.7964 -0.7086
   47MOL    H1011142   7.019   7.631   3.632 -0.6957 -0.5589 -0.1209
   47MOL    H1111143   7.052   7.545   3.475  0.3163 -0.0662  1.2844
   47MOL    H1211144   7.179   7.644   3.548  0.4567  1.8744 -3.2939
   47MOL    H1311145   7.109   0.396   3.528 -0.2271  2.8464 -3.2651
   47MOL    C1411146   6.979   0.209   3.673  0.2583 -0.4417  0.5444
   47MOL    C1511147   7.032   0.202   3.815  0.6224 -0.3029 -0.0043
   47MOL    C1611148   7.073   0.060   3.847 -0.1659 -0.4217  0.1439
   47MOL    C1711149   7.143   0.059   3.979 -0.0665 -0.5569 -0.7261
   47MOL    H1811150   6.911   0.124   3.669  0.4564 -0.6679  1.7776
   47MOL    H1911151   6.921   0.300   3.662  1.1960  0.0537 -0.3473
   47MOL    H2011152   7.117   0.267   3.834  1.4561 -0.8143 -1.8805
   47MOL    H2111153   7.146   0.047   3.768  1.5734  0.6443  1.5367
   47MOL    H2211154   6.984   7.703   3.833 -1.5249  1.2660  1.0096
   47MOL    H2311155   7.069   0.040   4.056 -0.0806  3.3872  0.3257
   47MOL    H2411156   7.218   7.685   3.984  1.1443  0.4746 -2.0519
   47MOL    H2511157   7.180   0.158   4.004  0.2552 -1.1949  1.4215
   47MOL    C2611158   6.919   0.250   3.911  0.1982 -0.0151  0.1532
   47MOL    C2711159   6.889   0.400   3.920 -0.2329  0.2288 -0.0807
   47MOL    C2811160   6.996   0.462   4.004  0.2240  0.2059 -0.2868
   47MOL    C2911161   6.994   0.612   4.017  0.4996 -0.2833  0.8160
   47MOL    H3011162   6.921   0.219   4.015  0.2929 -0.0636  0.1371
   47MOL    H3111163   6.830   0.199   3.875  0.2630  0.8557 -1.3082
   47MOL    H3211164   6.895   0.445   3.821 -1.3633 -0.4334 -0.4639
   47MOL    H3311165   7.096   0.445   3.965 -0.0486  0.7252 -1.2169
   47MOL    H3411166   6.983   0.418   4.103 -0.1840  1.1527  0.0812
   47MOL    H3511167   6.984   0.666   3.923  0.3702  1.5358  1.8596
   47MOL    H3611168   6.915   0.642   4.085  0.0647  0.4156  0.0112
   47MOL    H3711169   7.085   0.640   4.070  0.3387 -0.6180  1.2766
   47MOL    C3811170   6.750   0.419   3.980 -0.5781 -0.1520 -0.2108
   47MOL    C3911171   6.625   0.397   3.901 -0.9085 -0.3148  0.2974
   47MOL    C4011172   6.609   0.509   3.787 -0.2759  0.1917 -0.2828
   47MOL    C4111173   6.602   0.662   3.833 -0.5658  0.0898  0.2168
   47MOL    H4211174   6.743   0.527   3.996  1.7755  0.3293 -2.1554
   47MOL    H4311175   6.741   0.360   4.072  0.1983 -0.4351 -0.3137
   47MOL    H4411176   6.624   0.297   3.856 -2.1068 -0.6493  1.0499
   47MOL    H4511177   6.515   0.482   3.740 -0.8987  1.6508  0.1142
   47MOL    H4611178   6.673   0.496   3.700 -1.9805  2.1574 -1.8541
   47MOL    H4711179   6.703   0.701   3.838  0.5132 -2.5499 -0.0995
   47MOL    H4811180   6.549   0.728   3.764 -1.2195  0.2796  0.8932
   47MOL    H4911181   6.541   0.692   3.918  0.1667  0.9971  0.4229
   47MOL    C5011182   6.500   0.406   3.994 -0.2984 -0.2074  0.3024
   47MOL    C5111183   6.462   0.272   4.071  0.4628  0.4817 -0.0687
   47MOL    C5211184   6.430   0.155   3.970 -0.0647  0.2095 -0.3083
   47MOL    C5311185   6.307   0.168   3.880 -0.4301  0.0117  0.6167
   47MOL    H5411186   6.413   0.424   3.932 -0.3330 -2.7442 -0.4146
   47MOL    H5511187   6.510   0.485   4.070  0.4288 -0.2480  0.2535
   47MOL    H5611188   6.549   0.247   4.131  0.0778  0.5525  0.5296
   47MOL    H5711189   6.419   0.071   4.038 -1.1028  0.8847  0.3787
   47MOL    H5811190   6.516   0.122   3.911  0.4576 -0.7407  0.9758
   47MOL    H5911191   6.284   0.079   3.821  0.2356  0.7662 -0.7922
   47MOL    H6011192   6.214   0.187   3.933  0.1135 -0.4123  1.7193
   47MOL    H6111193   6.331   0.250   3.812  0.9515 -1.3354 -0.5389
   47MOL    C6211194   6.355   0.308   4.175  0.1601  1.1491 -0.4181
   47MOL    C6311195   6.348   0.207   4.290  0.3460 -0.1414 -0.0758
   47MOL    C6411196   6.211   0.140   4.305 -0.3344  0.7972  0.1452
   47MOL    C6511197   6.099   0.229   4.360 -0.1363 -0.1060 -0.6079
   47MOL    H6611198   6.263   0.315   4.117  1.1897 -0.4844 -2.2794
   47MOL    H6711199   6.377   0.405   4.219  1.2331  1.7721 -2.3036
   47MOL    H6811200   6.430   0.136   4.275 -0.0626 -0.5677 -0.3272
   47MOL    H6911201   6.231   0.058   4.374 -0.5373  1.9462  1.5986
   47MOL    H7011202   6.184   0.085   4.216 -1.3728  1.2278  0.1939
   47MOL    H7111203   6.117   0.283   4.453 -0.9419 -1.0786  0.1175
   47MOL    H7211204   6.070   0.307   4.290 -0.1284  1.1207  0.7379
   47MOL    H7311205   6.009   0.168   4.371 -1.0597  1.1664 -0.9771
   47MOL    C7411206   6.382   0.272   4.426 -0.1424  0.1559 -0.5103
   47MOL    C7511207   6.536   0.257   4.458  0.3578 -0.0729 -0.1933
   47MOL    C7611208   6.563   0.123   4.532 -0.1754 -0.3263 -0.0590
   47MOL    C7711209   6.706   0.067   4.525  0.2656  0.3131 -0.2291
   47MOL    H7811210   6.326   0.229   4.509 -0.9756  2.8589  0.3989
   47MOL    H7911211   6.347   0.375   4.425  0.7830  0.5314  1.6511
   47MOL    H8011212   6.601   0.248   4.371  1.0099 -0.5836  0.3382
   47MOL    H8111213   6.508   0.040   4.487  0.3028 -0.8386  0.2909
   47MOL    H8211214   6.524   0.132   4.633 -1.7788  0.8605 -0.7643
   47MOL    H8311215   6.738   0.049   4.422  1.3013  1.9527 -0.2137
   47MOL    H8411216   6.794   0.120   4.562  0.7201 -0.4070 -0.2694
   47MOL    H8511217   6.711   7.678   4.579  2.1120 -0.5577 -1.8303
   47MOL    C8611218   6.585   0.387   4.527  0.3821  0.0479 -0.6628
   47MOL    C8711219   6.578   0.517   4.459  0.1790 -0.6693 -0.6941
   47MOL    C8811220   6.679   0.520   4.342 -0.2544 -0.3392 -0.0388
   47MOL    C8911221   6.827   0.498   4.385 -0.7468  0.2563 -0.9803
   47MOL    H9011222   6.679   0.370   4.581 -0.9963  1.6294  2.3829
   47MOL    H9111223   6.523   0.394   4.617  1.5020  0.0613  0.1207
   47MOL    H9211224   6.480   0.536   4.416 -0.1470 -0.7849 -0.0066
   47MOL    H9311225   6.682   0.623   4.306  1.0882 -0.2654  0.2603
   47MOL    H9411226   6.667   0.448   4.261 -1.0065 -0.7550  0.4318
   47MOL    H9511227   6.824   0.562   4.473  1.3288  0.0522 -0.7401
   47MOL    H9611228   6.843   0.392   4.405  0.7580  1.0950  2.6542
   47MOL    H9711229   6.895   0.543   4.312 -0.9585  2.6738  0.2576
   47MOL    C9811230   6.582   0.642   4.554  0.2306  0.7000  0.3098
   47MOL    C9911231   6.454   0.663   4.641  0.3228  0.5278 -0.2814
   47MOL   C10011232   6.358   0.773   4.584  0.4653 -0.3835 -0.3208
   47MOL   C10111233   6.304   0.747   4.449  0.2653  0.2310 -0.2248
   47MOL   H10211234   6.594   0.729   4.490 -1.9581  0.4742 -0.4580
   47MOL   H10311235   6.667   0.632   4.622  0.2624 -0.1095  0.1552
   47MOL   H10411236   6.392   0.573   4.632 -1.1267  1.5715 -0.8410
   47MOL   H10511237   6.414   0.866   4.572 -1.4958  0.6639 -1.6397
   47MOL   H10611238   6.287   0.796   4.664 -0.6971 -1.8353 -0.9173
   47MOL   H10711239   6.386   0.719   4.384  0.7298 -0.7315  0.7762
   47MOL   H10811240   6.257   0.649   4.451 -0.6125  0.6059 -1.2744
   47MOL   H10911241   6.236   0.823   4.409  1.4088  0.6335 -1.4045
   47MOL   C11011242   6.477   0.675   4.793 -0.2824  0.3509  0.2845
   47MOL   C11111243   6.553   0.555   4.862 -0.2633 -0.4514  0.0690
   47MOL   C11211244   6.457   0.444   4.914  0.2644 -0.0914 -0.3582
   47MOL   C11311245   6.518   0.305   4.919  0.1934  0.2852 -0.2259
   47MOL   H11411246   6.386   0.697   4.847  0.1010  2.2178  0.2168
   47MOL   H11511247   6.535   0.764   4.820 -0.1058 -0.0810  1.3611
   47MOL   H11611248   6.613   0.510   4.783  0.4589 -0.5169  0.6421
   47MOL   H11711249   6.381   0.421   4.840 -0.1983  1.0813 -0.2497
   47MOL   H11811250   6.405   0.463   5.007 -0.2490 -0.1355 -0.6380
   47MOL   H11911251   6.468   0.232   4.982  3.4890  0.3813  2.7187
   47MOL   H12011252   6.527   0.260   4.821  0.4633  2.2051 -1.1191
   47MOL   H12111253   6.618   0.317   4.963  0.3829 -1.9561  0.0097
   47MOL   C12211254   6.638   0.588   4.989 -0.9860  0.2450  0.4691
   47MOL   C12311255   6.787   0.620   4.961  0.1153  0.1772  0.5060
   47MOL   C12411256   6.873   0.492   4.932  0.1701 -0.1194  0.1765
   47MOL   C12511257   6.988   0.511   4.832  0.4074  0.2229  0.2980
   47MOL   H12611258   6.630   0.510   5.064 -0.7852 -0.5456 -0.3259
   47MOL   H12711259   6.592   0.672   5.042 -1.2195 -0.0265  0.7000
   47MOL   H12811260   6.785   0.691   4.878 -1.4364 -0.3366  0.0942
   47MOL   H12911261   6.810   0.414   4.889  0.6181 -0.3934  0.0239
   47MOL   H13011262   6.922   0.452   5.021 -0.0663 -2.0669 -0.5448
   47MOL   H13111263   7.032   0.421   4.789 -0.2992  1.2031 -2.6084
   47MOL   H13211264   6.949   0.557   4.741  0.5313 -1.9555 -0.8946
   47MOL   H13311265   7.067   0.571   4.877  1.6494 -2.0951  1.3033
   47MOL   C13411266   6.860   0.696   5.078 -0.0041 -0.0078 -0.3724
   47MOL   C13511267   6.797   0.825   5.131  0.2798 -0.0612  0.0603
   47MOL   C13611268   6.772   0.928   5.021  0.7732 -0.1840 -0.9752
   47MOL   C13711269   6.899   0.972   4.933  0.5158  0.3252 -0.7319
   47MOL   H13811270   6.950   0.726   5.026 -0.5305  0.6787 -0.8973
   47MOL   H13911271   6.899   0.627   5.153 -0.3809 -2.6637 -2.5281
   47MOL   H14011272   6.699   0.797   5.171 -0.1184  0.6153 -0.4166
   47MOL   H14111273   6.732   1.014   5.075  2.5032  0.0057  0.0678
   47MOL   H14211274   6.685   0.895   4.965  0.9657  0.6891 -1.7979
   47MOL   H14311275   6.943   0.886   4.882 -0.9424 -1.0370  0.2430
   47MOL   H14411276   6.871   1.046   4.859 -1.6596  0.3485  0.0688
   47MOL   H14511277   6.986   1.015   4.982 -0.1458  0.6682  0.1490
   47MOL   C14611278   6.890   0.878   5.244  0.3332 -0.4464 -0.1299
   47MOL   C14711279   6.831   0.863   5.386 -0.1616  0.1000  0.1244
   47MOL   C14811280   6.894   0.954   5.484 -0.0659  0.7516 -0.1068
   47MOL   C14911281   6.846   1.102   5.459  0.0397  0.4039 -0.5407
   47MOL   H15011282   6.918   0.980   5.216  0.1474 -0.7835 -1.5775
   47MOL   H15111283   6.985   0.826   5.233  1.1403  0.9907  0.0100
   47MOL   H15211284   6.724   0.885   5.391 -0.2854 -0.5661  0.5257
   47MOL   H15311285   7.002   0.949   5.470 -0.2077 -0.2974 -0.8686
   47MOL   H15411286   6.868   0.929   5.587 -0.1112  0.9281 -0.0746
   47MOL   H15511287   6.886   1.179   5.525 -2.4767  3.1810 -2.0941
   47MOL   H15611288   6.868   1.126   5.355 -1.3632  1.9807 -0.5052
   47MOL   H15711289   6.737   1.108   5.455  0.0384 -0.4886 -2.1655
   47MOL   C15811290   6.841   0.718   5.436 -0.8469  0.5843  0.5210
   47MOL   C15911291   6.734   0.680   5.549 -0.0401 -0.5796 -0.2962
   47MOL   C16011292   6.776   0.550   5.614 -0.4214  0.4973 -0.1392
   47MOL   C16111293   6.698   0.495   5.734  0.1971  0.1753 -0.1185
   47MOL   H16211294   6.941   0.699   5.474 -0.9427 -0.2535  0.3443
   47MOL   H16311295   6.826   0.649   5.354  1.0067 -0.7476  1.2734
   47MOL   H16411296   6.728   0.751   5.632  2.6555  0.8000 -1.2483
   47MOL   H16511297   6.879   0.568   5.648 -0.1414  0.8605 -1.1604
   47MOL   H16611298   6.787   0.474   5.537 -1.1720 -0.6894  0.9070
   47MOL   H16711299   6.700   0.566   5.816 -1.0284 -0.4741  0.4893
   47MOL   H16811300   6.595   0.465   5.712 -0.6261  3.8753 -1.7405
   47MOL   H16911301   6.761   0.414   5.771  1.4457  0.3531 -1.8146
   47MOL   C17011302   6.590   0.666   5.494  0.4156 -0.2907 -0.1208
   47MOL   C17111303   6.481   0.716   5.599 -0.3416  0.3004  0.2509
   47MOL   C17211304   6.338   0.674   5.567  0.3071  0.1245 -0.1273
   47MOL   C17311305   6.323   0.518   5.550 -0.0924  0.1380 -0.4120
   47MOL   H17411306   6.574   0.564   5.459 -2.0484 -0.0256  0.1256
   47MOL   H17511307   6.568   0.717   5.400 -1.3110  1.4610  1.1837
   47MOL   H17611308   6.510   0.680   5.697 -1.7086  1.3470  1.0598
   47MOL   H17711309   6.306   0.721   5.474  0.0953 -1.7939 -1.0500
   47MOL   H17811310   6.270   0.719   5.639  1.4988  1.5207  0.1517
   47MOL   H17911311   6.220   0.506   5.519  0.6015 -1.4489 -2.1916
   47MOL   H18011312   6.379   0.477   5.466  2.0605  2.3120 -0.1161
   47MOL   H18111313   6.346   0.457   5.638  0.3597 -0.5136 -0.9767
   47MOL   C18211314   6.491   0.869   5.618  0.2823 -0.8534  0.2382
   47MOL   C18311315   6.412   0.948   5.732 -0.1547  0.0784 -0.5049
   47MOL   C18411316   6.342   1.075   5.682  0.2125  0.2497  0.0317
   47MOL   C18511317   6.438   1.187   5.631 -0.0355  0.2394  0.1377
   47MOL   H18611318   6.447   0.920   5.533 -0.6430 -2.0105  0.0100
   47MOL   H18711319   6.591   0.913   5.612  0.0597 -0.5702 -1.3551
   47MOL   H18811320   6.332   0.886   5.773  0.0980  0.0271 -0.0810
   47MOL   H18911321   6.295   1.117   5.771  0.1573 -0.4829  0.3488
   47MOL   H19011322   6.264   1.056   5.608  0.8809 -0.7699 -0.4275
   47MOL   H19111323   6.473   1.252   5.711 -2.9848  2.3357 -0.2133
   47MOL   H19211324   6.524   1.146   5.577 -1.3191 -4.4503  1.4338
   47MOL   H19311325   6.383   1.248   5.559 -1.7400 -1.4754 -0.0676
   47MOL   C19411326   6.496   0.979   5.858 -0.5324 -0.4014 -0.2563
   47MOL   C19511327   6.538   0.851   5.941  0.1113 -0.7281 -0.3530
   47MOL   C19611328   6.414   0.784   6.015 -0.7085 -0.3319  0.0684
   47MOL   C19711329   6.363   0.867   6.137  0.5251  0.3065 -0.9863
   47MOL   H19811330   6.444   1.049   5.923 -0.7553 -1.2413  0.4851
   47MOL   H19911331   6.582   1.034   5.820 -0.6862  0.2683  0.3516
   47MOL   H20011332   6.591   0.779   5.879  3.1712  0.6748  0.5315
   47MOL   H20111333   6.438   0.682   6.047 -1.6947 -0.8177 -0.7084
   47MOL   H20211334   6.330   0.773   5.946 -1.4075  2.2814  0.4817
   47MOL   H20311335   6.321   0.958   6.092 -1.4368  0.2684  0.6900
   47MOL   H20411336   6.272   0.826   6.182  0.1108 -0.8226 -2.8199
   47MOL   H20511337   6.432   0.884   6.220 -0.6139  0.3300 -0.0269
   47MOL   C20611338   6.649   0.904   6.048 -0.4448  0.9123 -0.4187
   47MOL   C20711339   6.699   0.807   6.157 -0.6033  0.1927  0.2210
   47MOL   C20811340   6.796   0.883   6.257 -0.1452 -0.5934 -0.2052
   47MOL   C20911341   6.708   0.980   6.339 -0.3245 -0.1407  0.5227
   47MOL   H21011342   6.605   0.995   6.091  0.5357  1.1821  0.0307
   47MOL   H21111343   6.732   0.942   5.989 -0.8947 -0.0008 -1.6588
   47MOL   H21211344   6.610   0.772   6.211 -0.1608  0.0314  0.8526
   47MOL   H21311345   6.883   0.924   6.205  1.8424 -2.1272  1.8175
   47MOL   H21411346   6.842   0.806   6.319  1.6309 -0.4322 -1.2695
   47MOL   H21511347   6.748   1.016   6.434 -0.4057  2.0906 -0.2559
   47MOL   H21611348   6.677   1.066   6.279 -2.8970 -2.4115 -1.5460
   47MOL   H21711349   6.619   0.925   6.371 -1.0432  0.7214  0.0450
   47MOL   C21811350   6.772   0.696   6.085 -0.3417 -0.0510  0.2712
   47MOL   C21911351   6.856   0.590   6.169 -0.0220 -0.1130 -0.3662
   47MOL   C22011352   6.922   0.508   6.050 -0.1734  0.0388  0.2157
   47MOL   C22111353   7.055   0.441   6.089 -0.4373 -0.0704  0.2276
   47MOL   H22211354   6.837   0.751   6.017 -1.4228  3.8150  2.2157
   47MOL   H22311355   6.700   0.640   6.025 -0.1732 -0.5549  0.5423
   47MOL   H22411356   6.942   0.632   6.221  0.6143  0.6097 -1.9627
   47MOL   H22511357   6.932   0.558   5.954 -0.9654  1.8017  1.0454
   47MOL   H22611358   6.856   0.425   6.024 -0.1554 -0.2622  1.1091
   47MOL   H22711359   7.097   0.389   6.002  2.6604 -0.9168  2.1495
   47MOL   H22811360   7.114   0.531   6.104 -0.0997 -0.4605  1.3189
   47MOL   H22911361   7.049   0.375   6.175  1.4472 -0.7692 -0.1576
   47MOL   C23011362   6.762   0.512   6.252  0.5346  0.1247  0.3084
   47MOL   C23111363   6.819   0.396   6.339  0.4610 -0.3980 -0.1347
   47MOL   C23211364   6.706   0.356   6.440 -0.5608  0.3875 -0.0026
   47MOL   C23311365   6.740   0.233   6.534  0.5230 -0.1227 -0.7097
   47MOL   H23411366   6.679   0.485   6.187 -0.6971  0.3409  1.7767
   47MOL   H23511367   6.709   0.582   6.317 -0.5949 -0.4673  0.0420
   47MOL   H23611368   6.860   0.322   6.271  0.8988 -0.2211 -0.0646
   47MOL   H23711369   6.617   0.320   6.388  0.5106 -0.6621 -1.1290
   47MOL   H23811370   6.699   0.450   6.493 -1.4720  1.2046 -1.5303
   47MOL   H23911371   6.758   0.140   6.480  2.3929 -1.0063  1.3478
   47MOL   H24011372   6.832   0.263   6.585 -0.3972 -0.6063  1.3124
   47MOL   H24111373   6.660   0.216   6.606  1.0272 -2.9323 -0.7585
   47MOL   H24211374   6.901   0.420   6.407 -0.3411 -0.7136  0.9551
   48MOL     C111375   4.895   6.107   2.630  0.8744  0.3654 -0.2544
   48MOL     C211376   4.746   6.113   2.675 -0.8180  0.2022  0.2080
   48MOL     C311377   4.681   6.246   2.635 -0.3862 -0.0730 -0.1998
   48MOL     C411378   4.529   6.227   2.618 -0.5281  0.1562 -0.1740
   48MOL     H511379   4.960   6.033   2.677  0.6000  0.0549 -0.3704
   48MOL     H611380   4.900   6.069   2.528  0.4808 -1.3387  0.3474
   48MOL     H711381   4.698   6.024   2.633 -0.1264 -0.6484  1.2074
   48MOL     H811382   4.721   6.289   2.544  0.8389  0.4335  0.5596
   48MOL     H911383   4.696   6.316   2.717 -0.1671  0.9056 -1.0772
   48MOL    H1011384   4.492   6.328   2.598  0.0137  0.2818 -0.5573
   48MOL    H1111385   4.518   6.164   2.530 -1.7591  0.4570 -0.2402
   48MOL    H1211386   4.493   6.181   2.710  0.0748 -0.6910 -0.3528
   48MOL    H1311387   4.939   6.207   2.632 -0.2288  0.8659 -0.9740
   48MOL    C1411388   4.731   6.094   2.816  0.1551 -0.4704 -0.4665
   48MOL    C1511389   4.788   5.958   2.873  0.5026 -0.2928  0.5961
   48MOL    C1611390   4.667   5.866   2.911  1.1976 -0.3156 -0.0472
   48MOL    C1711391   4.562   5.845   2.803 -0.3668  0.1694  0.2958
   48MOL    H1811392   4.625   6.096   2.840 -0.2910  5.2571 -2.0353
   48MOL    H1911393   4.772   6.176   2.875 -2.3332 -0.4568  1.3285
   48MOL    H2011394   4.839   5.903   2.794 -1.0465  0.1392 -0.7532
   48MOL    H2111395   4.620   5.900   3.003  0.0909 -0.4379 -0.5504
   48MOL    H2211396   4.706   5.768   2.936 -0.5405 -0.5403  1.9010
   48MOL    H2311397   4.478   5.790   2.844 -1.8485  1.9807 -0.2597
   48MOL    H2411398   4.522   5.933   2.752  3.0516  1.4876 -0.2533
   48MOL    H2511399   4.610   5.788   2.723 -1.2319 -1.2989  0.8154
   48MOL    C2611400   4.889   5.979   2.986 -0.5412  0.3316 -1.1798
   48MOL    C2711401   4.995   5.869   3.004  0.5148  0.5727  0.6688
   48MOL    C2811402   4.949   5.727   2.962 -0.2971  0.0775  0.1392
   48MOL    C2911403   5.057   5.621   2.939 -0.3164 -0.2359  0.0975
   48MOL    H3011404   4.827   5.998   3.075 -1.8044 -1.6791 -1.5880
   48MOL    H3111405   4.947   6.070   2.972  2.6763 -1.3951  0.3107
   48MOL    H3211406   5.077   5.892   2.937  2.2709 -1.1116  2.1775
   48MOL    H3311407   4.912   5.722   2.860 -0.7852 -0.2276  0.3335
   48MOL    H3411408   4.877   5.681   3.029 -1.0817 -2.5423 -2.3833
   48MOL    H3511409   5.111   5.618   2.844  0.8039 -0.4676  0.7395
   48MOL    H3611410   5.135   5.607   3.013  0.8085 -2.2620 -1.4064
   48MOL    H3711411   5.007   5.524   2.945  2.1891 -1.4888  1.2279
   48MOL    C3811412   5.061   5.871   3.142  0.0902  0.2360  0.1877
   48MOL    C3911413   5.212   5.914   3.142  0.5045  0.4898  0.2047
   48MOL    C4011414   5.284   5.867   3.268  0.5422 -0.1396 -0.4359
   48MOL    C4111415   5.438   5.893   3.272 -0.0963 -0.0192 -0.2349
   48MOL    H4211416   5.033   5.781   3.197 -1.0537  0.4953  0.0311
   48MOL    H4311417   5.009   5.933   3.214  1.3820 -0.5261  1.8292
   48MOL    H4411418   5.261   5.869   3.055 -0.7004 -0.1259 -0.1628
   48MOL    H4511419   5.275   5.759   3.270 -0.7087 -0.0230  0.6747
   48MOL    H4611420   5.243   5.912   3.359  1.7351  0.4171 -0.1601
   48MOL    H4711421   5.467   5.998   3.269  1.7944 -0.5436 -1.5923
   48MOL    H4811422   5.494   5.842   3.350  1.5755 -0.2383 -1.5441
   48MOL    H4911423   5.481   5.853   3.180  0.3670 -1.0010  0.3986
   48MOL    C5011424   5.221   6.068   3.122  0.6736  1.1136  0.2963
   48MOL    C5111425   5.324   6.116   3.018  0.2339 -0.0565  0.8873
   48MOL    C5211426   5.340   6.268   3.035 -0.5128  0.8701 -0.1021
   48MOL    C5311427   5.489   6.311   3.017  0.8081 -1.1315  0.5674
   48MOL    H5411428   5.266   6.104   3.214  0.4297 -1.1309  1.3390
   48MOL    H5511429   5.125   6.117   3.111  0.0590 -0.6194 -2.5174
   48MOL    H5611430   5.416   6.062   3.040 -0.1291 -1.5184 -1.0926
   48MOL    H5711431   5.308   6.301   3.134 -1.7343 -1.5371  0.3421
   48MOL    H5811432   5.284   6.316   2.955  0.6856 -0.1730 -1.6042
   48MOL    H5911433   5.530   6.313   2.916  0.6624 -1.3249  0.5037
   48MOL    H6011434   5.494   6.410   3.062 -1.1427 -1.3551  1.3171
   48MOL    H6111435   5.553   6.241   3.071 -0.3649 -2.0583  0.7736
   48MOL    C6211436   5.277   6.081   2.877  0.0242  0.1177 -0.2865
   48MOL    C6311437   5.377   6.103   2.761 -0.5543  0.6351  0.5970
   48MOL    C6411438   5.310   6.110   2.622  0.1748  0.1063 -0.2237
   48MOL    C6511439   5.236   6.242   2.599  0.1983  0.2964  0.4409
   48MOL    H6611440   5.188   6.140   2.855 -0.6202  0.2183  2.4245
   48MOL    H6711441   5.253   5.975   2.875  0.1354  0.0616  1.2269
   48MOL    H6811442   5.423   6.202   2.766  1.6598 -0.3181 -0.0452
   48MOL    H6911443   5.238   6.028   2.616 -0.3386  0.6835 -2.7335
   48MOL    H7011444   5.384   6.093   2.544  0.5176  1.4017 -0.1959
   48MOL    H7111445   5.294   6.321   2.551  1.2536 -0.2368  0.8304
   48MOL    H7211446   5.159   6.218   2.526  0.4700  0.7289  0.0037
   48MOL    H7311447   5.186   6.277   2.689 -0.8609 -0.6136  0.2153
   48MOL    C7411448   5.482   5.987   2.760 -0.5304  0.2059 -0.1852
   48MOL    C7511449   5.606   5.985   2.666  1.2903 -0.1435  0.2802
   48MOL    C7611450   5.687   5.850   2.666  0.2571  0.9295  0.5833
   48MOL    C7711451   5.624   5.742   2.582 -0.0887 -0.0498  0.5711
   48MOL    H7811452   5.433   5.891   2.746 -1.2710  0.6435 -0.6195
   48MOL    H7911453   5.528   5.981   2.859 -0.9422  0.0797  0.0003
   48MOL    H8011454   5.568   5.997   2.565  0.7611  3.9111  0.8860
   48MOL    H8111455   5.697   5.810   2.768  0.5666  0.3081  0.3124
   48MOL    H8211456   5.787   5.873   2.631  0.2742 -0.2895 -0.1958
   48MOL    H8311457   5.529   5.704   2.621 -0.1132 -3.0353 -2.2040
   48MOL    H8411458   5.619   5.786   2.483  2.1002 -0.7161  0.1364
   48MOL    H8511459   5.696   5.663   2.561  0.6875  0.7359  0.2467
   48MOL    C8611460   5.693   6.113   2.693  0.2354  0.5755 -0.4972
   48MOL    C8711461   5.779   6.172   2.575 -0.4495  0.2481 -0.1759
   48MOL    C8811462   5.887   6.263   2.632  0.4673 -0.5801 -0.1375
   48MOL    C8911463   5.983   6.320   2.532 -0.2619 -0.3460  0.1089
   48MOL    H9011464   5.753   6.084   2.779  0.2291  2.1179  0.0322
   48MOL    H9111465   5.634   6.194   2.735  1.7612  1.3425  0.1920
   48MOL    H9211466   5.835   6.089   2.534 -0.1655  0.7977 -0.9100
   48MOL    H9311467   5.940   6.207   2.709  1.0951  0.4442  0.1727
   48MOL    H9411468   5.840   6.347   2.683  0.4262 -1.8925  2.0528
   48MOL    H9511469   6.043   6.398   2.579 -1.2890  1.2385 -1.1630
   48MOL    H9611470   6.045   6.242   2.489 -0.6156 -0.8025  0.4086
   48MOL    H9711471   5.931   6.362   2.447  2.0379  2.1179 -0.1272
   48MOL    C9811472   5.691   6.244   2.468 -0.2728 -0.6020  0.7017
   48MOL    C9911473   5.727   6.218   2.319  0.1684  0.5255 -0.0528
   48MOL   C10011474   5.686   6.340   2.228 -0.1887 -0.0150 -0.0268
   48MOL   C10111475   5.771   6.469   2.251 -0.5699  0.7155  0.1645
   48MOL   H10211476   5.691   6.351   2.487 -1.9748 -0.7674  1.7315
   48MOL   H10311477   5.587   6.224   2.495 -0.5315 -0.6223 -0.2845
   48MOL   H10411478   5.836   6.210   2.328  0.1504 -1.5404 -1.4624
   48MOL   H10511479   5.580   6.360   2.246  0.1692  2.6515 -0.6878
   48MOL   H10611480   5.699   6.323   2.122  0.3669  1.0328 -0.1373
   48MOL   H10711481   5.748   6.509   2.349  1.7184 -0.7262  1.3385
   48MOL   H10811482   5.878   6.458   2.229 -0.3993 -1.3741  1.8050
   48MOL   H10911483   5.728   6.540   2.181 -0.0338  1.1735  0.2973
   48MOL   C11011484   5.666   6.091   2.270  0.2427  0.6028  0.0792
   48MOL   C11111485   5.753   6.005   2.172 -0.1756  0.4841  0.0133
   48MOL   C11211486   5.663   5.907   2.097  0.2788  0.1492 -0.0317
   48MOL   C11311487   5.606   5.791   2.181  0.2933  0.3260 -0.2270
   48MOL   H11411488   5.572   6.127   2.228 -0.5638  1.0631  2.2063
   48MOL   H11511489   5.641   6.039   2.363  3.3447  1.0214  1.1941
   48MOL   H11611490   5.784   6.080   2.099  1.0117 -0.2039 -0.2097
   48MOL   H11711491   5.716   5.875   2.007  1.0093  0.9832  0.0920
   48MOL   H11811492   5.583   5.970   2.058 -0.4134  0.9607  2.5621
   48MOL   H11911493   5.525   5.814   2.250  0.4482 -1.2304  0.5041
   48MOL   H12011494   5.555   5.720   2.116  0.2752 -1.4159  1.6264
   48MOL   H12111495   5.690   5.738   2.228 -0.8218  0.1087  1.5746
   48MOL   C12211496   5.876   5.946   2.242  0.1182 -0.2241  0.1122
   48MOL   C12311497   5.972   5.889   2.134  0.2485  0.9516 -0.7224
   48MOL   C12411498   6.049   5.765   2.191 -0.2680 -0.9056  0.1005
   48MOL   C12511499   5.983   5.628   2.164  0.0802  0.8401 -0.7373
   48MOL   H12611500   5.840   5.873   2.314 -0.4065  2.4079  2.6271
   48MOL   H12711501   5.923   6.021   2.306 -0.3790  1.6370 -1.6456
   48MOL   H12811502   5.922   5.841   2.050  2.4740  0.6665 -1.9061
   48MOL   H12911503   6.064   5.785   2.297 -0.0290  1.3885 -0.3344
   48MOL   H13011504   6.150   5.769   2.152 -0.4284 -0.5288 -0.2882
   48MOL   H13111505   5.988   5.610   2.056  0.6465  0.9619 -0.7346
   48MOL   H13211506   6.024   5.547   2.225 -0.1411  0.2016 -1.4235
   48MOL   H13311507   5.879   5.642   2.191 -0.6382 -0.0231 -2.9127
   48MOL   C13411508   6.068   6.000   2.087 -0.6755 -0.6213 -0.9984
   48MOL   C13511509   6.140   5.973   1.955  0.2756 -0.3067 -0.2084
   48MOL   C13611510   6.274   6.043   1.942 -0.1359 -0.0859 -0.0062
   48MOL   C13711511   6.265   6.191   1.968 -0.0072 -0.0321 -0.5035
   48MOL   H13811512   6.145   6.006   2.164  2.0176  0.9067 -3.7047
   48MOL   H13911513   6.024   6.100   2.093  0.3228 -0.0423 -2.9574
   48MOL   H14011514   6.163   5.867   1.950  0.0467 -0.5158  2.4195
   48MOL   H14111515   6.310   6.032   1.840  1.7281 -1.1207  0.7305
   48MOL   H14211516   6.344   5.987   2.005  1.6556  1.7547 -0.2904
   48MOL   H14311517   6.259   6.206   2.075  0.2370  1.0845 -0.6446
   48MOL   H14411518   6.357   6.235   1.930  1.7965 -3.2323  0.0121
   48MOL   H14511519   6.174   6.228   1.919 -0.1832  0.5312  0.2546
   48MOL   C14611520   6.040   5.990   1.838 -0.1713 -0.5948 -0.2932
   48MOL   C14711521   6.066   5.912   1.705 -0.3884  0.0409 -0.0597
   48MOL   C14811522   6.097   6.002   1.580  0.1309 -0.4334  0.2159
   48MOL   C14911523   6.201   6.113   1.591 -0.2516 -0.1743 -0.2807
   48MOL   H15011524   6.044   6.095   1.806 -0.8573 -0.4456  0.0895
   48MOL   H15111525   5.938   5.967   1.869 -0.3543  0.2926 -0.2027
   48MOL   H15211526   6.163   5.863   1.720  0.2985  0.4744 -2.7480
   48MOL   H15311527   6.003   6.055   1.568 -1.1513 -2.7049 -0.0209
   48MOL   H15411528   6.110   5.940   1.491 -2.3631  0.0028 -0.4770
   48MOL   H15511529   6.185   6.179   1.676 -0.3452 -0.0866 -0.3666
   48MOL   H15611530   6.298   6.065   1.603  0.7910  1.9157 -0.0092
   48MOL   H15711531   6.209   6.185   1.509 -0.1901 -0.3738 -0.4487
   48MOL   C15811532   5.944   5.818   1.663  0.0862 -0.9233  0.0713
   48MOL   C15911533   5.932   5.685   1.737 -0.0971 -0.6601 -0.7347
   48MOL   C16011534   6.060   5.608   1.771  0.3535  0.0903 -0.3755
   48MOL   C16111535   6.156   5.575   1.658  0.3981  0.1585 -0.3819
   48MOL   H16211536   5.950   5.805   1.555  2.1344 -0.1691  0.0695
   48MOL   H16311537   5.852   5.874   1.673  0.5898 -0.2115  0.6966
   48MOL   H16411538   5.891   5.694   1.838  0.2505 -1.2050 -0.5405
   48MOL   H16511539   6.044   5.512   1.820 -2.1940  1.2035  1.0489
   48MOL   H16611540   6.111   5.671   1.844  0.1909 -1.3256  0.9668
   48MOL   H16711541   6.255   5.543   1.691  0.1605  0.0430  0.2277
   48MOL   H16811542   6.125   5.484   1.605 -2.2058  2.4827 -2.9988
   48MOL   H16911543   6.177   5.661   1.595  0.4299 -1.0277 -2.0354
   48MOL   C17011544   5.835   5.588   1.663 -0.2953  1.0138 -0.2549
   48MOL   C17111545   5.683   5.622   1.642 -0.5780  0.3181 -0.0078
   48MOL   C17211546   5.614   5.627   1.780 -0.3432  0.3420 -0.2831
   48MOL   C17311547   5.468   5.692   1.785  0.0240  0.7068 -0.7213
   48MOL   H17411548   5.825   5.490   1.711 -0.9914 -0.6996 -3.6951
   48MOL   H17511549   5.876   5.560   1.566 -0.8620  2.7917 -1.0240
   48MOL   H17611550   5.683   5.714   1.584 -1.5456  1.1325  1.2427
   48MOL   H17711551   5.668   5.680   1.859  0.9791  0.4639 -1.2401
   48MOL   H17811552   5.614   5.529   1.826  0.0076 -0.2021 -1.4222
   48MOL   H17911553   5.389   5.619   1.767  1.8301 -2.2136  2.6110
   48MOL   H18011554   5.446   5.740   1.881  1.0646 -2.4771  1.1838
   48MOL   H18111555   5.465   5.772   1.711  2.8205  1.5515  0.0340
   48MOL   C18211556   5.610   5.518   1.555  0.8128  0.3897  0.7439
   48MOL   C18311557   5.670   5.470   1.419  0.3072  0.7728  0.6934
   48MOL   C18411558   5.677   5.583   1.318 -0.2378 -0.3715 -0.1702
   48MOL   C18511559   5.541   5.661   1.306 -0.6928 -0.7964  0.0627
   48MOL   H18611560   5.512   5.564   1.542  1.2199  1.1425  0.2897
   48MOL   H18711561   5.595   5.430   1.617  1.8777  0.4647  1.1267
   48MOL   H18811562   5.772   5.435   1.428 -0.2196 -0.9400  0.2453
   48MOL   H18911563   5.703   5.540   1.221  2.9359  2.4197 -0.6441
   48MOL   H19011564   5.752   5.656   1.347 -0.2956 -0.3529 -0.0710
   48MOL   H19111565   5.528   5.720   1.396  1.7645 -1.5909  0.9724
   48MOL   H19211566   5.534   5.729   1.221 -0.5193 -0.0731  0.6192
   48MOL   H19311567   5.455   5.596   1.289 -1.7693  1.2790 -2.8409
   48MOL   C19411568   5.588   5.343   1.366  0.0836  0.1531 -0.0368
   48MOL   C19511569   5.603   5.215   1.450 -0.2879 -0.0156 -0.6277
   48MOL   C19611570   5.747   5.158   1.449 -0.1711 -0.8976 -0.0982
   48MOL   C19711571   5.802   5.128   1.319 -0.1777  0.4747  0.3960
   48MOL   H19811572   5.614   5.325   1.261  0.4582 -0.6350  0.1838
   48MOL   H19911573   5.482   5.368   1.371  0.5328  1.7630  2.0022
   48MOL   H20011574   5.580   5.243   1.553 -2.7128  2.3184 -1.7377
   48MOL   H20111575   5.751   5.072   1.517  1.6074 -1.4114 -0.8214
   48MOL   H20211576   5.823   5.217   1.500  2.3253 -1.5510 -2.9202
   48MOL   H20311577   5.806   5.211   1.250  0.2959 -0.5576 -0.8361
   48MOL   H20411578   5.905   5.095   1.334  0.1593  0.5162 -1.7676
   48MOL   H20511579   5.749   5.042   1.277  1.5603 -0.4178 -0.0588
   48MOL   C20611580   5.498   5.114   1.384 -0.3567  0.5385  0.0692
   48MOL   C20711581   5.491   4.972   1.453 -0.0726 -0.3480  0.0338
   48MOL   C20811582   5.396   4.874   1.382 -0.4098 -0.4633 -0.2623
   48MOL   C20911583   5.444   4.838   1.245  0.6440 -0.6167 -0.3355
   48MOL   H21011584   5.513   5.111   1.276 -1.5521 -0.0893 -0.0853
   48MOL   H21111585   5.400   5.160   1.396 -0.1715  1.0915 -0.4316
   48MOL   H21211586   5.590   4.927   1.454 -0.2333 -0.7001  1.3995
   48MOL   H21311587   5.297   4.918   1.374 -0.5484 -0.5847  0.7823
   48MOL   H21411588   5.397   4.783   1.443  0.6087 -1.2906 -1.4808
   48MOL   H21511589   5.380   4.767   1.192  0.2303 -1.3438  1.0898
   48MOL   H21611590   5.459   4.920   1.176  0.1367  0.3846  0.7276
   48MOL   H21711591   5.535   4.779   1.253  0.9184 -0.0715  0.5889
   48MOL   C21811592   5.445   4.976   1.604 -0.4059  0.2153 -0.4398
   48MOL   C21911593   5.313   5.037   1.634 -0.7237 -0.5869 -0.3234
   48MOL   C22011594   5.321   5.149   1.739 -0.3368 -0.2231 -0.1430
   48MOL   C22111595   5.384   5.105   1.873 -0.0173  0.2806 -0.1622
   48MOL   H22211596   5.519   5.038   1.655  0.1750 -0.4745 -0.4406
   48MOL   H22311597   5.456   4.878   1.650 -0.7305  0.3432 -0.0894
   48MOL   H22411598   5.272   5.088   1.547 -1.0641 -0.6322 -0.1875
   48MOL   H22511599   5.220   5.188   1.753  0.1261  1.3595 -1.0425
   48MOL   H22611600   5.380   5.233   1.701  0.5781  1.0525  3.7929
   48MOL   H22711601   5.489   5.077   1.865 -0.3878 -1.1209 -0.4136
   48MOL   H22811602   5.379   5.182   1.949  2.8454 -0.1753  0.5294
   48MOL   H22911603   5.334   5.023   1.925  2.7873 -0.6463  1.1656
   48MOL   C23011604   5.208   4.931   1.666 -0.2980 -0.5958 -0.8365
   48MOL   C23111605   5.061   4.975   1.675  0.8402  0.0825  0.0074
   48MOL   C23211606   4.965   4.857   1.657 -0.5312 -0.1503 -0.8180
   48MOL   C23311607   4.830   4.914   1.608 -0.6432 -0.4653  0.9815
   48MOL   H23411608   5.226   4.875   1.757  0.6461  1.3624  0.2190
   48MOL   H23511609   5.222   4.856   1.588  0.6245 -1.0417 -0.2492
   48MOL   H23611610   5.055   5.032   1.767  2.0576  1.1086 -0.5306
   48MOL   H23711611   4.967   4.819   1.759 -0.4055 -1.4884 -1.3114
   48MOL   H23811612   5.010   4.781   1.593  3.3682  0.4113  1.0888
   48MOL   H23911613   4.760   4.831   1.601 -0.4240 -0.6182  0.5755
   48MOL   H24011614   4.787   4.988   1.675  0.5445  0.9088  0.2615
   48MOL   H24111615   4.834   4.962   1.511 -0.5234  1.4070  1.8823
   48MOL   H24211616   5.034   5.049   1.599 -0.8820 -0.5681 -0.0303
   49MOL     C111617   1.301   3.063   1.371 -0.7365 -0.3451 -0.3406
   49MOL     C211618   1.167   3.095   1.298 -0.4797 -0.0947 -0.3890
   49MOL     C311619   1.149   2.980   1.193 -0.0290  0.5650  0.5055
   49MOL     C411620   1.000   2.955   1.161 -0.3483 -0.3337  0.4400
   49MOL     H511621   1.324   3.123   1.459  0.6945 -3.4428  1.4912
   49MOL     H611622   1.298   2.961   1.410  2.1856 -0.3225  0.0519
   49MOL     H711623   1.079   3.106   1.361  0.3178 -0.2521  0.7682
   49MOL     H811624   1.185   2.883   1.226  0.6009  0.5679 -0.1523
   49MOL     H911625   1.212   2.990   1.104 -0.4970  0.2648  0.1410
   49MOL    H1011626   1.004   2.894   1.071  1.9328 -0.1912  0.4025
   49MOL    H1111627   0.941   2.902   1.236 -1.9050  1.0409  0.2253
   49MOL    H1211628   0.950   3.049   1.139 -0.8958 -0.6128  0.4944
   49MOL    H1311629   1.389   3.068   1.307  1.3655  2.9046  2.5947
   49MOL    C1411630   1.161   3.220   1.210 -0.1075 -0.0966 -0.0166
   49MOL    C1511631   1.176   3.358   1.278 -0.5273  0.1470  0.7753
   49MOL    C1611632   1.062   3.381   1.390  0.4108 -0.9029  0.0601
   49MOL    C1711633   1.096   3.514   1.461 -0.1706  0.1479  0.1051
   49MOL    H1811634   1.070   3.226   1.151 -1.4462 -1.1298  1.8955
   49MOL    H1911635   1.241   3.216   1.136 -0.9405  1.2647 -0.9968
   49MOL    H2011636   1.269   3.349   1.333  0.7036  0.7877 -1.1415
   49MOL    H2111637   1.066   3.295   1.457  0.6457 -0.6804  0.3309
   49MOL    H2211638   0.965   3.390   1.342  0.4044  0.0444  0.2569
   49MOL    H2311639   1.027   3.513   1.545  1.3578 -0.5205  1.3926
   49MOL    H2411640   1.197   3.524   1.500 -1.3760  0.7254  3.2150
   49MOL    H2511641   1.074   3.605   1.406  0.2389 -0.3970 -0.9753
   49MOL    C2611642   1.170   3.477   1.171  0.2925 -0.7714 -0.9367
   49MOL    C2711643   1.265   3.599   1.200  0.0118  0.9297 -0.1966
   49MOL    C2811644   1.187   3.732   1.188  0.2967  0.4044 -0.4263
   49MOL    C2911645   1.151   3.766   1.042 -0.8332 -0.2288  0.0878
   49MOL    H3011646   1.067   3.513   1.169  0.8792  0.9042 -2.2581
   49MOL    H3111647   1.194   3.441   1.071 -1.9842  1.6242 -2.4144
   49MOL    H3211648   1.289   3.583   1.305  0.7984  2.1544 -0.1802
   49MOL    H3311649   1.246   3.808   1.240  0.5656 -0.5090  0.6348
   49MOL    H3411650   1.097   3.736   1.250  0.3613  1.5502 -0.4025
   49MOL    H3511651   1.069   3.837   1.033 -1.9555 -1.3603  1.2610
   49MOL    H3611652   1.239   3.795   0.984 -0.5640  0.1768  0.6988
   49MOL    H3711653   1.114   3.675   0.994 -1.0329  0.2412 -0.6657
   49MOL    C3811654   1.394   3.582   1.118  0.2408 -0.1644 -0.6848
   49MOL    C3911655   1.497   3.695   1.136  0.4889  0.1927 -0.4959
   49MOL    C4011656   1.600   3.663   1.029  0.3578 -0.7653 -0.3278
   49MOL    C4111657   1.559   3.729   0.889  0.5990  0.1608 -0.0201
   49MOL    H4211658   1.346   3.584   1.020 -0.7637  0.9910 -0.1842
   49MOL    H4311659   1.444   3.486   1.132  2.1551  0.7967 -0.8583
   49MOL    H4411660   1.439   3.786   1.117  0.6124  0.9714  2.6115
   49MOL    H4511661   1.620   3.557   1.013  0.4844 -0.5301 -1.8342
   49MOL    H4611662   1.699   3.691   1.065  0.6681 -0.8123 -1.1242
   49MOL    H4711663   1.618   3.685   0.809  0.2171 -0.5094  0.0663
   49MOL    H4811664   1.457   3.701   0.866  1.4393 -0.9000 -2.7224
   49MOL    H4911665   1.570   3.837   0.875  0.9566 -0.0896 -1.9058
   49MOL    C5011666   1.550   3.703   1.282  0.1936 -0.1458 -0.0811
   49MOL    C5111667   1.624   3.832   1.319  0.1720  0.9828  0.1306
   49MOL    C5211668   1.688   3.817   1.457  0.1527 -0.0934  0.5356
   49MOL    C5311669   1.794   3.913   1.500 -0.1400 -0.4624 -1.0019
   49MOL    H5411670   1.618   3.618   1.291  0.8144  0.3143 -0.4008
   49MOL    H5511671   1.471   3.685   1.355 -0.1859  1.3201 -0.1154
   49MOL    H5611672   1.707   3.852   1.252  1.0353  0.1637  0.9300
   49MOL    H5711673   1.735   3.719   1.469 -0.0644 -0.6853 -2.8139
   49MOL    H5811674   1.601   3.818   1.522  0.1081  2.9409  0.4721
   49MOL    H5911675   1.862   3.910   1.414  0.3803  0.6937 -0.6332
   49MOL    H6011676   1.750   4.012   1.513  1.0706  0.0451 -0.7148
   49MOL    H6111677   1.849   3.877   1.586  0.8631  0.5592 -1.2068
   49MOL    C6211678   1.539   3.957   1.319 -0.0762  0.1856  0.6012
   49MOL    C6311679   1.613   4.080   1.249  0.2780 -0.6166  0.0530
   49MOL    C6411680   1.567   4.219   1.300 -0.8537  0.4006  0.5957
   49MOL    C6511681   1.589   4.246   1.450  0.3053 -0.0941  0.5958
   49MOL    H6611682   1.494   3.976   1.416 -1.2878 -0.7867  0.2334
   49MOL    H6711683   1.456   3.938   1.251  0.7937  2.3808 -1.1747
   49MOL    H6811684   1.720   4.064   1.260  0.2692 -1.5488 -1.0520
   49MOL    H6911685   1.461   4.240   1.287 -0.6706  0.5786 -0.6239
   49MOL    H7011686   1.610   4.299   1.240  0.0607 -1.0671 -0.7207
   49MOL    H7111687   1.530   4.329   1.488  1.1080  2.1340 -2.8615
   49MOL    H7211688   1.561   4.153   1.501  3.2703 -1.5076 -0.2216
   49MOL    H7311689   1.697   4.248   1.467  0.6001  0.3232 -1.3018
   49MOL    C7411690   1.580   4.081   1.093 -0.3575 -0.7979  0.3281
   49MOL    C7511691   1.705   4.128   1.004 -0.1059 -0.0079  1.0777
   49MOL    C7611692   1.666   4.167   0.858 -0.3167  0.6231 -0.3916
   49MOL    C7711693   1.611   4.310   0.841 -0.1196  0.3595 -0.2049
   49MOL    H7811694   1.489   4.137   1.075  0.6329  1.0109  0.8764
   49MOL    H7911695   1.543   3.987   1.052 -0.1005 -0.8429  0.1995
   49MOL    H8011696   1.747   4.216   1.051 -1.1436  1.7446 -1.1867
   49MOL    H8111697   1.603   4.095   0.806  0.0554 -0.8576  1.1571
   49MOL    H8211698   1.762   4.160   0.807 -1.1736 -2.6503 -1.6740
   49MOL    H8311699   1.505   4.308   0.865  0.1664 -1.7786  1.0026
   49MOL    H8411700   1.659   4.376   0.913  3.0862 -3.5843  1.4711
   49MOL    H8511701   1.625   4.352   0.741  0.6271  1.1552  0.2279
   49MOL    C8611702   1.827   4.021   0.997  1.0985 -0.3329 -0.1136
   49MOL    C8711703   1.962   4.061   1.059 -0.8791  0.9774  0.9372
   49MOL    C8811704   2.030   4.188   1.003 -0.5857  0.0878  0.4751
   49MOL    C8911705   2.160   4.233   1.069  0.4583  0.2573 -0.0100
   49MOL    H9011706   1.837   3.980   0.896 -1.8619  1.6123 -1.2744
   49MOL    H9111707   1.796   3.931   1.049  1.7416 -1.7941 -2.1883
   49MOL    H9211708   1.958   4.083   1.166 -4.1145  1.0118  0.8611
   49MOL    H9311709   1.952   4.263   0.989 -2.1556 -1.7559 -0.9523
   49MOL    H9411710   2.062   4.170   0.901 -0.7316 -1.8333  0.7543
   49MOL    H9511711   2.226   4.157   1.112  0.2656 -0.3425 -0.7600
   49MOL    H9611712   2.207   4.315   1.015 -1.1193  1.7379  0.8069
   49MOL    H9711713   2.119   4.277   1.160 -0.3712  1.3940 -0.9118
   49MOL    C9811714   2.055   3.943   1.038  0.0146  0.2258 -0.0994
   49MOL    C9911715   2.093   3.857   1.167  0.4500 -0.0093  0.3025
   49MOL   C10011716   2.162   3.928   1.283 -0.3860  0.2545 -0.4243
   49MOL   C10111717   2.168   3.848   1.414  0.0352 -0.3536  0.1634
   49MOL   H10211718   2.155   3.972   1.005 -0.3882  2.6165  0.7066
   49MOL   H10311719   2.024   3.888   0.950 -5.1260  0.3717  1.4238
   49MOL   H10411720   1.994   3.827   1.201  0.8229 -0.5658  0.9031
   49MOL   H10511721   2.119   4.028   1.294 -3.6679 -1.2926  1.5982
   49MOL   H10611722   2.265   3.939   1.249  0.1588 -1.9337  0.4646
   49MOL   H10711723   2.189   3.924   1.490  0.2857  0.3094 -0.5603
   49MOL   H10811724   2.077   3.800   1.452  0.7223  0.2272  2.6550
   49MOL   H10911725   2.258   3.788   1.410 -0.3514 -1.1167  2.2651
   49MOL   C11011726   2.187   3.732   1.128 -0.0904 -0.3664  0.2467
   49MOL   C11111727   2.121   3.628   1.035  0.5042 -0.2359 -0.0196
   49MOL   C11211728   1.996   3.565   1.102  0.2469  0.4463  0.6645
   49MOL   C11311729   1.924   3.455   1.016  0.4138 -0.2099 -0.2720
   49MOL   H11411730   2.214   3.676   1.217  0.0211  0.3558  0.6683
   49MOL   H11511731   2.281   3.771   1.089  0.1047 -0.1261  0.9531
   49MOL   H11611732   2.092   3.671   0.939 -0.4096 -0.2588  0.2367
   49MOL   H11711733   1.926   3.642   1.133  2.5782  3.2068 -0.7022
   49MOL   H11811734   2.030   3.514   1.193 -1.4347 -0.6265  0.7047
   49MOL   H11911735   1.909   3.485   0.912  0.6292  0.9257  0.0227
   49MOL   H12011736   1.973   3.358   1.010  1.3747  0.1131  2.0224
   49MOL   H12111737   1.825   3.427   1.053  0.4083  0.0596 -0.0784
   49MOL   C12211738   2.223   3.513   0.997  0.1516 -0.3267 -0.8678
   49MOL   C12311739   2.357   3.546   0.926 -0.4457 -1.0424 -0.0968
   49MOL   C12411740   2.347   3.660   0.814  0.2783  0.3502  0.3731
   49MOL   C12511741   2.292   3.606   0.682  0.3965  0.1164 -1.1000
   49MOL   H12611742   2.177   3.431   0.943  0.8623 -1.8802  0.8224
   49MOL   H12711743   2.254   3.467   1.091 -0.8178  1.6016  0.4375
   49MOL   H12811744   2.411   3.591   1.009 -1.1163 -1.2693  0.4636
   49MOL   H12911745   2.446   3.704   0.801  1.6231 -2.5442  0.5864
   49MOL   H13011746   2.283   3.744   0.842 -2.9118 -1.7099 -0.4891
   49MOL   H13111747   2.273   3.686   0.611  0.2987  1.2091  0.1575
   49MOL   H13211748   2.372   3.545   0.639  1.2901  0.5819 -0.1086
   49MOL   H13311749   2.201   3.547   0.694  1.3242 -1.2222 -0.4057
   49MOL   C13411750   2.441   3.421   0.885 -0.6130 -0.5864 -0.3893
   49MOL   C13511751   2.590   3.443   0.846 -0.6514 -0.8851  0.2462
   49MOL   C13611752   2.648   3.328   0.769 -0.5277 -0.1574  0.2084
   49MOL   C13711753   2.615   3.329   0.618 -0.4038  0.2016 -0.6386
   49MOL   H13811754   2.378   3.370   0.812 -2.2730 -0.1056  0.6755
   49MOL   H13911755   2.450   3.348   0.965 -1.8318 -1.4202 -0.9978
   49MOL   H14011756   2.586   3.531   0.783 -1.6749  0.3387  1.9888
   49MOL   H14111757   2.631   3.230   0.812  1.6594 -1.0759 -0.9493
   49MOL   H14211758   2.757   3.331   0.772 -0.5147 -0.6391  0.1310
   49MOL   H14311759   2.678   3.261   0.560  0.9878  1.7606 -0.9822
   49MOL   H14411760   2.513   3.317   0.583 -0.8138  1.0224  0.2304
   49MOL   H14511761   2.643   3.416   0.559 -1.3300  1.5569  0.8830
   49MOL   C14611762   2.674   3.477   0.971  0.1320 -0.1902  1.3440
   49MOL   C14711763   2.826   3.519   0.963  0.3508  0.3567  0.5437
   49MOL   C14811764   2.928   3.423   1.031  0.6386  0.2373  0.2513
   49MOL   C14911765   3.073   3.448   1.021 -0.2964  0.1897  0.0879
   49MOL   H15011766   2.668   3.388   1.034  1.5563 -1.2665  0.0163
   49MOL   H15111767   2.614   3.546   1.029  0.9249 -1.3814  3.6629
   49MOL   H15211768   2.847   3.507   0.857  1.0239  1.6472  0.5242
   49MOL   H15311769   2.907   3.326   0.988  0.5284  0.2619  0.2492
   49MOL   H15411770   2.910   3.425   1.139  0.0933 -2.3041  0.2371
   49MOL   H15511771   3.129   3.354   1.031  0.1760  0.3457 -1.0466
   49MOL   H15611772   3.097   3.495   0.926  1.1194  0.1081  0.3839
   49MOL   H15711773   3.101   3.525   1.093 -2.0224 -0.3730  1.3849
   49MOL   C15811774   2.844   3.668   1.001 -0.0127 -0.4384  0.2121
   49MOL   C15911775   2.779   3.774   0.908 -0.3700  0.1577  0.1113
   49MOL   C16011776   2.859   3.794   0.781 -1.1829 -0.6497 -0.0247
   49MOL   C16111777   2.792   3.863   0.659 -0.3561 -0.2915 -0.5879
   49MOL   H16211778   2.949   3.687   1.027  0.1506  1.8385 -1.9171
   49MOL   H16311779   2.797   3.672   1.099 -0.8659  0.3302 -0.2205
   49MOL   H16411780   2.676   3.743   0.892 -0.3878  0.4393 -0.3345
   49MOL   H16511781   2.872   3.691   0.749  1.6328 -1.1094  2.3766
   49MOL   H16611782   2.962   3.825   0.798 -0.7739 -2.0037  0.0201
   49MOL   H16711783   2.694   3.826   0.630 -0.2905  1.0389 -2.5968
   49MOL   H16811784   2.793   3.971   0.672  1.4321 -0.4768  1.0823
   49MOL   H16911785   2.861   3.850   0.575 -1.4233 -1.5021 -1.2935
   49MOL   C17011786   2.780   3.911   0.982  0.1697  0.1268  0.1243
   49MOL   C17111787   2.680   3.917   1.097  0.0283  0.0321 -0.4174
   49MOL   C17211788   2.537   3.946   1.044  0.2163 -0.3581  0.0564
   49MOL   C17311789   2.512   4.083   0.978 -0.2302 -0.7620  0.1800
   49MOL   H17411790   2.755   3.997   0.920  0.1937  0.8978  1.1715
   49MOL   H17511791   2.877   3.931   1.028  0.3270 -1.4817  0.5089
   49MOL   H17611792   2.677   3.817   1.141  0.8007 -0.0058 -0.4596
   49MOL   H17711793   2.460   3.908   1.111  0.5894 -1.0136  0.1112
   49MOL   H17811794   2.518   3.878   0.961 -1.5439  0.2125 -0.0409
   49MOL   H17911795   2.556   4.163   1.038 -2.5067  0.0265  0.8264
   49MOL   H18011796   2.542   4.085   0.873  1.7373 -0.6808  0.7120
   49MOL   H18111797   2.407   4.109   0.970  0.1592  1.4723  1.8213
   49MOL   C18211798   2.723   4.008   1.213 -0.9139  0.6034 -0.1495
   49MOL   C18311799   2.693   3.951   1.358 -0.5173 -0.1151  0.0806
   49MOL   C18411800   2.714   4.065   1.458  0.2129  0.8682  0.3763
   49MOL   C18511801   2.639   4.056   1.589 -0.1297 -0.3031  0.2008
   49MOL   H18611802   2.677   4.106   1.204 -2.1529  0.1218  0.7915
   49MOL   H18711803   2.831   4.011   1.219 -0.9389  0.6819  0.3080
   49MOL   H18811804   2.595   3.903   1.364 -0.3876 -0.3320  0.4723
   49MOL   H18911805   2.683   4.158   1.410 -0.7835  0.4249  0.1489
   49MOL   H19011806   2.821   4.072   1.474  0.2387  0.2075  0.5003
   49MOL   H19111807   2.691   3.980   1.647 -1.0221 -2.9402 -2.3085
   49MOL   H19211808   2.649   4.147   1.648 -1.2424  0.4649 -0.7638
   49MOL   H19311809   2.535   4.030   1.567 -0.3606  1.0970 -0.4305
   49MOL   C19411810   2.792   3.829   1.406 -0.8820 -0.2374  0.3458
   49MOL   C19511811   2.731   3.719   1.479 -0.6263  0.6477  0.5088
   49MOL   C19611812   2.844   3.638   1.555 -0.2843  0.0464  0.1494
   49MOL   C19711813   2.942   3.563   1.465 -0.4039  0.0766 -0.0228
   49MOL   H19811814   2.878   3.861   1.466 -0.3995  1.3924 -1.1655
   49MOL   H19911815   2.834   3.779   1.319  0.4968 -0.5146  1.1597
   49MOL   H20011816   2.663   3.761   1.554 -1.2452 -2.6502  1.9071
   49MOL   H20111817   2.800   3.570   1.628  1.2992 -0.8644  0.2840
   49MOL   H20211818   2.908   3.698   1.620  0.2721 -1.4943  1.0602
   49MOL   H20311819   2.988   3.632   1.395 -1.0167  1.0705  0.5407
   49MOL   H20411820   3.031   3.533   1.520  0.3464  2.0307 -0.1343
   49MOL   H20511821   2.887   3.483   1.414  1.7159  0.1753 -2.5742
   49MOL   C20611822   2.647   3.642   1.376  0.3803  0.1357 -0.1162
   49MOL   C20711823   2.558   3.528   1.434  0.3458 -0.2380  0.7499
   49MOL   C20811824   2.487   3.457   1.318  0.4012 -0.4992  0.8516
   49MOL   C20911825   2.396   3.339   1.347  0.3085 -0.4654  0.0394
   49MOL   H21011826   2.708   3.599   1.297  1.7951  0.7731  0.6119
   49MOL   H21111827   2.574   3.705   1.325 -1.2339 -0.2105  1.6953
   49MOL   H21211828   2.626   3.455   1.479  0.5215 -0.2685  0.4395
   49MOL   H21311829   2.558   3.415   1.246 -0.5292 -0.9832  0.2096
   49MOL   H21411830   2.425   3.518   1.252 -1.5758 -3.8450 -0.5211
   49MOL   H21511831   2.440   3.271   1.420 -4.1068  0.3082  3.6614
   49MOL   H21611832   2.295   3.362   1.382  0.5100  0.1628  0.2118
   49MOL   H21711833   2.376   3.282   1.256 -0.1778 -1.2751  0.6429
   49MOL   C21811834   2.452   3.574   1.537  0.6712 -0.6444 -0.5011
   49MOL   C21911835   2.488   3.559   1.687  0.0747 -0.4334  0.4108
   49MOL   C22011836   2.489   3.415   1.738  0.5543  0.1524  0.3076
   49MOL   C22111837   2.619   3.354   1.766  0.0419 -0.2512 -0.2601
   49MOL   H22211838   2.356   3.525   1.521 -0.0315  0.8851 -1.1236
   49MOL   H22311839   2.434   3.678   1.509 -1.1700 -0.9822 -0.6501
   49MOL   H22411840   2.589   3.596   1.702 -0.3654  1.3399 -0.8308
   49MOL   H22511841   2.436   3.347   1.671 -1.2272  0.3903  1.4246
   49MOL   H22611842   2.426   3.399   1.826 -2.5178  2.7610 -1.2881
   49MOL   H22711843   2.645   3.381   1.868 -0.7802  0.5564 -0.2533
   49MOL   H22811844   2.615   3.247   1.749  1.2203 -0.3818  0.3000
   49MOL   H22911845   2.703   3.390   1.706 -0.8050  1.7581 -0.2874
   49MOL   C23011846   2.378   3.623   1.782  0.7733  0.2593  0.7044
   49MOL   C23111847   2.374   3.781   1.767  0.0939 -0.3307  0.7152
   49MOL   C23211848   2.268   3.843   1.865 -0.2759 -0.7758  0.2251
   49MOL   C23311849   2.283   4.000   1.862  0.3787  0.3828 -1.4280
   49MOL   H23411850   2.397   3.611   1.889 -1.4362 -0.2717  1.0718
   49MOL   H23511851   2.277   3.582   1.775  0.1170  1.6541  1.8243
   49MOL   H23611852   2.471   3.814   1.804 -0.0090 -2.4291  2.9464
   49MOL   H23711853   2.281   3.815   1.969 -2.3549 -0.2436  0.6595
   49MOL   H23811854   2.163   3.816   1.852 -0.5079 -0.3975  1.2486
   49MOL   H23911855   2.389   4.026   1.855  0.6865 -0.0060  1.4649
   49MOL   H24011856   2.228   4.045   1.779 -0.3738  0.0570 -1.1091
   49MOL   H24111857   2.251   4.050   1.953  2.4689 -1.0071  0.0966
   49MOL   H24211858   2.355   3.824   1.668  0.4297  1.7848  1.5435
   50MOL     C111859   3.934   1.761   4.440 -0.1084  0.4442 -0.5224
   50MOL     C211860   4.080   1.728   4.446 -0.1202 -0.0872  0.2038
   50MOL     C311861   4.175   1.816   4.357 -0.4297  0.4887 -0.0200
   50MOL     C411862   4.133   1.829   4.207 -0.2090  0.2088 -0.2649
   50MOL     H511863   3.908   1.726   4.340  0.6407 -0.7914 -0.2874
   50MOL     H611864   3.868   1.709   4.509  1.4862  0.9920  1.4782
   50MOL     H711865   4.110   1.748   4.549 -1.7861 -0.2046  0.7369
   50MOL     H811866   4.275   1.775   4.367 -1.7705 -3.2548 -1.2816
   50MOL     H911867   4.179   1.914   4.406 -1.5853  0.2071  0.6661
   50MOL    H1011868   4.135   1.735   4.153 -0.1522 -0.7804  1.4417
   50MOL    H1111869   4.034   1.875   4.200  0.3269  1.5177  0.5174
   50MOL    H1211870   4.199   1.893   4.148 -0.2682  1.7386  1.3014
   50MOL    H1311871   3.905   1.866   4.445 -0.9079  0.2123 -0.3090
   50MOL    C1411872   4.095   1.581   4.407  0.4003 -0.0693  0.4278
   50MOL    C1511873   4.034   1.483   4.508 -0.0559 -0.0582 -0.4408
   50MOL    C1611874   4.111   1.489   4.647  0.8681  0.1021 -0.3805
   50MOL    C1711875   4.025   1.526   4.771  1.1462  0.2012  0.3124
   50MOL    H1811876   4.202   1.561   4.416  0.6675  1.9889  2.3150
   50MOL    H1911877   4.077   1.550   4.304  0.4781  2.2408 -0.3148
   50MOL    H2011878   3.928   1.506   4.516  0.1418  1.1067 -0.9876
   50MOL    H2111879   4.199   1.554   4.649 -1.5719  3.5544  1.1164
   50MOL    H2211880   4.147   1.388   4.666 -0.3244 -0.0174  1.4043
   50MOL    H2311881   3.946   1.459   4.804  0.9795  0.2449  0.0034
   50MOL    H2411882   4.088   1.552   4.856  2.3979  2.6442 -1.2774
   50MOL    H2511883   3.973   1.619   4.748  2.8342  0.9451 -0.6244
   50MOL    C2611884   4.035   1.336   4.449 -0.1659 -0.3807 -0.3175
   50MOL    C2711885   3.940   1.326   4.329 -0.2537  0.2968  0.3505
   50MOL    C2811886   3.810   1.249   4.358  0.2570 -0.2971  0.6263
   50MOL    C2911887   3.685   1.288   4.277 -0.0660 -0.6161 -0.1074
   50MOL    H3011888   4.003   1.266   4.527  0.1836  0.1743  0.3260
   50MOL    H3111889   4.136   1.309   4.420  0.3548  1.3812 -0.2055
   50MOL    H3211890   3.914   1.428   4.302 -1.0289  0.0596  0.1668
   50MOL    H3311891   3.771   1.279   4.455 -0.0270  2.6173 -0.3291
   50MOL    H3411892   3.831   1.143   4.363  0.7458 -0.2558 -0.3272
   50MOL    H3511893   3.666   1.395   4.270  1.7029 -0.3830 -1.5992
   50MOL    H3611894   3.686   1.248   4.176  2.1950  0.6623 -0.6276
   50MOL    H3711895   3.596   1.239   4.318  1.7737 -3.2025  0.8707
   50MOL    C3811896   4.017   1.273   4.202  0.5436 -0.0350 -0.8446
   50MOL    C3911897   3.966   1.308   4.062  0.0348  0.6415 -0.2548
   50MOL    C4011898   4.046   1.233   3.957  0.1745 -0.5379 -0.1683
   50MOL    C4111899   4.022   1.079   3.951 -0.2889 -0.2040  0.5766
   50MOL    H4211900   4.036   1.166   4.213  1.1955 -0.0905 -2.3237
   50MOL    H4311901   4.117   1.317   4.197  0.5478  0.1377  0.5257
   50MOL    H4411902   3.859   1.287   4.060 -0.1992  1.8874 -1.3602
   50MOL    H4511903   4.151   1.257   3.976  0.2617  0.9497 -2.3576
   50MOL    H4611904   4.022   1.257   3.853  0.1896  1.1827  0.1965
   50MOL    H4711905   3.917   1.050   3.958 -1.0015  2.0778 -0.3438
   50MOL    H4811906   4.060   1.045   3.854 -0.0061  2.8322 -0.4147
   50MOL    H4911907   4.077   1.028   4.029  0.2709  1.2373  1.1384
   50MOL    C5011908   3.970   1.455   4.025  0.7190  0.3643  0.3219
   50MOL    C5111909   3.877   1.490   3.907  0.7443 -0.1081 -0.0943
   50MOL    C5211910   3.936   1.592   3.811  0.1435  0.6288  0.3250
   50MOL    C5311911   3.994   1.718   3.865 -0.1028  0.5299 -0.6254
   50MOL    H5411912   4.072   1.483   3.997  0.2376  1.3734 -0.4595
   50MOL    H5511913   3.942   1.518   4.110  0.0370 -1.7390  1.6818
   50MOL    H5611914   3.868   1.401   3.845  0.7145 -1.3527  1.6414
   50MOL    H5711915   3.869   1.612   3.727  0.7068 -3.0383 -1.0896
   50MOL    H5811916   4.016   1.545   3.754  1.8177  1.5375  1.8611
   50MOL    H5911917   3.928   1.756   3.944 -1.2321 -0.4169 -1.0985
   50MOL    H6011918   4.089   1.695   3.913 -0.9647 -0.2463  0.7714
   50MOL    H6111919   4.009   1.799   3.793  0.3739 -1.2076 -2.5119
   50MOL    C6211920   3.740   1.533   3.967  0.3952 -0.4915 -0.1529
   50MOL    C6311921   3.609   1.534   3.877 -0.2375 -0.2854  0.7213
   50MOL    C6411922   3.484   1.587   3.948  0.6874  0.5078 -0.2714
   50MOL    C6511923   3.502   1.728   4.006 -0.1987  0.2625 -0.0865
   50MOL    H6611924   3.755   1.632   4.009  0.9254 -1.4402  1.9421
   50MOL    H6711925   3.713   1.474   4.055  0.1286  0.5925  0.5085
   50MOL    H6811926   3.634   1.610   3.803 -0.6131 -0.4151  0.4581
   50MOL    H6911927   3.462   1.529   4.038 -0.9947 -0.2277 -1.1573
   50MOL    H7011928   3.402   1.591   3.877 -0.9160 -0.6953  1.4569
   50MOL    H7111929   3.571   1.736   4.090 -1.7237  1.4798  1.0641
   50MOL    H7211930   3.546   1.799   3.936  2.2898  1.7418  2.8385
   50MOL    H7311931   3.403   1.751   4.044 -0.0607 -0.4070  0.6948
   50MOL    C7411932   3.586   1.386   3.815  0.3891 -0.2614  0.1792
   50MOL    C7511933   3.462   1.362   3.719 -0.3033  0.3792 -0.5456
   50MOL    C7611934   3.424   1.209   3.693  0.1949  0.1882 -0.2818
   50MOL    C7711935   3.394   1.128   3.816  0.1083  0.0377 -0.4245
   50MOL    H7811936   3.570   1.320   3.901  0.3369 -2.0495 -1.1689
   50MOL    H7911937   3.674   1.351   3.762  0.4606 -1.5233  1.0960
   50MOL    H8011938   3.379   1.413   3.768 -0.2437 -1.4145  1.4990
   50MOL    H8111939   3.502   1.154   3.640 -1.0525 -2.0384  0.1711
   50MOL    H8211940   3.342   1.205   3.621  1.0562  3.1868 -1.5294
   50MOL    H8311941   3.489   1.102   3.863 -0.2568  0.3029  0.4694
   50MOL    H8411942   3.332   1.193   3.877  0.5646 -0.2833  0.3821
   50MOL    H8511943   3.333   1.038   3.801  1.7029 -0.7513 -2.4306
   50MOL    C8611944   3.489   1.434   3.582 -0.6525  0.1575 -0.5909
   50MOL    C8711945   3.364   1.433   3.483 -0.0168  0.2079  0.6108
   50MOL    C8811946   3.407   1.466   3.341 -0.2331 -0.0290  0.7759
   50MOL    C8911947   3.315   1.428   3.224 -0.2378 -0.6539 -0.1311
   50MOL    H9011948   3.577   1.379   3.547 -0.5922 -0.9906  1.2509
   50MOL    H9111949   3.512   1.540   3.591 -0.6644  0.1846 -0.8830
   50MOL    H9211950   3.317   1.338   3.459  1.0898 -0.4683  1.1072
   50MOL    H9311951   3.505   1.423   3.322  0.0318  0.3324  1.3057
   50MOL    H9411952   3.421   1.574   3.335  0.2965 -0.2425 -3.9285
   50MOL    H9511953   3.333   1.492   3.138 -2.9320  1.1291  0.5453
   50MOL    H9611954   3.332   1.325   3.195  1.3218 -0.5864  0.5095
   50MOL    H9711955   3.210   1.429   3.252 -0.3549  0.0523 -0.5821
   50MOL    C9811956   3.258   1.542   3.531  0.0804 -0.6553 -0.0268
   50MOL    C9911957   3.113   1.519   3.513 -0.0539 -0.2351 -0.4839
   50MOL   C10011958   3.036   1.637   3.570 -0.0538  0.2863 -0.3879
   50MOL   C10111959   3.049   1.672   3.721  0.1707 -0.1468 -1.0147
   50MOL   H10211960   3.266   1.634   3.473  0.1583 -2.0725 -2.3512
   50MOL   H10311961   3.282   1.585   3.628 -0.1393  1.6678 -0.9722
   50MOL   H10411962   3.087   1.517   3.407 -0.0007  0.5333 -0.5126
   50MOL   H10511963   2.931   1.620   3.547 -0.5239 -0.8747  2.3715
   50MOL   H10611964   3.064   1.717   3.502 -1.7379  0.0125 -1.4271
   50MOL   H10711965   3.153   1.696   3.744  0.3371 -0.3095 -1.5924
   50MOL   H10811966   3.009   1.773   3.731  0.5635 -0.1592  0.9633
   50MOL   H10911967   2.995   1.613   3.795  0.8692  0.1083 -0.2932
   50MOL   C11011968   3.075   1.381   3.579 -0.0221  0.1960  0.4488
   50MOL   C11111969   2.928   1.328   3.573 -0.4801 -0.2204  0.2986
   50MOL   C11211970   2.900   1.223   3.678 -0.4037  0.6362 -0.1096
   50MOL   C11311971   2.943   1.080   3.665  0.9137 -0.5310  0.4350
   50MOL   H11411972   3.100   1.395   3.684  1.5085 -0.8205  0.2317
   50MOL   H11511973   3.137   1.294   3.557 -0.7127 -0.5548  1.4031
   50MOL   H11611974   2.864   1.412   3.602 -3.4417 -1.7359 -1.6310
   50MOL   H11711975   2.794   1.218   3.702 -0.0481 -4.5069  1.0721
   50MOL   H11811976   2.942   1.255   3.773 -0.5652  0.4554  0.0217
   50MOL   H11911977   3.036   1.057   3.613  0.9374  0.9397 -0.1859
   50MOL   H12011978   2.928   1.019   3.755  0.0885  1.4878  1.6918
   50MOL   H12111979   2.880   1.043   3.584 -1.2412  2.2534  0.7612
   50MOL   C12211980   2.896   1.294   3.424 -0.1888 -0.2126  0.5368
   50MOL   C12311981   2.745   1.275   3.404 -0.4806 -0.6311  0.5412
   50MOL   C12411982   2.719   1.200   3.268  0.2354  0.2495  0.8429
   50MOL   C12511983   2.762   1.274   3.141 -0.7431 -0.1205 -0.2911
   50MOL   H12611984   2.960   1.209   3.398  0.9783  0.7715  0.1061
   50MOL   H12711985   2.947   1.367   3.361  0.0998 -1.0564 -0.2216
   50MOL   H12811986   2.718   1.209   3.487  1.9438 -0.8369  1.1875
   50MOL   H12911987   2.614   1.172   3.266  0.7472 -1.8112  1.8502
   50MOL   H13011988   2.786   1.114   3.276  3.3777  2.5024 -0.0158
   50MOL   H13111989   2.678   1.330   3.101 -0.8474 -0.1572 -0.1233
   50MOL   H13211990   2.843   1.346   3.159 -1.3895  0.4383  0.4277
   50MOL   H13311991   2.790   1.205   3.062 -2.0195  2.3061 -2.9731
   50MOL   C13411992   2.657   1.401   3.411 -0.4416 -0.3998  0.2549
   50MOL   C13511993   2.502   1.384   3.403 -0.7324  0.1537  0.6103
   50MOL   C13611994   2.446   1.532   3.413  0.4041 -0.2715 -0.1808
   50MOL   C13711995   2.454   1.619   3.284 -0.3767  0.1736 -0.2704
   50MOL   H13811996   2.692   1.475   3.339  0.7276 -0.8176  0.3911
   50MOL   H13911997   2.674   1.454   3.505  0.8999  0.9598 -0.7196
   50MOL   H14011998   2.487   1.343   3.303  0.0728  0.5219  0.3311
   50MOL   H14111999   2.495   1.579   3.498  1.1168  2.7955 -2.1947
   50MOL   H14212000   2.343   1.539   3.448 -0.5388 -2.2624 -2.4661
   50MOL   H14312001   2.436   1.725   3.305 -1.3401 -0.0466  0.0213
   50MOL   H14412002   2.555   1.613   3.242 -0.7751 -0.8726 -1.0885
   50MOL   H14512003   2.378   1.576   3.219 -1.0009 -0.5845  0.9550
   50MOL   C14612004   2.450   1.295   3.520  0.0348  0.6563 -0.0766
   50MOL   C14712005   2.297   1.272   3.516 -0.0385 -0.7247 -0.1144
   50MOL   C14812006   2.251   1.277   3.662  0.3340  0.3732 -0.2092
   50MOL   C14912007   2.227   1.422   3.706 -0.4208 -0.1309 -0.3621
   50MOL   H15012008   2.485   1.346   3.610 -2.3314  1.5613  0.3569
   50MOL   H15112009   2.494   1.199   3.545  1.0027  0.8841 -0.8808
   50MOL   H15212010   2.242   1.337   3.448  1.4130 -1.0274 -1.6080
   50MOL   H15312011   2.317   1.229   3.734 -1.6330  2.3636  3.0563
   50MOL   H15412012   2.151   1.233   3.670  0.3011  0.7060  1.2853
   50MOL   H15512013   2.191   1.489   3.628  1.5280 -0.1652 -1.3197
   50MOL   H15612014   2.149   1.417   3.782  0.2987 -1.4016  0.3182
   50MOL   H15712015   2.317   1.465   3.750  0.8656  0.3649 -3.3470
   50MOL   C15812016   2.262   1.135   3.459 -0.1780 -0.7000  0.4028
   50MOL   C15912017   2.315   1.097   3.319  0.6581  0.0870 -0.1899
   50MOL   C16012018   2.256   1.185   3.199  0.9414  0.2724  0.2286
   50MOL   C16112019   2.101   1.180   3.185  0.0866 -0.3028  0.4363
   50MOL   H16212020   2.153   1.127   3.462 -0.4840  1.4270 -2.3141
   50MOL   H16312021   2.283   1.056   3.531 -1.2761 -2.8860 -1.5723
   50MOL   H16412022   2.423   1.111   3.317  0.6204  0.6636  1.0247
   50MOL   H16512023   2.303   1.166   3.103  0.9980 -2.6214  0.7825
   50MOL   H16612024   2.284   1.289   3.211  0.6406  0.5119 -1.0392
   50MOL   H16712025   2.059   1.080   3.173  0.2475 -0.2905 -0.2050
   50MOL   H16812026   2.056   1.228   3.272  0.9679  1.5126 -0.0824
   50MOL   H16912027   2.076   1.234   3.094 -0.1159 -0.1275  0.5937
   50MOL   C17012028   2.284   0.947   3.300 -0.9818  0.4390 -0.3057
   50MOL   C17112029   2.334   0.886   3.168 -0.5299  0.0545 -0.3099
   50MOL   C17212030   2.270   0.753   3.123 -0.2928 -0.6133  0.6894
   50MOL   C17312031   2.116   0.761   3.119 -0.4999  0.5550 -0.6975
   50MOL   H17412032   2.175   0.942   3.302 -1.0503  1.3147 -1.5048
   50MOL   H17512033   2.333   0.895   3.383  0.0158  0.5551 -0.8183
   50MOL   H17612034   2.298   0.958   3.094 -3.0102  0.0500  0.8787
   50MOL   H17712035   2.292   0.662   3.180  0.2398 -1.6991 -1.2033
   50MOL   H17812036   2.294   0.724   3.021 -2.2332  0.0873  0.0238
   50MOL   H17912037   2.088   0.860   3.082  1.1282  0.5578 -1.9741
   50MOL   H18012038   2.072   0.688   3.052 -1.5321  1.0423 -0.5659
   50MOL   H18112039   2.073   0.748   3.218  0.5214  2.5288  0.0248
   50MOL   C18212040   2.490   0.869   3.173 -0.4821 -0.2908  0.5494
   50MOL   C18312041   2.539   0.863   3.028 -0.3641 -0.2876  0.7015
   50MOL   C18412042   2.650   0.761   3.026  0.0058 -0.4215 -0.0312
   50MOL   C18512043   2.622   0.611   3.023 -0.5961  0.2604 -0.2601
   50MOL   H18612044   2.502   0.772   3.222 -1.2945  0.4050  2.1511
   50MOL   H18712045   2.547   0.939   3.233  0.6618 -0.7505  0.0247
   50MOL   H18812046   2.470   0.818   2.956  0.3684  0.2257 -0.3282
   50MOL   H18912047   2.728   0.771   3.102  0.2299 -1.4099 -0.1323
   50MOL   H19012048   2.706   0.777   2.933 -1.1200  2.1747 -0.3152
   50MOL   H19112049   2.716   0.560   3.000 -1.7910 -1.8968 -0.4923
   50MOL   H19212050   2.582   0.583   3.120  3.1860 -1.6280  0.8811
   50MOL   H19312051   2.557   0.581   2.941  0.1449  2.7633 -1.8071
   50MOL   C19412052   2.601   0.998   2.978  0.0595 -0.6946 -0.0284
   50MOL   C19512053   2.511   1.044   2.854  0.6330  0.7288  0.4459
   50MOL   C19612054   2.540   0.955   2.729  0.3504 -0.0134  0.1002
   50MOL   C19712055   2.656   1.011   2.647  0.0476  0.3944 -0.8168
   50MOL   H19812056   2.708   0.989   2.958  0.6178  0.5440  2.2361
   50MOL   H19912057   2.601   1.069   3.060  0.1546 -1.3998  0.5873
   50MOL   H20012058   2.409   1.028   2.886  0.3441  1.4933 -0.0468
   50MOL   H20112059   2.458   0.930   2.661 -0.3349 -0.1109  0.9475
   50MOL   H20212060   2.569   0.855   2.762  2.1108 -0.4466 -2.6240
   50MOL   H20312061   2.699   0.930   2.588  1.9756  0.1231  0.8863
   50MOL   H20412062   2.621   1.088   2.579 -2.2251 -0.1564 -0.3229
   50MOL   H20512063   2.730   1.054   2.714  0.5166  0.3396 -1.3031
   50MOL   C20612064   2.519   1.198   2.824 -0.0093 -0.2644 -0.5780
   50MOL   C20712065   2.412   1.257   2.726 -0.2017  0.3661  0.6697
   50MOL   C20812066   2.438   1.408   2.700  0.2878  0.2497  0.3320
   50MOL   C20912067   2.419   1.501   2.818  0.4812  0.8205 -0.2056
   50MOL   H21012068   2.619   1.220   2.788  0.2919  0.1137  0.4582
   50MOL   H21112069   2.502   1.238   2.924 -1.6653 -1.9908 -0.1370
   50MOL   H21212070   2.434   1.218   2.626 -0.4926  0.9762  0.3630
   50MOL   H21312071   2.374   1.440   2.618 -0.4052 -1.1646  0.3048
   50MOL   H21412072   2.538   1.430   2.662 -0.5358  1.8172 -1.0402
   50MOL   H21512073   2.483   1.474   2.902 -1.6297 -1.4119  0.7133
   50MOL   H21612074   2.451   1.604   2.801 -1.4457  1.2744 -1.1853
   50MOL   H21712075   2.313   1.499   2.841  0.1339  0.7605 -1.7227
   50MOL   C21812076   2.264   1.226   2.771 -0.1758 -0.5394 -0.2854
   50MOL   C21912077   2.143   1.275   2.695  0.3010 -0.9426 -0.3515
   50MOL   C22012078   2.016   1.261   2.782  0.0965 -0.3640  0.5282
   50MOL   C22112079   1.972   1.122   2.832  0.7018 -0.0563 -0.3911
   50MOL   H22212080   2.264   1.261   2.874  0.9728  0.3542 -0.5790
   50MOL   H22312081   2.245   1.118   2.772 -0.2334 -0.5207  1.1342
   50MOL   H22412082   2.154   1.383   2.685 -0.3934 -0.7333  0.9796
   50MOL   H22512083   1.929   1.309   2.738  0.6340 -1.3046 -1.6728
   50MOL   H22612084   2.030   1.317   2.875  0.6578 -1.6407  1.2246
   50MOL   H22712085   1.872   1.144   2.869  0.3252  1.0443 -2.0350
   50MOL   H22812086   1.974   1.048   2.753  0.3247 -3.0930  2.3546
   50MOL   H22912087   2.040   1.085   2.909 -0.0846 -0.8859 -0.0959
   50MOL   C23012088   2.122   1.212   2.550  0.5997 -0.7085  0.0838
   50MOL   C23112089   1.978   1.235   2.489  0.2482 -0.3526 -0.0622
   50MOL   C23212090   1.969   1.235   2.340  0.4016  0.1102 -0.5151
   50MOL   C23312091   1.951   1.097   2.284  0.0459  0.6302  0.1541
   50MOL   H23412092   2.134   1.104   2.558  2.6681 -0.5520 -0.8136
   50MOL   H23512093   2.201   1.243   2.482 -0.3667 -1.2738 -1.3152
   50MOL   H23612094   1.904   1.169   2.535 -1.2986  1.9004  0.7642
   50MOL   H23712095   2.056   1.278   2.290  0.3507  1.0881  0.2202
   50MOL   H23812096   1.883   1.294   2.310  2.3571  2.8361 -0.9780
   50MOL   H23912097   2.032   1.025   2.292  0.4828  0.9893 -0.9607
   50MOL   H24012098   1.869   1.055   2.343  0.0023 -2.7105 -2.1621
   50MOL   H24112099   1.931   1.104   2.178 -0.1829 -2.3142 -0.0272
   50MOL   H24212100   1.941   1.333   2.518  0.2894 -0.4767  0.4078
   51MOL     C112101   1.746   1.423   4.872 -0.3195 -0.0470 -0.4889
   51MOL     C212102   1.618   1.355   4.919 -0.5319 -0.0835 -0.0973
   51MOL     C312103   1.624   1.263   5.046 -0.4264  0.0979  0.1417
   51MOL     C412104   1.492   1.233   5.117 -0.0066 -0.7700  0.1798
   51MOL     H512105   1.825   1.350   4.853  0.7812  1.2516 -0.9589
   51MOL     H612106   1.746   1.477   4.777 -0.1559 -1.2913 -1.2078
   51MOL     H712107   1.550   1.432   4.955  0.2340  0.2593  0.6414
   51MOL     H812108   1.683   1.316   5.121 -0.6006  1.2014 -0.4779
   51MOL     H912109   1.676   1.171   5.020 -2.7556 -0.7670 -1.6982
   51MOL    H1012110   1.460   1.319   5.176 -0.5442  1.3051 -2.9972
   51MOL    H1112111   1.413   1.199   5.049  0.5297 -0.5283 -0.5765
   51MOL    H1212112   1.521   1.159   5.191  0.4537 -1.7268 -0.9422
   51MOL    H1312113   1.782   1.483   4.955  0.7925 -1.1798 -0.1451
   51MOL    C1412114   1.553   1.281   4.806  0.9287  0.5882  0.8115
   51MOL    C1512115   1.489   1.374   4.696 -0.1606  0.6630  0.7694
   51MOL    C1612116   1.353   1.424   4.751 -0.6533  0.0630 -0.0483
   51MOL    C1712117   1.323   1.560   4.676  0.5003 -0.0359 -0.3383
   51MOL    H1812118   1.473   1.218   4.843 -0.4590  1.6444 -0.3248
   51MOL    H1912119   1.627   1.215   4.761 -0.1538 -0.8144  1.0789
   51MOL    H2012120   1.555   1.460   4.683 -1.7878  1.6506 -1.4276
   51MOL    H2112121   1.355   1.441   4.858 -0.9325 -0.7786  0.0988
   51MOL    H2212122   1.281   1.345   4.729  0.3681 -0.4601 -1.6567
   51MOL    H2312123   1.319   1.566   4.568 -1.1925  1.5931 -0.2000
   51MOL    H2412124   1.238   1.613   4.719 -0.8134 -1.7757 -0.7325
   51MOL    H2512125   1.404   1.629   4.700  0.5826  0.5207 -2.2084
   51MOL    C2612126   1.483   1.305   4.556 -0.2060 -0.4736  1.5357
   51MOL    C2712127   1.627   1.292   4.488  0.2297 -0.2298  0.3821
   51MOL    C2812128   1.702   1.427   4.475 -0.3945  0.9222  0.2415
   51MOL    C2912129   1.625   1.553   4.415 -1.1499  0.0312  0.1724
   51MOL    H3012130   1.419   1.359   4.486  0.1065 -0.0466  1.5762
   51MOL    H3112131   1.437   1.207   4.565 -0.4876 -0.5050 -0.0685
   51MOL    H3212132   1.697   1.241   4.554 -0.7723 -1.1638  0.7506
   51MOL    H3312133   1.793   1.415   4.416 -0.8965 -1.3497 -0.1301
   51MOL    H3412134   1.743   1.443   4.574 -1.4667  1.4190  0.6140
   51MOL    H3512135   1.588   1.534   4.315  0.8046  1.5038 -0.8686
   51MOL    H3612136   1.552   1.605   4.477 -1.1027 -0.0252  0.2754
   51MOL    H3712137   1.698   1.634   4.405  1.4031 -2.3427 -1.2205
   51MOL    C3812138   1.615   1.233   4.341  0.2171  0.1530 -0.1072
   51MOL    C3912139   1.591   1.081   4.316  0.1685  0.0867 -0.4180
   51MOL    C4012140   1.444   1.047   4.333 -0.1788  0.0438  0.4749
   51MOL    C4112141   1.363   1.016   4.207  0.0478 -0.0238 -0.6705
   51MOL    H4212142   1.710   1.249   4.290 -0.5564  2.5120 -0.8410
   51MOL    H4312143   1.541   1.291   4.287 -0.7639 -0.5309  0.4745
   51MOL    H4412144   1.620   1.055   4.215  0.8973  1.3836 -0.5595
   51MOL    H4512145   1.386   1.131   4.373 -0.6443 -0.2436  0.4044
   51MOL    H4612146   1.440   0.964   4.403  1.8014 -0.8306 -0.4275
   51MOL    H4712147   1.351   1.108   4.150 -0.7164 -0.9636 -2.0631
   51MOL    H4812148   1.392   0.928   4.149  1.6839 -1.0822  1.6696
   51MOL    H4912149   1.261   0.989   4.236 -0.0804  1.0050 -0.1493
   51MOL    C5012150   1.677   0.993   4.407 -0.6099 -0.0769 -0.0067
   51MOL    C5112151   1.700   0.850   4.367  0.1711 -0.2501 -0.6597
   51MOL    C5212152   1.722   0.772   4.500 -0.0406  0.0941  0.3244
   51MOL    C5312153   1.832   0.823   4.594 -0.4483 -0.3330 -0.0959
   51MOL    H5412154   1.631   0.998   4.506 -1.1164 -0.3904 -0.2282
   51MOL    H5512155   1.772   1.043   4.429 -1.1222  0.3458  1.3039
   51MOL    H5612156   1.608   0.821   4.316 -1.3186 -0.9202  2.2925
   51MOL    H5712157   1.757   0.673   4.470  2.2803  0.2844  2.1957
   51MOL    H5812158   1.633   0.764   4.563 -1.6847 -2.6351 -2.2047
   51MOL    H5912159   1.930   0.796   4.554 -0.9609 -1.5342 -0.5470
   51MOL    H6012160   1.839   0.932   4.600  0.6944 -0.3473 -0.9565
   51MOL    H6112161   1.818   0.790   4.697  0.9179 -1.0846 -0.1373
   51MOL    C6212162   1.818   0.831   4.262 -0.0488 -0.5169 -0.1906
   51MOL    C6312163   1.819   0.685   4.195  0.0282 -0.8961  0.1239
   51MOL    C6412164   1.953   0.613   4.213  0.5543 -0.3860 -0.5147
   51MOL    C6512165   1.947   0.460   4.199 -0.1419 -0.4316 -0.1397
   51MOL    H6612166   1.917   0.845   4.305  0.5140  1.4386 -2.0494
   51MOL    H6712167   1.819   0.915   4.193 -0.6091 -0.2217  0.1586
   51MOL    H6812168   1.747   0.619   4.244  0.5554 -2.1919 -0.8391
   51MOL    H6912169   1.991   0.633   4.314 -0.3301 -1.7791  0.1147
   51MOL    H7012170   2.022   0.659   4.143 -0.9913 -0.9382 -2.4190
   51MOL    H7112171   1.907   0.446   4.099 -1.0479  0.8459  0.0269
   51MOL    H7212172   2.049   0.421   4.193  0.1249  0.1039  0.8084
   51MOL    H7312173   1.888   0.410   4.277 -2.9835  1.1743 -1.1872
   51MOL    C7412174   1.772   0.690   4.049 -0.4982  0.4783 -0.2248
   51MOL    C7512175   1.620   0.703   4.020  0.1458  0.3420  0.6176
   51MOL    C7612176   1.529   0.609   4.102 -0.3256 -0.1965 -0.9809
   51MOL    C7712177   1.560   0.462   4.078 -0.3870  0.2962 -0.2236
   51MOL    H7812178   1.811   0.602   3.996  0.9036  0.0467  1.4846
   51MOL    H7912179   1.827   0.772   4.002  0.1292 -0.0940 -0.5086
   51MOL    H8012180   1.600   0.806   4.049  0.1410  0.8610 -1.1397
   51MOL    H8112181   1.425   0.617   4.072 -0.7112 -0.5352  0.2140
   51MOL    H8212182   1.539   0.646   4.204  1.8053 -2.9932 -0.0999
   51MOL    H8312183   1.488   0.400   4.132  0.6960  1.2502  2.4083
   51MOL    H8412184   1.577   0.439   3.972  0.9409 -1.2569  0.2915
   51MOL    H8512185   1.653   0.428   4.125 -0.3540  2.5249  1.3788
   51MOL    C8612186   1.585   0.685   3.864 -0.0031  0.0060 -0.6517
   51MOL    C8712187   1.610   0.810   3.768  0.1833  0.3705 -0.0172
   51MOL    C8812188   1.505   0.919   3.790 -0.0597 -0.2213  0.5632
   51MOL    C8912189   1.364   0.867   3.818  0.2854  0.4457 -0.0696
   51MOL    H9012190   1.489   0.638   3.842  0.1732 -0.2202 -0.9453
   51MOL    H9112191   1.640   0.596   3.832  0.1937  0.2936 -1.1144
   51MOL    H9212192   1.710   0.839   3.802  1.2475 -0.9414 -1.9013
   51MOL    H9312193   1.515   0.984   3.703 -2.1461 -3.9391 -2.6221
   51MOL    H9412194   1.546   0.983   3.868  0.1841  0.4344 -0.0971
   51MOL    H9512195   1.295   0.950   3.809  0.9472  0.8709 -1.3806
   51MOL    H9612196   1.335   0.794   3.741  0.9130  1.4843 -1.3065
   51MOL    H9712197   1.342   0.834   3.919 -1.6752  1.9103 -0.0119
   51MOL    C9812198   1.612   0.767   3.622  0.0514  0.2189 -0.3612
   51MOL    C9912199   1.691   0.858   3.524  0.3548  0.8872 -0.6376
   51MOL   C10012200   1.602   0.893   3.405  0.1069  0.7875  0.8738
   51MOL   C10112201   1.652   1.005   3.319 -0.0384  0.3984  0.0929
   51MOL   H10212202   1.510   0.748   3.587 -0.1374 -3.0498  1.7177
   51MOL   H10312203   1.664   0.671   3.614 -0.6925 -0.1312 -1.0482
   51MOL   H10412204   1.709   0.953   3.574  2.0746 -0.2790  1.0290
   51MOL   H10512205   1.508   0.937   3.439 -0.4941 -0.0990  0.3687
   51MOL   H10612206   1.590   0.806   3.341  1.3354 -0.7583  2.6471
   51MOL   H10712207   1.740   0.963   3.269 -0.6231 -0.9421  0.1727
   51MOL   H10812208   1.589   1.040   3.237  1.1905 -3.4199 -2.6166
   51MOL   H10912209   1.674   1.091   3.383  0.6335 -0.1842  0.6532
   51MOL   C11012210   1.820   0.781   3.478 -0.8149 -0.3155  0.1196
   51MOL   C11112211   1.925   0.754   3.594  0.2993 -0.0665  0.0698
   51MOL   C11212212   2.007   0.885   3.619 -0.2406  0.5990  0.1668
   51MOL   C11312213   2.072   0.887   3.761 -0.3100 -0.3322 -0.0829
   51MOL   H11412214   1.881   0.841   3.411 -2.9935  0.0628 -1.5750
   51MOL   H11512215   1.800   0.690   3.422  0.9355  1.0846 -2.9581
   51MOL   H11612216   1.880   0.728   3.690  1.8585  0.3145  0.9225
   51MOL   H11712217   1.948   0.977   3.611 -1.5830 -0.2585  0.0432
   51MOL   H11812218   2.086   0.887   3.544  1.0616  1.8226  1.5275
   51MOL   H11912219   2.141   0.807   3.786 -0.3195  0.1188  1.4059
   51MOL   H12012220   2.130   0.979   3.767  0.8086 -1.0875  0.9147
   51MOL   H12112221   1.993   0.883   3.835 -0.0467 -0.7275  0.1753
   51MOL   C12212222   2.018   0.636   3.548  0.4877  0.5537 -0.6110
   51MOL   C12312223   1.963   0.487   3.556 -0.6062  0.3550 -0.2380
   51MOL   C12412224   1.933   0.451   3.706  0.5036 -0.1210 -0.1481
   51MOL   C12512225   1.820   0.357   3.731  0.1166 -0.1397 -0.1588
   51MOL   H12612226   2.106   0.639   3.611  0.9951  1.2890 -1.3480
   51MOL   H12712227   2.064   0.650   3.450 -2.2842  0.1168 -2.0649
   51MOL   H12812228   1.866   0.486   3.506 -0.0522 -1.0218 -1.3400
   51MOL   H12912229   1.907   0.539   3.765 -0.2872  0.2578 -1.0422
   51MOL   H13012230   2.020   0.406   3.754 -0.1747  0.6151  1.8377
   51MOL   H13112231   1.720   0.395   3.707 -0.0041 -1.3440 -1.6507
   51MOL   H13212232   1.835   0.263   3.678 -1.2309 -0.0658 -0.6994
   51MOL   H13312233   1.820   0.316   3.832 -0.2710 -1.2320 -0.5896
   51MOL   C13412234   2.061   0.384   3.496  0.3286  0.1660  0.2852
   51MOL   C13512235   2.108   0.411   3.353  0.0172  0.5912 -0.2242
   51MOL   C13612236   1.981   0.438   3.267 -0.5148 -0.4047 -0.2725
   51MOL   C13712237   1.972   0.434   3.115 -0.5561  0.4397 -0.2487
   51MOL   H13812238   2.019   0.283   3.498 -1.6162  0.9327 -1.0149
   51MOL   H13912239   2.150   0.379   3.560  0.5919 -0.1511 -0.0991
   51MOL   H14012240   2.175   0.496   3.338  0.4018  0.4551  0.6798
   51MOL   H14112241   1.970   0.543   3.292  1.5247 -0.2979  0.3289
   51MOL   H14212242   1.898   0.377   3.304 -1.4120 -0.2198 -1.9769
   51MOL   H14312243   1.878   0.473   3.075 -2.6065 -2.7734  1.1297
   51MOL   H14412244   2.053   0.493   3.073 -1.6854  2.5929  0.4851
   51MOL   H14512245   1.990   0.330   3.088 -2.0407 -0.2933  1.4362
   51MOL   C14612246   2.190   0.289   3.295  0.0205 -0.2814 -0.5980
   51MOL   C14712247   2.331   0.256   3.355  0.0923  0.1848  0.0849
   51MOL   C14812248   2.442   0.310   3.266  0.0319  0.1125  0.2850
   51MOL   C14912249   2.575   0.317   3.340  0.1287 -0.1353  0.1485
   51MOL   H15012250   2.200   0.311   3.188 -2.9162  1.6200 -0.5289
   51MOL   H15112251   2.125   0.202   3.293 -1.3571  0.6066  2.5095
   51MOL   H15212252   2.339   0.287   3.460  1.3063  1.0855 -0.2636
   51MOL   H15312253   2.422   0.415   3.245 -2.0003  0.0341  1.7559
   51MOL   H15412254   2.453   0.252   3.175 -0.3548 -0.4370  0.5895
   51MOL   H15512255   2.624   0.223   3.367  2.5285  0.3532 -2.1858
   51MOL   H15612256   2.637   0.377   3.273 -1.8794  2.1902  0.3172
   51MOL   H15712257   2.572   0.371   3.434 -0.3994 -0.4288  0.2969
   51MOL   C15812258   2.344   0.101   3.357 -0.3301  0.0797 -0.0592
   51MOL   C15912259   2.288   0.041   3.490 -0.3059 -0.1912  0.4378
   51MOL   C16012260   2.392   0.044   3.602 -0.5160 -0.1090 -0.4353
   51MOL   C16112261   2.344   0.013   3.746 -0.2652 -0.4181  0.5464
   51MOL   H16212262   2.447   0.069   3.341 -0.9279 -1.5975 -0.6912
   51MOL   H16312263   2.287   0.052   3.277  0.8376 -0.6638 -0.4473
   51MOL   H16412264   2.197   0.100   3.505  0.5939  1.5282 -0.6796
   51MOL   H16512265   2.446   0.138   3.605  0.7260 -0.8455  1.8952
   51MOL   H16612266   2.464   7.675   3.570 -1.1607 -0.9308  0.0222
   51MOL   H16712267   2.417   0.033   3.824 -1.7504 -0.9385  2.0773
   51MOL   H16812268   2.252   0.064   3.771 -0.2141  0.7314 -1.4760
   51MOL   H16912269   2.316   7.614   3.752  0.2777 -0.5872  0.1338
   51MOL   C17012270   2.234   7.604   3.480 -0.2930  0.0106 -0.3760
   51MOL   C17112271   2.095   7.594   3.433  0.1695  0.3728 -0.7253
   51MOL   C17212272   1.998   7.631   3.547 -0.0380  0.0094 -0.0510
   51MOL   C17312273   2.001   7.539   3.668  0.1770 -0.0037  0.0453
   51MOL   H17412274   2.260   7.538   3.563  1.3480 -0.6513 -1.3834
   51MOL   H17512275   2.302   7.559   3.408 -1.9153 -1.7055 -0.8423
   51MOL   H17612276   2.070   7.668   3.358 -2.4676  1.1286  0.8372
   51MOL   H17712277   1.896   7.622   3.509 -0.4169 -0.4698  1.0557
   51MOL   H17812278   2.004   0.032   3.567 -1.9413  0.5730 -2.3458
   51MOL   H17912279   2.106   7.531   3.696  1.0625  1.4014 -2.6106
   51MOL   H18012280   1.937   7.561   3.753 -0.9824 -1.3334 -0.4715
   51MOL   H18112281   1.973   7.439   3.634 -0.2678  0.2855 -0.4468
   51MOL   C18212282   2.060   7.459   3.367 -0.2111 -0.3549 -0.1058
   51MOL   C18312283   2.105   7.453   3.214  0.3426 -0.9688 -0.2622
   51MOL   C18412284   1.986   7.439   3.119 -0.4851 -0.0603  0.3172
   51MOL   C18512285   1.899   7.562   3.118  0.1851 -0.3305 -0.3962
   51MOL   H18612286   1.953   7.439   3.373 -0.2199 -0.8032 -1.5877
   51MOL   H18712287   2.100   7.375   3.424  1.5172 -0.1149 -0.9299
   51MOL   H18812288   2.166   7.537   3.179  0.9255 -1.0107  0.6549
   51MOL   H18912289   1.924   7.353   3.146 -1.5024  0.5610  0.0082
   51MOL   H19012290   2.018   7.417   3.017 -0.2314 -0.6009  0.5113
   51MOL   H19112291   1.835   7.558   3.206  0.4689 -0.2369 -0.1834
   51MOL   H19212292   1.952   7.657   3.126  0.0431 -0.3102  0.3229
   51MOL   H19312293   1.828   7.567   3.036 -2.1638 -0.0634  1.6049
   51MOL   C19412294   2.180   7.322   3.193 -0.3534 -0.0867  0.1505
   51MOL   C19512295   2.318   7.303   3.255  0.3657 -0.1447  0.5651
   51MOL   C19612296   2.429   7.385   3.178 -0.7326 -1.1078 -0.1859
   51MOL   C19712297   2.564   7.402   3.249 -0.5384 -0.0837 -0.2003
   51MOL   H19812298   2.202   7.304   3.088 -0.6181 -0.1979  0.1136
   51MOL   H19912299   2.117   7.240   3.226 -0.5078  0.2775  0.7626
   51MOL   H20012300   2.317   7.355   3.351 -0.3750  1.2446 -0.1645
   51MOL   H20112301   2.394   7.487   3.162 -0.6377 -1.3693 -2.0607
   51MOL   H20212302   2.438   7.348   3.076 -1.6298 -2.0555  0.0714
   51MOL   H20312303   2.620   7.470   3.184 -1.6110  0.9473 -0.0520
   51MOL   H20412304   2.551   7.454   3.343 -0.9793 -0.4919 -0.0346
   51MOL   H20512305   2.615   7.306   3.258  0.0347  0.3206  0.8703
   51MOL   C20612306   2.360   7.151   3.272 -0.0024  0.4814 -0.6599
   51MOL   C20712307   2.288   7.074   3.391 -0.0475 -0.4867 -0.3744
   51MOL   C20812308   2.362   7.093   3.526 -0.0653 -0.2987 -0.5032
   51MOL   C20912309   2.356   7.229   3.593  0.0907  0.2569 -0.0096
   51MOL   H21012310   2.466   7.147   3.298  0.1873  1.5055 -1.2633
   51MOL   H21112311   2.348   7.097   3.178  2.3988  2.6631 -2.2953
   51MOL   H21212312   2.195   7.123   3.421  0.4825  0.3882 -0.1397
   51MOL   H21312313   2.466   7.062   3.528 -0.0838 -0.6690 -3.3431
   51MOL   H21412314   2.319   7.023   3.597  2.8993 -1.4658  0.1812
   51MOL   H21512315   2.419   7.300   3.538  0.5539  0.1975  0.4477
   51MOL   H21612316   2.253   7.264   3.597  0.3204  1.0471 -0.9155
   51MOL   H21712317   2.402   7.234   3.692 -0.5732  1.7745  0.2442
   51MOL   C21812318   2.271   6.926   3.359  0.1414 -0.1262  0.0229
   51MOL   C21912319   2.142   6.886   3.282 -0.5149 -0.6553 -0.2018
   51MOL   C22012320   2.015   6.904   3.365  0.5862  1.4319 -0.8995
   51MOL   C22112321   1.880   6.879   3.294  0.0108  0.4106 -0.0372
   51MOL   H22212322   2.272   6.867   3.450  1.2050  0.6575  0.5245
   51MOL   H22312323   2.363   6.903   3.306  0.4305  0.6687  0.1747
   51MOL   H22412324   2.122   6.947   3.194  0.0927  1.0321  0.8053
   51MOL   H22512325   2.027   7.002   3.411  0.2686 -0.1536  2.7214
   51MOL   H22612326   2.014   6.849   3.460 -2.8122  4.2913  0.8498
   51MOL   H22712327   1.858   6.773   3.283  0.4201  0.3849 -0.6586
   51MOL   H22812328   1.809   6.930   3.359 -0.3378  0.7109 -0.6583
   51MOL   H22912329   1.869   6.921   3.195  2.2555  2.3732  0.5024
   51MOL   C23012330   2.147   6.736   3.248 -0.1193 -0.1353  0.1908
   51MOL   C23112331   2.245   6.700   3.133 -0.6902 -0.8551  0.6655
   51MOL   C23212332   2.248   6.548   3.095  0.3237 -0.3896 -0.4040
   51MOL   C23312333   2.342   6.454   3.174  0.4844 -0.5281 -0.4515
   51MOL   H23412334   2.044   6.714   3.223 -0.1437  2.0292 -1.7175
   51MOL   H23512335   2.164   6.680   3.340  0.5291 -1.1359 -0.5232
   51MOL   H23612336   2.239   6.751   3.037 -2.6399 -1.0422  0.6659
   51MOL   H23712337   2.294   6.553   2.997  2.5944  2.0947  0.7032
   51MOL   H23812338   2.145   6.515   3.089  0.5036 -1.2978  1.2102
   51MOL   H23912339   2.445   6.488   3.166  0.4460 -0.5051 -0.8552
   51MOL   H24012340   2.304   6.464   3.275 -1.1705  0.6517 -1.1536
   51MOL   H24112341   2.334   6.353   3.134 -2.0536 -0.3571 -0.4717
   51MOL   H24212342   2.344   6.730   3.168 -1.3726  1.8000  0.3911
   52MOL     C112343   4.682   6.685   3.290  0.1132  0.0629 -0.1135
   52MOL     C212344   4.548   6.624   3.333  1.0487 -0.0831 -0.5341
   52MOL     C312345   4.504   6.702   3.463  0.1410  0.1633 -0.2166
   52MOL     C412346   4.357   6.679   3.507 -0.4943  0.5987 -0.2142
   52MOL     H512347   4.765   6.658   3.355 -0.0288 -2.6807 -1.0096
   52MOL     H612348   4.717   6.644   3.195 -1.2792  0.1256 -0.6515
   52MOL     H712349   4.467   6.628   3.260 -0.2845 -1.3297  0.8364
   52MOL     H812350   4.525   6.808   3.445 -0.6873  0.0861 -1.7554
   52MOL     H912351   4.559   6.665   3.549 -0.6815 -1.8342 -0.5294
   52MOL    H1012352   4.338   6.741   3.594 -1.4281  1.2620 -0.8807
   52MOL    H1112353   4.275   6.693   3.436  1.1014 -0.7571 -2.3909
   52MOL    H1212354   4.335   6.579   3.544 -1.9100  0.5871 -1.0204
   52MOL    H1312355   4.677   6.794   3.279  0.6429  0.1848  0.8091
   52MOL    C1412356   4.560   6.476   3.362 -0.5905 -0.4447  0.3872
   52MOL    C1512357   4.581   6.377   3.239  0.4080  0.0113  0.3986
   52MOL    C1612358   4.452   6.315   3.191 -0.2295 -0.3342 -0.1733
   52MOL    C1712359   4.473   6.234   3.059 -0.1000 -1.0382 -0.6966
   52MOL    H1812360   4.478   6.436   3.420 -0.9861  2.9961  2.3243
   52MOL    H1912361   4.645   6.472   3.430  0.2426  0.5948 -0.5626
   52MOL    H2012362   4.627   6.426   3.154  1.9457  0.1368  1.2865
   52MOL    H2112363   4.379   6.394   3.173  1.7901  1.4730 -0.6139
   52MOL    H2212364   4.409   6.257   3.273  0.3872  0.3120  0.6115
   52MOL    H2312365   4.376   6.218   3.013  0.8391 -0.8990 -2.7730
   52MOL    H2412366   4.533   6.281   2.981  1.0123 -1.6471 -0.2164
   52MOL    H2512367   4.515   6.137   3.084 -1.1229 -1.7924 -1.8329
   52MOL    C2612368   4.673   6.277   3.300 -0.1011 -0.0029 -0.3192
   52MOL    C2712369   4.819   6.319   3.307 -0.2935 -0.5947 -0.0684
   52MOL    C2812370   4.878   6.330   3.166 -0.1480  0.3621  0.3290
   52MOL    C2912371   5.022   6.385   3.165 -0.0356  0.4844  0.2849
   52MOL    H3012372   4.677   6.189   3.236 -1.0240  0.0146 -0.3983
   52MOL    H3112373   4.637   6.240   3.396  0.8755  0.8370  0.3823
   52MOL    H3212374   4.827   6.421   3.346 -0.1100 -0.3999 -0.6049
   52MOL    H3312375   4.815   6.395   3.104 -0.0050  0.0852 -0.1058
   52MOL    H3412376   4.873   6.234   3.115  2.7479 -0.1420  0.9110
   52MOL    H3512377   5.022   6.485   3.209 -1.8820  0.3748  0.5724
   52MOL    H3612378   5.095   6.319   3.210  0.4400  0.7287 -0.1258
   52MOL    H3712379   5.039   6.401   3.058 -1.9818 -2.8411 -0.6001
   52MOL    C3812380   4.888   6.219   3.389  0.4096  0.1387 -0.4989
   52MOL    C3912381   4.872   6.216   3.548 -0.0953 -0.2646  0.2840
   52MOL    C4012382   4.917   6.351   3.616  0.1088 -0.0761  0.4554
   52MOL    C4112383   5.059   6.393   3.570  0.6790 -0.0945  0.8623
   52MOL    H4212384   4.997   6.227   3.382  0.6110 -0.9251  1.1091
   52MOL    H4312385   4.863   6.122   3.348 -0.7157  0.1328  0.1877
   52MOL    H4412386   4.765   6.204   3.563 -0.0021  1.4792  2.4790
   52MOL    H4512387   4.928   6.342   3.724  0.8731 -0.8374  0.3118
   52MOL    H4612388   4.847   6.433   3.594 -0.8149 -1.3761 -1.6207
   52MOL    H4712389   5.133   6.316   3.593  0.6469 -0.0595  1.0846
   52MOL    H4812390   5.066   6.410   3.463 -0.4567 -1.0373  0.6270
   52MOL    H4912391   5.078   6.491   3.614 -0.3282 -0.4227  2.0654
   52MOL    C5012392   4.940   6.095   3.607  0.0473  0.0819 -0.4740
   52MOL    C5112393   4.879   6.037   3.743 -0.4220 -0.3628 -0.0901
   52MOL    C5212394   4.983   6.036   3.862  0.3038  0.0725  0.5012
   52MOL    C5312395   4.917   6.002   3.999  0.4802 -0.3373 -0.3638
   52MOL    H5412396   5.046   6.119   3.614 -0.0576  0.6078 -0.6966
   52MOL    H5512397   4.939   6.016   3.531  0.6517  1.4135 -1.8991
   52MOL    H5612398   4.805   6.114   3.764 -0.4743 -0.3429 -0.3477
   52MOL    H5712399   5.036   6.132   3.861  0.4853 -0.0332 -1.2724
   52MOL    H5812400   5.045   5.947   3.851  1.4116  1.0367 -1.2350
   52MOL    H5912401   4.845   6.078   4.030 -0.2105 -1.0925 -0.1103
   52MOL    H6012402   4.862   5.909   3.984 -2.4817  1.1105  1.1566
   52MOL    H6112403   4.996   6.002   4.074  1.2555  0.0219 -1.1676
   52MOL    C6212404   4.801   5.906   3.724 -0.1691 -0.4666  0.6313
   52MOL    C6312405   4.688   5.913   3.620 -0.7317 -0.5042  0.3901
   52MOL    C6412406   4.561   5.978   3.682  0.6956 -0.2518  0.4194
   52MOL    C6512407   4.447   5.976   3.583  0.0735  0.5932  0.4032
   52MOL    H6612408   4.750   5.884   3.818 -0.6308 -2.2849 -0.0166
   52MOL    H6712409   4.876   5.831   3.698  0.4156  0.4367 -0.2840
   52MOL    H6812410   4.723   5.975   3.537  1.3112 -2.4776 -0.2568
   52MOL    H6912411   4.587   6.077   3.719 -0.4650  0.1881  0.0724
   52MOL    H7012412   4.531   5.926   3.773  0.4793 -0.9608 -0.0524
   52MOL    H7112413   4.484   5.969   3.480  1.4844  1.9527  0.8110
   52MOL    H7212414   4.389   5.885   3.599 -0.4210  0.3794 -2.3223
   52MOL    H7312415   4.391   6.069   3.583 -2.4666 -0.8605  2.1312
   52MOL    C7412416   4.667   5.765   3.562  0.0382  0.8374 -0.0700
   52MOL    C7512417   4.752   5.756   3.434 -0.5385 -0.2491  0.3984
   52MOL    C7612418   4.691   5.814   3.305 -0.3896 -0.9986 -0.8474
   52MOL    C7712419   4.576   5.731   3.249  0.1053  0.6293 -0.5229
   52MOL    H7812420   4.561   5.744   3.545 -0.6669  2.3251  2.2889
   52MOL    H7912421   4.691   5.693   3.640  2.1224  0.2880 -1.1701
   52MOL    H8012422   4.838   5.818   3.459 -2.1519  1.5464  1.5392
   52MOL    H8112423   4.767   5.813   3.227  1.8590 -0.5571  1.3070
   52MOL    H8212424   4.655   5.917   3.310  0.4122 -0.6487 -1.9848
   52MOL    H8312425   4.498   5.712   3.323  1.2503 -0.4420  0.4317
   52MOL    H8412426   4.527   5.772   3.161  1.7063  1.8819 -0.8587
   52MOL    H8512427   4.604   5.627   3.231  0.5548  0.6212  0.1716
   52MOL    C8612428   4.794   5.615   3.416  0.3902  0.7800  0.1976
   52MOL    C8712429   4.905   5.559   3.510 -0.6514 -0.7272  0.0271
   52MOL    C8812430   5.043   5.626   3.476 -0.4067 -0.6557 -0.2557
   52MOL    C8912431   5.152   5.601   3.576  0.3621  0.1086 -0.4875
   52MOL    H9012432   4.824   5.591   3.314  2.2058 -1.3441  1.1794
   52MOL    H9112433   4.698   5.564   3.427  0.3288  1.1178  1.4073
   52MOL    H9212434   4.874   5.588   3.610 -0.7069 -0.0941 -0.1749
   52MOL    H9312435   5.026   5.733   3.485  0.0939 -0.7561  2.3185
   52MOL    H9412436   5.091   5.598   3.382 -0.5255 -0.7296 -0.2948
   52MOL    H9512437   5.238   5.667   3.566 -1.5155  2.7814  0.7083
   52MOL    H9612438   5.107   5.630   3.670 -0.2242  0.8855 -1.0102
   52MOL    H9712439   5.192   5.500   3.584  1.6533  0.6442  0.0086
   52MOL    C9812440   4.919   5.401   3.511 -0.3552  0.1127  0.1181
   52MOL    C9912441   4.957   5.336   3.646 -0.8355  0.0479 -0.0934
   52MOL   C10012442   5.018   5.198   3.624  0.4611  0.1376 -0.6220
   52MOL   C10112443   5.163   5.206   3.608 -0.0003 -0.2104  0.0545
   52MOL   H10212444   4.988   5.374   3.431 -1.0292 -1.9923  0.2068
   52MOL   H10312445   4.822   5.364   3.478 -0.0252 -1.5949  0.9980
   52MOL   H10412446   5.030   5.401   3.695  0.5344 -0.9193 -0.8073
   52MOL   H10512447   4.968   5.137   3.549  0.2082 -0.4520  0.0210
   52MOL   H10612448   5.005   5.151   3.722  0.7360  0.9544 -0.1808
   52MOL   H10712449   5.211   5.112   3.582 -1.4057 -1.3550  1.4711
   52MOL   H10812450   5.189   5.268   3.523  1.3633 -1.0989 -0.1766
   52MOL   H10912451   5.214   5.246   3.695  1.1053 -0.3529 -0.5276
   52MOL   C11012452   4.832   5.337   3.740  0.3974  0.1725  0.0061
   52MOL   C11112453   4.884   5.343   3.889 -0.4472  0.4749 -0.7933
   52MOL   C11212454   4.783   5.282   3.997 -0.3654  0.1889  0.2781
   52MOL   C11312455   4.762   5.139   3.978  0.3775  0.8740  0.8782
   52MOL   H11412456   4.773   5.252   3.705  0.9815  0.1823 -1.0276
   52MOL   H11512457   4.777   5.428   3.714  0.1634 -0.2030 -0.8151
   52MOL   H11612458   4.975   5.283   3.900 -0.2672  1.0590  1.1938
   52MOL   H11712459   4.684   5.327   3.996 -0.9738 -1.0863  0.8586
   52MOL   H11812460   4.825   5.294   4.097  2.6436 -3.3632 -0.4268
   52MOL   H11912461   4.843   5.071   4.003  0.0386 -0.5300 -1.6331
   52MOL   H12012462   4.667   5.116   4.027 -0.4119  0.4052 -0.8289
   52MOL   H12112463   4.757   5.109   3.873  2.5093 -1.6384  1.4500
   52MOL   C12212464   4.914   5.491   3.933 -0.2770  0.4047 -0.1724
   52MOL   C12312465   5.001   5.502   4.058  0.3528  0.0047  1.0956
   52MOL   C12412466   5.002   5.648   4.115 -0.5531  0.0343  0.2233
   52MOL   C12512467   4.869   5.703   4.167  0.1150 -0.7697  0.1737
   52MOL   H12612468   4.825   5.553   3.925  0.2642  1.1321 -0.6711
   52MOL   H12712469   4.970   5.538   3.852 -1.4076  1.0302 -0.6001
   52MOL   H12812470   4.960   5.441   4.139  1.6044 -0.8658  1.0988
   52MOL   H12912471   5.037   5.723   4.044 -1.1108 -0.1104 -0.2157
   52MOL   H13012472   5.076   5.651   4.195  1.1721  1.0647 -1.3534
   52MOL   H13112473   4.861   5.807   4.200 -0.7654 -1.0084  0.7245
   52MOL   H13212474   4.793   5.700   4.088 -1.7818  1.4871  1.8388
   52MOL   H13312475   4.840   5.635   4.247 -2.6970  0.9396  0.6526
   52MOL   C13412476   5.150   5.458   4.033 -0.1289  0.4408 -1.2566
   52MOL   C13512477   5.237   5.417   4.160 -0.1850 -0.1487 -0.1854
   52MOL   C13612478   5.379   5.488   4.142 -1.1293 -1.1194  0.3268
   52MOL   C13712479   5.376   5.635   4.174 -0.3501  0.4448 -0.2072
   52MOL   H13812480   5.205   5.533   3.976  1.4105 -1.5643 -2.5015
   52MOL   H13912481   5.162   5.374   3.964  1.3760 -0.5685  0.1732
   52MOL   H14012482   5.192   5.451   4.253  2.0240 -1.9550  1.6089
   52MOL   H14112483   5.412   5.471   4.039  0.0761  2.9668 -0.0640
   52MOL   H14212484   5.447   5.435   4.209 -0.2376 -1.8843 -1.1601
   52MOL   H14312485   5.319   5.657   4.265 -1.1290  0.9686 -0.8148
   52MOL   H14412486   5.479   5.662   4.201 -0.7866  1.9097  0.0510
   52MOL   H14512487   5.334   5.692   4.091 -0.9871  2.1622  1.2496
   52MOL   C14612488   5.263   5.268   4.171 -0.4961  0.3205  0.1870
   52MOL   C14712489   5.142   5.172   4.177  0.3625 -0.6396  0.8062
   52MOL   C14812490   5.047   5.211   4.297 -0.8385 -1.3454 -0.2754
   52MOL   C14912491   5.088   5.191   4.439  0.5350 -0.8710 -0.3047
   52MOL   H15012492   5.324   5.248   4.259 -0.6354 -0.6071  0.0758
   52MOL   H15112493   5.324   5.241   4.086 -0.9205 -0.0414 -0.0047
   52MOL   H15212494   5.090   5.202   4.085  0.1557  0.0357  1.1433
   52MOL   H15312495   4.950   5.162   4.288 -1.8207  0.8088 -1.7109
   52MOL   H15412496   5.017   5.316   4.293 -2.0509 -1.7753 -2.9309
   52MOL   H15512497   5.102   5.085   4.460  0.4411 -1.0948 -1.3618
   52MOL   H15612498   5.185   5.234   4.463  0.9391 -2.0009  0.1315
   52MOL   H15712499   5.016   5.238   4.506 -1.8586 -1.9668 -2.0450
   52MOL   C15812500   5.176   5.021   4.175  0.6881  0.2091  0.1246
   52MOL   C15912501   5.263   4.967   4.047 -0.5003  0.2322  0.0565
   52MOL   C16012502   5.187   4.987   3.913  0.0132 -0.3052 -0.4340
   52MOL   C16112503   5.065   4.890   3.894  0.0190  0.5753 -0.4795
   52MOL   H16212504   5.084   4.964   4.178 -0.3977  1.7937 -1.6839
   52MOL   H16312505   5.227   4.998   4.268  1.3511  0.9533 -0.0462
   52MOL   H16412506   5.341   5.043   4.051 -0.2084 -0.1148  1.4833
   52MOL   H16512507   5.261   4.980   3.833 -1.5125  0.0648 -1.8975
   52MOL   H16612508   5.155   5.090   3.897  1.0654 -0.2017 -2.0068
   52MOL   H16712509   5.004   4.887   3.985  0.2375  1.8616 -0.2736
   52MOL   H16812510   4.983   4.933   3.836 -0.9744  0.7402  1.0081
   52MOL   H16912511   5.089   4.788   3.864 -2.6247  1.0504 -4.5507
   52MOL   C17012512   5.332   4.834   4.061 -0.0272 -0.1564 -0.1233
   52MOL   C17112513   5.439   4.792   3.960  0.0163 -0.1357 -0.0436
   52MOL   C17212514   5.492   4.653   4.008 -0.1603  0.5931 -0.0613
   52MOL   C17312515   5.385   4.534   4.013  0.6401  0.0184 -0.2515
   52MOL   H17412516   5.251   4.762   4.055 -0.2497  0.0754  0.1062
   52MOL   H17512517   5.379   4.825   4.160 -2.0876  2.8144  1.1917
   52MOL   H17612518   5.401   4.775   3.859 -0.4237 -0.0838  0.1165
   52MOL   H17712519   5.539   4.654   4.107  1.2335 -2.3910 -0.6367
   52MOL   H17812520   5.573   4.619   3.944  1.7394  0.6702  2.2459
   52MOL   H17912521   5.422   4.432   4.005  0.6331  0.0427 -0.6040
   52MOL   H18012522   5.325   4.537   4.104  0.6258 -2.4404 -0.1418
   52MOL   H18112523   5.315   4.545   3.930 -1.0870 -1.6708  0.9250
   52MOL   C18212524   5.553   4.888   3.941  0.2047 -0.3191  0.0138
   52MOL   C18312525   5.660   4.867   3.825  0.4528  0.3464  0.0662
   52MOL   C18412526   5.771   4.981   3.842  0.2055  0.7002 -0.7303
   52MOL   C18512527   5.882   4.955   3.946  0.1328 -0.8742 -0.0202
   52MOL   H18612528   5.612   4.919   4.028  0.4209  2.2741 -1.0120
   52MOL   H18712529   5.507   4.979   3.904  0.8834 -0.6226 -1.5901
   52MOL   H18812530   5.709   4.770   3.834  0.3395  0.0191 -2.3951
   52MOL   H18912531   5.715   5.072   3.866 -0.2183  0.5513 -1.1553
   52MOL   H19012532   5.826   4.999   3.750  1.4297  0.0325 -0.1351
   52MOL   H19112533   5.929   4.859   3.923 -0.5395 -1.1311 -0.3027
   52MOL   H19212534   5.962   5.028   3.931 -0.6255 -0.3264 -1.4071
   52MOL   H19312535   5.849   4.959   4.050 -0.5237 -1.5122 -0.2010
   52MOL   C19412536   5.592   4.871   3.686  0.1315 -0.7025  0.0218
   52MOL   C19512537   5.675   4.855   3.554  0.2912  0.0915 -0.9361
   52MOL   C19612538   5.588   4.878   3.441  0.4953  0.3482 -0.1866
   52MOL   C19712539   5.526   5.014   3.450 -0.0955  0.3316 -0.0265
   52MOL   H19812540   5.530   4.960   3.685  2.8439  1.2307 -1.2659
   52MOL   H19912541   5.524   4.786   3.673 -1.2399  0.4595 -0.4963
   52MOL   H20012542   5.742   4.940   3.545 -1.7163  1.8852  0.4150
   52MOL   H20112543   5.510   4.803   3.439  1.0757 -0.2837  0.4548
   52MOL   H20212544   5.642   4.876   3.346 -0.2505  0.1719 -0.6111
   52MOL   H20312545   5.429   5.021   3.500 -0.3148 -0.5815 -0.2988
   52MOL   H20412546   5.584   5.101   3.479  1.5086 -0.8740  0.5038
   52MOL   H20512547   5.495   5.028   3.346 -1.1957 -0.4393  0.1839
   52MOL   C20612548   5.753   4.719   3.554  0.1408 -0.0895 -0.9747
   52MOL   C20712549   5.858   4.712   3.441 -0.5968 -0.2615 -0.0435
   52MOL   C20812550   5.825   4.609   3.335 -0.4629 -0.0713 -0.5095
   52MOL   C20912551   5.729   4.648   3.226 -0.0817  0.1071 -1.1690
   52MOL   H21012552   5.680   4.640   3.540  0.1972 -0.0202 -1.6635
   52MOL   H21112553   5.804   4.696   3.648 -1.6371 -1.1441 -0.2645
   52MOL   H21212554   5.876   4.810   3.398 -0.3613  0.6558  2.0923
   52MOL   H21312555   5.783   4.521   3.384  0.5355 -0.2321  0.0764
   52MOL   H21412556   5.915   4.575   3.284 -0.4540  0.2236 -0.6949
   52MOL   H21512557   5.633   4.643   3.278  1.7396 -1.2574  2.1734
   52MOL   H21612558   5.738   4.753   3.198  1.7948  0.2770  0.0055
   52MOL   H21712559   5.738   4.584   3.138 -0.9913 -0.5416 -0.8035
   52MOL   C21812560   5.993   4.682   3.509 -0.4539 -0.3337 -0.4826
   52MOL   C21912561   6.048   4.785   3.614  0.0501  0.8033 -0.0989
   52MOL   C22012562   6.133   4.886   3.543  0.1460 -0.2462  0.4815
   52MOL   C22112563   6.181   4.997   3.635  0.3538 -0.6796  0.7698
   52MOL   H22212564   6.067   4.673   3.430 -0.9016  0.4307 -0.9914
   52MOL   H22312565   5.989   4.584   3.556 -1.1122  0.0410  0.2609
   52MOL   H22412566   5.972   4.840   3.670 -0.2679 -0.2333  0.5016
   52MOL   H22512567   6.076   4.949   3.475  1.2421 -0.3227 -0.5103
   52MOL   H22612568   6.214   4.836   3.492 -1.6207  1.8502 -4.6856
   52MOL   H22712569   6.241   5.067   3.577  1.4641 -1.3623  1.0753
   52MOL   H22812570   6.093   5.046   3.674 -0.4288 -1.6640  0.2727
   52MOL   H22912571   6.238   4.974   3.725  0.6820  0.4310  0.8453
   52MOL   C23012572   6.126   4.702   3.726  0.9180  0.3093 -0.5114
   52MOL   C23112573   6.254   4.639   3.669  0.3561 -0.2174 -0.1436
   52MOL   C23212574   6.332   4.544   3.756 -0.0119 -0.1609 -0.3390
   52MOL   C23312575   6.460   4.488   3.696 -0.3093  0.7465  0.3616
   52MOL   H23412576   6.059   4.633   3.777  1.8665  0.6214  1.2178
   52MOL   H23512577   6.151   4.761   3.814 -0.4406 -1.6905  1.2520
   52MOL   H23612578   6.234   4.576   3.582 -1.0220  1.0941 -0.7948
   52MOL   H23712579   6.267   4.461   3.784 -2.4425  1.8489  0.2039
   52MOL   H23812580   6.349   4.591   3.853 -0.7115  1.6872 -1.0961
   52MOL   H23912581   6.498   4.404   3.754  0.2628  0.8541  0.1491
   52MOL   H24012582   6.444   4.455   3.593  2.9164 -0.6091  0.2380
   52MOL   H24112583   6.533   4.569   3.695 -0.3351  0.7699 -0.3990
   52MOL   H24212584   6.328   4.715   3.643  0.3881 -0.0090  0.5589
   53MOL     C112585   3.202   4.066   5.207 -0.2413  0.2230 -0.2159
   53MOL     C212586   3.191   4.158   5.088  0.7935 -0.2814  0.4737
   53MOL     C312587   3.327   4.195   5.030  0.1689 -0.4650 -0.1220
   53MOL     C412588   3.374   4.088   4.925  0.2100 -0.6040  0.5722
   53MOL     H512589   3.241   3.967   5.182 -0.7922 -0.5344  1.8331
   53MOL     H612590   3.267   4.094   5.290  1.9481 -0.1430 -1.7495
   53MOL     H712591   3.128   4.100   5.022  1.9063 -0.1527 -0.7287
   53MOL     H812592   3.405   4.201   5.105 -1.6214  0.2475  1.7246
   53MOL     H912593   3.315   4.286   4.971  1.1698  1.8710  3.1737
   53MOL    H1012594   3.335   4.099   4.823  1.1010 -1.2965  0.1546
   53MOL    H1112595   3.482   4.082   4.915  0.1201  0.1903 -1.1716
   53MOL    H1212596   3.343   3.991   4.962 -0.4039 -0.3558  0.7170
   53MOL    H1312597   3.104   4.049   5.251  0.3112 -1.6122  0.3649
   53MOL    C1412598   3.116   4.289   5.135  1.1954  0.3560 -0.5208
   53MOL    C1512599   2.956   4.281   5.133  0.3646  0.6780 -0.1625
   53MOL    C1612600   2.897   4.275   4.995 -0.3279 -0.0784 -0.6183
   53MOL    C1712601   2.781   4.176   4.998  0.3433 -0.1956 -0.2681
   53MOL    H1812602   3.143   4.379   5.080  1.2848  0.5535 -0.1582
   53MOL    H1912603   3.148   4.303   5.238  1.4991 -1.3936 -0.3560
   53MOL    H2012604   2.935   4.184   5.177  4.2738 -0.0001  0.3896
   53MOL    H2112605   2.975   4.239   4.929 -0.6136 -0.0433 -0.9781
   53MOL    H2212606   2.873   4.374   4.957  0.4451  0.6051  0.6316
   53MOL    H2312607   2.820   4.075   4.989 -3.4459 -1.9894  1.8708
   53MOL    H2412608   2.697   4.202   5.063  0.9774  3.3449 -0.7435
   53MOL    H2512609   2.734   4.191   4.901  1.1942  1.5888 -0.4203
   53MOL    C2612610   2.885   4.390   5.214  0.3902 -0.4228  0.0673
   53MOL    C2712611   2.921   4.408   5.367 -0.0699  0.4581 -0.5234
   53MOL    C2812612   2.932   4.273   5.437 -0.0963  0.7956 -0.4132
   53MOL    C2912613   2.797   4.198   5.415  0.6423  0.1806  0.0401
   53MOL    H3012614   2.777   4.374   5.208  0.2504 -0.1368  1.6645
   53MOL    H3112615   2.898   4.485   5.162  0.5946 -1.2389 -1.4125
   53MOL    H3212616   3.023   4.444   5.354  0.8199 -1.9139 -0.2563
   53MOL    H3312617   2.928   4.293   5.544 -1.6263 -2.6144  0.2056
   53MOL    H3412618   3.020   4.215   5.408  0.3181  1.4553 -0.4871
   53MOL    H3512619   2.723   4.267   5.456 -1.9616 -1.9289 -0.8982
   53MOL    H3612620   2.779   4.166   5.313  0.0688 -2.1896  0.8484
   53MOL    H3712621   2.793   4.101   5.466 -2.1473 -0.4803 -1.3268
   53MOL    C3812622   2.828   4.512   5.436  0.6288 -0.0043 -0.6000
   53MOL    C3912623   2.870   4.562   5.583  0.4772  0.1273  0.0004
   53MOL    C4012624   2.777   4.674   5.638 -0.0719  0.0511 -0.0146
   53MOL    C4112625   2.623   4.652   5.624  0.6846 -0.0371  0.0626
   53MOL    H4212626   2.726   4.475   5.427  0.0706  0.7494  2.0719
   53MOL    H4312627   2.824   4.606   5.380  1.7535 -0.0046 -0.6832
   53MOL    H4412628   2.851   4.484   5.657  0.3240 -0.1848 -0.3679
   53MOL    H4512629   2.799   4.756   5.570  3.7115 -2.0654 -1.4974
   53MOL    H4612630   2.794   4.704   5.742 -0.6143 -0.3353  0.1851
   53MOL    H4712631   2.604   4.658   5.517  1.6927 -1.0361 -0.1819
   53MOL    H4812632   2.576   4.567   5.674 -1.3566  0.9593 -0.0840
   53MOL    H4912633   2.572   4.739   5.666  0.8716  0.0360  0.1346
   53MOL    C5012634   3.012   4.610   5.588 -0.2408 -0.9851  0.8876
   53MOL    C5112635   3.067   4.633   5.729  0.3277  0.4195 -0.1712
   53MOL    C5212636   3.107   4.774   5.753 -0.3284  0.2634  0.0023
   53MOL    C5312637   3.246   4.814   5.695 -0.2166  0.0375 -0.3080
   53MOL    H5412638   3.018   4.702   5.531  4.2100 -0.7242  1.5841
   53MOL    H5512639   3.083   4.543   5.539 -0.9203  0.2036 -1.7908
   53MOL    H5612640   2.991   4.596   5.799 -1.4802 -0.7139 -2.6481
   53MOL    H5712641   3.102   4.798   5.860 -0.2450 -2.8638  0.7465
   53MOL    H5812642   3.028   4.830   5.704 -1.4516  0.0854  1.5803
   53MOL    H5912643   3.267   4.766   5.599 -1.0148 -0.1220 -0.4017
   53MOL    H6012644   3.256   4.922   5.682  0.0411  0.1743  0.9610
   53MOL    H6112645   3.319   4.780   5.769 -0.8612  1.7527  1.1496
   53MOL    C6212646   3.182   4.539   5.767 -0.4654  0.3850 -0.2806
   53MOL    C6312647   3.162   4.379   5.749 -0.7075  1.1119 -0.4200
   53MOL    C6412648   3.076   4.335   5.869 -0.4671  0.3089 -0.2057
   53MOL    C6512649   3.139   4.347   6.010  0.1945  0.0646 -0.3752
   53MOL    H6612650   3.230   4.565   5.862 -1.0125 -0.9062  0.3625
   53MOL    H6712651   3.252   4.569   5.689 -0.5543 -1.3006 -1.0215
   53MOL    H6812652   3.113   4.354   5.655  0.6457 -2.6816 -0.2148
   53MOL    H6912653   3.051   4.230   5.858 -0.3320 -0.0024  2.2434
   53MOL    H7012654   2.985   4.394   5.863 -2.1965 -2.3882 -1.4640
   53MOL    H7112655   3.058   4.330   6.081  1.1156 -1.4423  0.3178
   53MOL    H7212656   3.208   4.266   6.030 -0.9278 -0.5017  1.3326
   53MOL    H7312657   3.180   4.444   6.037 -1.5419  0.7023  0.0545
   53MOL    C7412658   3.300   4.315   5.732 -0.3751 -0.1970 -0.6637
   53MOL    C7512659   3.303   4.161   5.739  0.4571 -0.1116 -0.3416
   53MOL    C7612660   3.448   4.112   5.699 -0.3444  0.3071  0.4804
   53MOL    C7712661   3.547   4.158   5.813  0.0614 -0.3154  0.0187
   53MOL    H7812662   3.361   4.348   5.816 -2.7287 -2.5782  2.1054
   53MOL    H7912663   3.346   4.353   5.640 -0.2543  0.1034 -0.4789
   53MOL    H8012664   3.296   4.135   5.845 -0.6132 -1.7125 -0.7830
   53MOL    H8112665   3.473   4.152   5.601 -2.5192 -0.0301 -0.2534
   53MOL    H8212666   3.451   4.003   5.690  0.2780  0.5703 -3.4248
   53MOL    H8312667   3.548   4.263   5.843 -1.1771 -0.9429  2.3868
   53MOL    H8412668   3.522   4.098   5.900 -2.4397  0.2112 -0.3128
   53MOL    H8512669   3.651   4.137   5.787  0.9302  0.7768  2.4869
   53MOL    C8612670   3.193   4.088   5.662 -0.3320  0.1449  0.0216
   53MOL    C8712671   3.188   3.930   5.677  0.5660  0.9162  0.5315
   53MOL    C8812672   3.135   3.858   5.550  0.4028 -0.3310  0.1384
   53MOL    C8912673   3.120   3.705   5.569 -0.7026 -0.2876 -0.0396
   53MOL    H9012674   3.218   4.114   5.559 -0.9314 -0.2551 -0.2330
   53MOL    H9112675   3.092   4.127   5.674 -0.7669 -0.9669  0.0281
   53MOL    H9212676   3.291   3.894   5.680  0.0276 -0.8275 -1.3161
   53MOL    H9312677   3.206   3.873   5.469 -1.4817 -0.2135 -1.5256
   53MOL    H9412678   3.039   3.904   5.526  1.5644  1.5265 -1.0449
   53MOL    H9512679   3.206   3.642   5.593 -0.8417 -1.0313 -1.4412
   53MOL    H9612680   3.045   3.682   5.644 -1.2281  0.4683 -0.3307
   53MOL    H9712681   3.086   3.677   5.470 -0.4285 -1.7212  0.2675
   53MOL    C9812682   3.110   3.885   5.803  0.0662  0.5299  0.2775
   53MOL    C9912683   3.166   3.758   5.873 -0.1321  0.5909 -1.1104
   53MOL   C10012684   3.041   3.699   5.951  0.0644  0.0242 -0.0695
   53MOL   C10112685   2.971   3.782   6.054 -0.0697  0.6405 -0.5056
   53MOL   H10212686   3.010   3.871   5.762  0.1116  2.0768 -0.3847
   53MOL   H10312687   3.091   3.969   5.870 -0.8008  0.2874  0.3437
   53MOL   H10412688   3.197   3.679   5.805  2.3682 -0.8580  1.5880
   53MOL   H10512689   3.078   3.604   5.990 -2.4664 -1.3439 -0.8566
   53MOL   H10612690   2.967   3.661   5.880  0.6824 -1.9000  0.2880
   53MOL   H10712691   2.960   3.886   6.026 -0.1099  1.2307  1.6172
   53MOL   H10812692   2.888   3.728   6.100 -0.9530  1.1888 -1.4679
   53MOL   H10912693   3.037   3.797   6.140 -0.8404  2.1310 -0.1566
   53MOL   C11012694   3.287   3.790   5.956 -0.7579 -0.2446  0.0437
   53MOL   C11112695   3.366   3.675   6.018  0.5357  0.4366 -0.6082
   53MOL   C11212696   3.444   3.725   6.150 -0.1019  0.1304  0.0989
   53MOL   C11312697   3.498   3.614   6.247 -0.5114 -0.6752  0.8211
   53MOL   H11412698   3.255   3.862   6.031 -0.8593 -0.7331  0.4727
   53MOL   H11512699   3.357   3.847   5.895 -1.2667 -1.1970 -1.4660
   53MOL   H11612700   3.293   3.601   6.049 -0.8385  2.2642  0.5997
   53MOL   H11712701   3.386   3.790   6.215  1.0393  0.9612  0.2887
   53MOL   H11812702   3.533   3.782   6.123 -0.3883  0.0055 -1.1782
   53MOL   H11912703   3.579   3.546   6.220  0.5038  1.3280 -1.3281
   53MOL   H12012704   3.514   3.650   6.349  0.0653  1.3837  0.0238
   53MOL   H12112705   3.416   3.544   6.261 -0.6306 -0.7335 -0.1447
   53MOL   C12212706   3.456   3.595   5.912  0.5736  0.9921 -0.8309
   53MOL   C12312707   3.435   3.444   5.924 -0.2559  0.4058 -0.0311
   53MOL   C12412708   3.547   3.364   5.851 -0.0130 -0.0171  0.6780
   53MOL   C12512709   3.675   3.361   5.934  0.1888  0.7530 -0.6793
   53MOL   H12612710   3.562   3.619   5.914  0.4829  1.3568  1.3053
   53MOL   H12712711   3.430   3.612   5.807  0.2257 -2.8331 -1.4426
   53MOL   H12812712   3.433   3.411   6.027 -1.1446  0.0696 -0.1532
   53MOL   H12912713   3.568   3.386   5.746 -0.5030 -1.0890  0.3481
   53MOL   H13012714   3.520   3.261   5.828  0.2251 -0.2194  1.3042
   53MOL   H13112715   3.757   3.325   5.872  0.9576 -0.2872  0.9041
   53MOL   H13212716   3.698   3.466   5.954 -1.5107  0.7712  1.4546
   53MOL   H13312717   3.661   3.305   6.027  2.8841  0.3653 -0.4594
   53MOL   C13412718   3.302   3.400   5.864  0.0132  0.0644  0.3462
   53MOL   C13512719   3.255   3.252   5.896  0.7173 -0.4568  0.3981
   53MOL   C13612720   3.128   3.201   5.821 -0.2383 -0.2022 -0.1664
   53MOL   C13712721   2.991   3.273   5.861  0.0233  0.6934  0.5283
   53MOL   H13812722   3.310   3.415   5.756 -1.0676 -1.8451 -0.0260
   53MOL   H13912723   3.218   3.458   5.904  0.9651 -0.2771  2.9322
   53MOL   H14012724   3.327   3.185   5.850 -1.7145 -2.1767 -0.9784
   53MOL   H14112725   3.105   3.097   5.848  0.4102 -0.5764 -1.0404
   53MOL   H14212726   3.132   3.222   5.714 -0.8955 -2.9856 -0.7877
   53MOL   H14312727   2.969   3.245   5.964  1.1629 -1.8232  0.1336
   53MOL   H14412728   3.007   3.380   5.845  0.1693  0.5284 -0.4644
   53MOL   H14512729   2.908   3.239   5.798  0.1372  0.2970  0.5873
   53MOL   C14612730   3.238   3.224   6.051  0.3423  0.1369  0.2105
   53MOL   C14712731   3.350   3.141   6.122 -0.1482  0.2233  0.8062
   53MOL   C14812732   3.377   3.002   6.057 -0.1921 -0.1796 -0.5819
   53MOL   C14912733   3.261   2.907   6.061  0.0342 -0.2080 -0.3398
   53MOL   H15012734   3.137   3.185   6.069 -0.2855  1.1526 -1.0864
   53MOL   H15112735   3.234   3.321   6.100 -3.9333  1.0017 -1.6233
   53MOL   H15212736   3.444   3.191   6.098  0.2829 -0.4668  1.0533
   53MOL   H15312737   3.465   2.949   6.093 -0.2832  0.0531 -0.0184
   53MOL   H15412738   3.400   3.016   5.951  0.1906 -0.5719 -0.5507
   53MOL   H15512739   3.161   2.949   6.052 -0.2452 -1.1292 -1.7225
   53MOL   H15612740   3.274   2.832   5.983  0.8854  0.8359 -1.2162
   53MOL   H15712741   3.257   2.855   6.156  0.4897  0.8102  0.2404
   53MOL   C15812742   3.334   3.133   6.274 -0.7974 -0.2097 -0.2825
   53MOL   C15912743   3.461   3.103   6.353 -0.0858  0.4000 -0.5961
   53MOL   C16012744   3.428   3.041   6.494  0.4536  0.0726  0.0871
   53MOL   C16112745   3.440   2.892   6.506  0.5417  0.4299 -0.4854
   53MOL   H16212746   3.262   3.055   6.298 -1.3653  0.5277  0.4675
   53MOL   H16312747   3.292   3.230   6.302  0.2279 -0.2687  1.5740
   53MOL   H16412748   3.515   3.034   6.288  0.5173  0.8072 -0.5265
   53MOL   H16512749   3.327   3.075   6.520 -0.2756 -0.8142 -1.4883
   53MOL   H16612750   3.491   3.085   6.571  0.9051  1.6562 -1.1699
   53MOL   H16712751   3.381   2.844   6.428  0.3352 -1.7454  0.9382
   53MOL   H16812752   3.544   2.860   6.500 -0.3034 -2.6815  0.0809
   53MOL   H16912753   3.407   2.852   6.602  1.0031  0.1892 -0.4209
   53MOL   C17012754   3.542   3.234   6.367 -0.1346  0.3232  0.1870
   53MOL   C17112755   3.697   3.217   6.396 -0.4124  0.7515  0.6816
   53MOL   C17212756   3.761   3.350   6.439  0.4974 -0.7491 -0.0852
   53MOL   C17312757   3.897   3.349   6.504  0.1082 -0.2898  0.2869
   53MOL   H17412758   3.503   3.302   6.443  1.1151 -2.5842  3.5955
   53MOL   H17512759   3.528   3.296   6.279 -1.3366 -0.2543 -0.0476
   53MOL   H17612760   3.708   3.132   6.464 -1.9075 -1.0691 -1.2501
   53MOL   H17712761   3.700   3.391   6.519  0.8838  0.4469 -0.3951
   53MOL   H17812762   3.749   3.431   6.367 -0.4134 -0.9452 -0.1537
   53MOL   H17912763   3.913   3.436   6.568  0.6721 -0.0792 -0.1245
   53MOL   H18012764   3.913   3.270   6.577 -1.9319  0.8406  2.0086
   53MOL   H18112765   3.981   3.334   6.435 -0.0866  0.3276 -0.0901
   53MOL   C18212766   3.763   3.176   6.257  0.2790  0.3045 -0.2057
   53MOL   C18312767   3.864   3.061   6.275  0.2984 -0.3691  0.6224
   53MOL   C18412768   3.985   3.096   6.189 -0.9229  0.2938 -0.1356
   53MOL   C18512769   3.962   3.104   6.037 -0.2828  0.4853  0.2899
   53MOL   H18612770   3.798   3.269   6.213 -1.5895  1.7655  1.3290
   53MOL   H18712771   3.691   3.134   6.188 -0.8451  0.6548  0.7500
   53MOL   H18812772   3.907   3.070   6.375  2.7491  0.8291 -0.4870
   53MOL   H18912773   4.056   3.014   6.192 -0.4725  0.6078 -1.7506
   53MOL   H19012774   4.039   3.183   6.226  1.8197 -0.4419 -2.2977
   53MOL   H19112775   3.916   3.011   6.002 -0.4416  0.7015 -0.0745
   53MOL   H19212776   3.913   3.196   6.007  0.4707 -0.1603 -3.1768
   53MOL   H19312777   4.062   3.115   5.994 -0.4353 -0.7412 -0.4075
   53MOL   C19412778   3.794   2.928   6.265 -0.2878 -0.6592  0.6380
   53MOL   C19512779   3.871   2.805   6.316 -0.1155  1.2051  0.0482
   53MOL   C19612780   3.836   2.676   6.231  0.6473  0.3014  0.2363
   53MOL   C19712781   3.950   2.575   6.234 -0.0080  0.6084  0.3968
   53MOL   H19812782   3.757   2.922   6.163 -2.5009 -0.2920  1.4060
   53MOL   H19912783   3.705   2.923   6.327 -1.0151  2.1384 -0.0985
   53MOL   H20012784   3.975   2.827   6.293  0.1063 -1.8627 -2.1279
   53MOL   H20112785   3.827   2.705   6.126  2.2608  1.4007  0.3874
   53MOL   H20212786   3.743   2.629   6.262 -1.0435  1.9952 -2.0829
   53MOL   H20312787   3.920   2.476   6.203  1.0604  0.6746 -0.8673
   53MOL   H20412788   4.032   2.610   6.171  1.1774 -1.4064  0.7773
   53MOL   H20512789   3.984   2.564   6.337  0.2116  2.4505  0.5408
   53MOL   C20612790   3.845   2.780   6.467  0.3078 -0.1502 -0.0553
   53MOL   C20712791   3.915   2.879   6.562 -0.0454 -0.1158  0.1562
   53MOL   C20812792   4.071   2.899   6.540 -0.8559  0.2318  0.2876
   53MOL   C20912793   4.148   2.769   6.544  0.2603  0.0888 -0.3170
   53MOL   H21012794   3.885   2.681   6.491  0.4081  0.0846  0.7493
   53MOL   H21112795   3.739   2.771   6.492  0.7270 -0.0713  1.8448
   53MOL   H21212796   3.858   2.970   6.544 -1.6209 -0.7582  1.7085
   53MOL   H21312797   4.107   2.971   6.614 -0.3063 -0.9432  1.1723
   53MOL   H21412798   4.085   2.937   6.439  0.6485  1.3903  0.9138
   53MOL   H21512799   4.098   2.672   6.550 -1.6610  1.1182  0.4724
   53MOL   H21612800   4.228   2.749   6.472  0.4951 -2.3546  0.5675
   53MOL   H21712801   4.194   2.784   6.642 -2.1415 -0.6851  0.9576
   53MOL   C21812802   3.876   2.850   6.709  0.0690  0.7954 -0.9479
   53MOL   C21912803   3.912   2.966   6.810 -0.9730 -0.2209  0.4979
   53MOL   C22012804   3.968   2.917   6.942  1.0222 -0.5567 -0.7283
   53MOL   C22112805   4.095   2.832   6.957 -0.5101  0.4851  0.7848
   53MOL   H22212806   3.923   2.756   6.738  1.2217  0.8038 -2.7514
   53MOL   H22312807   3.768   2.835   6.717  0.3053  0.6183  2.7833
   53MOL   H22412808   3.989   3.025   6.760 -1.1403 -0.5442 -0.1569
   53MOL   H22512809   3.884   2.864   6.986  0.1964 -0.6302 -2.3459
   53MOL   H22612810   3.985   2.996   7.015 -1.3467 -2.5656  2.1058
   53MOL   H22712811   4.189   2.874   6.922 -1.7756  0.6791 -2.5777
   53MOL   H22812812   4.105   2.828   7.066  0.8506  3.6541  0.8281
   53MOL   H22912813   4.084   2.731   6.918 -0.6358  0.4807  0.8322
   53MOL   C23012814   3.785   3.045   6.824 -0.4432 -0.5739  0.2919
   53MOL   C23112815   3.795   3.177   6.906 -0.4331  0.0466 -0.1958
   53MOL   C23212816   3.685   3.270   6.863 -0.3012  0.2471 -0.2874
   53MOL   C23312817   3.546   3.222   6.909  0.0077 -0.3680 -0.1663
   53MOL   H23412818   3.706   2.983   6.865 -1.2667  1.4959  1.9068
   53MOL   H23512819   3.761   3.066   6.720  2.1310 -0.7828 -0.3908
   53MOL   H23612820   3.795   3.176   7.015 -2.6335  0.6302 -0.1723
   53MOL   H23712821   3.694   3.281   6.755  1.6409 -0.3089 -0.2066
   53MOL   H23812822   3.698   3.373   6.896  0.5700 -0.2745  1.0255
   53MOL   H23912823   3.466   3.279   6.863 -0.6750 -2.5333 -1.7892
   53MOL   H24012824   3.534   3.114   6.898 -1.2628 -0.4065  1.5021
   53MOL   H24112825   3.533   3.215   7.016 -1.3432  1.2700 -0.2088
   53MOL   H24212826   3.890   3.225   6.880  0.3254 -0.9808  0.6399
   54MOL     C112827   3.867   3.283   0.035 -0.2049 -0.4152  0.1368
   54MOL     C212828   4.009   3.286   0.091 -0.1311 -0.2491  0.1266
   54MOL     C312829   4.006   3.305   0.245  0.1201  0.0893 -0.3380
   54MOL     C412830   3.967   3.181   0.323  0.1939  0.1731 -0.8615
   54MOL     H512831   3.816   3.379   0.052  0.5003 -0.6168  3.7351
   54MOL     H612832   3.874   3.257   7.636  0.0854 -2.9586  0.7503
   54MOL     H712833   4.051   3.188   0.073  0.8095  0.2394 -0.3627
   54MOL     H812834   3.943   3.391   0.270  1.0414  0.3247  1.2200
   54MOL     H912835   4.103   3.333   0.287 -0.5098  0.0250  1.2091
   54MOL    H1012836   3.939   3.210   0.424  0.7557 -0.9824 -0.3524
   54MOL    H1112837   3.892   3.121   0.272  2.2316 -4.1129  0.8654
   54MOL    H1212838   4.053   3.117   0.345  1.2180  1.5821 -0.7433
   54MOL    H1312839   3.811   3.197   0.072 -0.8388 -0.5701 -1.1624
   54MOL    C1412840   4.085   3.404   0.028  0.3769  0.2584 -0.5157
   54MOL    C1512841   4.091   3.422   7.585 -0.3383 -0.1684 -0.0039
   54MOL    C1612842   4.161   3.291   7.529 -0.5832 -0.3462  0.4298
   54MOL    C1712843   4.174   3.295   7.377  0.2478  0.6147  0.0550
   54MOL    H1812844   4.186   3.416   0.069  0.8168  0.2941 -1.5885
   54MOL    H1912845   4.027   3.491   0.058  1.0547  1.4817 -2.6584
   54MOL    H2012846   3.994   3.440   7.537 -0.8176 -0.0122  1.0206
   54MOL    H2112847   4.127   3.191   7.556 -2.2410 -0.6176 -2.4006
   54MOL    H2212848   4.263   3.286   7.567  0.3506  0.2662 -1.8593
   54MOL    H2312849   4.075   3.308   7.333 -1.4927 -2.6426  2.8229
   54MOL    H2412850   4.244   3.373   7.346  0.8779 -0.4764 -1.3432
   54MOL    H2512851   4.215   3.205   7.332  1.9511  1.1293  0.5351
   54MOL    C2612852   4.179   3.549   7.559  0.3902 -0.2171 -0.2912
   54MOL    C2712853   4.141   3.645   7.442  0.7213  0.0535 -0.0151
   54MOL    C2812854   4.262   3.708   7.372  0.5870  0.0216  0.3975
   54MOL    C2912855   4.354   3.787   7.470  0.1480 -0.1322 -0.0730
   54MOL    H3012856   4.279   3.505   7.555 -0.5538 -2.4235 -0.7304
   54MOL    H3112857   4.186   3.613   7.646 -0.7327  1.4087 -1.3700
   54MOL    H3212858   4.099   3.579   7.366 -1.7343  0.1440  1.2217
   54MOL    H3312859   4.243   3.770   7.284 -0.4648  0.5004  0.9615
   54MOL    H3412860   4.313   3.617   7.339 -0.5990 -0.9177  1.1403
   54MOL    H3512861   4.322   3.884   7.508  0.1467  1.0043 -2.8543
   54MOL    H3612862   4.366   3.729   7.561  0.6657  0.3174  0.1483
   54MOL    H3712863   4.453   3.807   7.430  1.5533  1.3791  3.9510
   54MOL    C3812864   4.033   3.746   7.488 -0.2501 -0.3369  0.0341
   54MOL    C3912865   3.964   3.826   7.378  0.2430  0.4687  0.5524
   54MOL    C4012866   3.862   3.927   7.438 -0.2413 -0.1774  0.2489
   54MOL    C4112867   3.831   4.031   7.330  0.1723  0.7081  0.1289
   54MOL    H4212868   4.091   3.807   7.557  1.3033 -0.4771 -1.1242
   54MOL    H4312869   3.954   3.689   7.537 -0.3226  0.0993  0.4297
   54MOL    H4412870   4.044   3.886   7.333  0.0485  0.1898 -0.1784
   54MOL    H4512871   3.909   3.976   7.523 -1.4441  0.6326  0.4615
   54MOL    H4612872   3.779   3.876   7.486 -2.1555  3.4033  0.8522
   54MOL    H4712873   3.774   4.003   7.241 -0.1450  0.3478  0.4417
   54MOL    H4812874   3.769   4.103   7.383 -0.0456 -0.3618  1.3564
   54MOL    H4912875   3.919   4.090   7.305  0.6736  0.3296  0.9881
   54MOL    C5012876   3.909   3.746   7.262  0.1731 -0.1959 -0.1895
   54MOL    C5112877   3.798   3.651   7.285 -0.7755  0.5113  0.4825
   54MOL    C5212878   3.818   3.515   7.213 -0.2444 -0.5613 -0.1299
   54MOL    C5312879   3.845   3.524   7.063 -0.4830  0.2644  0.4263
   54MOL    H5412880   4.002   3.705   7.222  0.1239  0.1750 -0.6984
   54MOL    H5512881   3.886   3.815   7.180  0.2564  1.4371  1.1357
   54MOL    H5612882   3.787   3.621   7.390 -0.6255  0.3626  0.4558
   54MOL    H5712883   3.735   3.447   7.229 -1.8676  1.8357  2.0430
   54MOL    H5812884   3.899   3.453   7.253  0.3677  1.0026  1.1323
   54MOL    H5912885   3.930   3.590   7.045  0.2163 -0.7796 -0.2211
   54MOL    H6012886   3.869   3.421   7.034  0.9047  0.4569  0.8172
   54MOL    H6112887   3.754   3.552   7.010 -0.5270 -0.2019  0.2536
   54MOL    C6212888   3.666   3.725   7.257 -0.0565  0.3244  0.3962
   54MOL    C6312889   3.539   3.637   7.272  0.4843  0.1102  0.3887
   54MOL    C6412890   3.413   3.704   7.209 -0.2555  1.1268 -0.9501
   54MOL    C6512891   3.338   3.803   7.295 -0.0585  0.0796  0.3750
   54MOL    H6612892   3.674   3.766   7.157 -3.4296  1.0078  0.3555
   54MOL    H6712893   3.645   3.797   7.336 -2.2405  2.2319 -1.8227
   54MOL    H6812894   3.551   3.551   7.205  0.0341 -0.3028  0.8306
   54MOL    H6912895   3.337   3.632   7.179  0.5873 -0.7577  1.3328
   54MOL    H7012896   3.448   3.745   7.114  3.5386 -0.7200 -0.4660
   54MOL    H7112897   3.408   3.880   7.326  1.4112 -0.7008 -0.9206
   54MOL    H7212898   3.265   3.855   7.233 -1.1751 -2.2615 -0.3413
   54MOL    H7312899   3.292   3.753   7.381 -1.9036 -0.2780 -0.7842
   54MOL    C7412900   3.521   3.568   7.411 -0.2655 -0.4935  0.3382
   54MOL    C7512901   3.419   3.453   7.413  0.2652  0.5310  0.3444
   54MOL    C7612902   3.379   3.415   7.551 -0.2237 -0.6121  0.5372
   54MOL    C7712903   3.484   3.352   7.642  0.2790 -0.1474 -0.2152
   54MOL    H7812904   3.480   3.641   7.481  0.7554  0.3448  0.0794
   54MOL    H7912905   3.611   3.529   7.459 -0.5000 -0.7781  0.5502
   54MOL    H8012906   3.327   3.492   7.369  0.3334  1.4126  0.9686
   54MOL    H8112907   3.294   3.347   7.552  0.4877 -1.4969  1.7977
   54MOL    H8212908   3.340   3.505   7.598  0.5871  0.2567 -0.4297
   54MOL    H8312909   3.429   3.316   0.023  0.0659  1.9039  0.5416
   54MOL    H8412910   3.533   3.269   7.590 -2.3641 -1.3427 -0.8554
   54MOL    H8512911   3.570   3.412   7.671  1.0529 -1.9277  1.2407
   54MOL    C8612912   3.454   3.325   7.326 -0.0132 -0.2330  0.1636
   54MOL    C8712913   3.339   3.232   7.272 -0.6280  0.7427 -0.0851
   54MOL    C8812914   3.394   3.088   7.257 -0.0662  0.7250 -0.5579
   54MOL    C8912915   3.412   3.017   7.396  0.3805  0.2026 -0.2670
   54MOL    H9012916   3.530   3.266   7.376  1.0682  1.2908  0.3788
   54MOL    H9112917   3.518   3.347   7.239  0.5201  0.5123  0.7318
   54MOL    H9212918   3.267   3.215   7.352  1.3960  2.2394  2.1446
   54MOL    H9312919   3.478   3.077   7.187 -0.1702 -0.0527 -0.5571
   54MOL    H9412920   3.320   3.016   7.223 -2.1387  1.8914  1.3905
   54MOL    H9512921   3.314   3.028   7.442  1.3970 -2.2507  2.6047
   54MOL    H9612922   3.430   2.910   7.391  2.3619  0.5620 -1.3105
   54MOL    H9712923   3.490   3.068   7.452  1.6552 -2.4143  0.4081
   54MOL    C9812924   3.288   3.298   7.139  1.1164  0.5089 -0.1086
   54MOL    C9912925   3.130   3.299   7.128 -0.0889  0.1155 -0.1602
   54MOL   C10012926   3.080   3.301   6.980 -0.8101  0.7193  0.6851
   54MOL   C10112927   3.094   3.167   6.900 -0.2234  0.0495  0.0159
   54MOL   H10212928   3.326   3.242   7.054  1.6255 -0.1467  0.5427
   54MOL   H10312929   3.345   3.385   7.109  2.5685  0.7590  3.2075
   54MOL   H10412930   3.085   3.208   7.169  1.9033 -1.1323 -0.6584
   54MOL   H10512931   3.122   3.384   6.924  1.4248 -1.4486 -1.0165
   54MOL   H10612932   2.973   3.319   6.973 -1.1571 -1.9827 -2.2706
   54MOL   H10712933   3.066   3.182   6.796 -0.8233 -0.8790  0.0384
   54MOL   H10812934   3.196   3.128   6.901 -0.6609 -1.2103 -2.3336
   54MOL   H10912935   3.029   3.086   6.934 -0.8426  0.1684 -0.8862
   54MOL   C11012936   3.082   3.408   7.226 -0.1349  0.1288  0.0152
   54MOL   C11112937   2.938   3.444   7.244 -0.2682  0.6348 -0.3439
   54MOL   C11212938   2.925   3.573   7.321  0.2039 -0.4840 -0.0710
   54MOL   C11312939   3.006   3.587   7.450 -0.5627  0.5434  0.7847
   54MOL   H11412940   3.132   3.503   7.207  1.7205 -0.5540  1.3477
   54MOL   H11512941   3.126   3.375   7.320  0.7650  1.4870  0.0942
   54MOL   H11612942   2.887   3.464   7.150 -1.3661 -0.9329 -0.1119
   54MOL   H11712943   2.822   3.589   7.352  0.8754  0.6723  1.6515
   54MOL   H11812944   2.946   3.660   7.260 -0.7016  1.3926  2.2210
   54MOL   H11912945   3.114   3.579   7.435 -0.6389  0.1585  0.4351
   54MOL   H12012946   2.988   3.674   7.513  0.8216  0.7383  0.9223
   54MOL   H12112947   2.978   3.502   7.512 -2.6632 -0.2257 -1.1400
   54MOL   C12212948   2.848   3.335   7.309 -0.2955  0.2744 -0.7558
   54MOL   C12312949   2.801   3.202   7.235  0.4406 -0.4451 -0.1399
   54MOL   C12412950   2.702   3.239   7.127 -0.6168 -0.2069 -0.3961
   54MOL   C12512951   2.660   3.120   7.037 -0.0379 -0.0690  0.2189
   54MOL   H12612952   2.754   3.373   7.351 -0.6075 -2.3288  1.0474
   54MOL   H12712953   2.898   3.300   7.399 -2.0252 -1.7311 -0.5385
   54MOL   H12812954   2.880   3.149   7.181 -0.1987  1.4275 -3.0041
   54MOL   H12912955   2.733   3.327   7.070 -2.1554 -0.1750 -1.2211
   54MOL   H13012956   2.608   3.263   7.176 -0.7104 -2.5467  0.6254
   54MOL   H13112957   2.613   3.036   7.089 -2.6601  1.3978  0.3243
   54MOL   H13212958   2.588   3.160   6.965  2.4242  3.5408 -0.3901
   54MOL   H13312959   2.746   3.101   6.972  1.4447 -0.6276  2.3073
   54MOL   C13412960   2.752   3.095   7.331 -0.0347 -0.4851  0.3609
   54MOL   C13512961   2.862   3.019   7.404 -0.1069  0.0470 -0.0350
   54MOL   C13612962   2.920   2.898   7.326 -0.4155 -1.0289  0.0599
   54MOL   C13712963   3.053   2.841   7.379  0.2306 -0.2932  0.0442
   54MOL   H13812964   2.685   3.015   7.297 -1.0196  0.6644 -0.4555
   54MOL   H13912965   2.684   3.150   7.396  0.0542 -0.2522  0.2552
   54MOL   H14012966   2.947   3.086   7.408 -0.9766  1.1272  0.8429
   54MOL   H14112967   2.923   2.920   7.219 -0.1335 -0.0651  0.2619
   54MOL   H14212968   2.843   2.821   7.322 -0.9455 -0.4096 -2.2500
   54MOL   H14312969   3.116   2.926   7.408  1.2892 -0.4888 -1.6336
   54MOL   H14412970   3.040   2.791   7.475  3.1696 -0.7195  0.2475
   54MOL   H14512971   3.106   2.781   7.305 -1.1977  1.2166 -2.2796
   54MOL   C14612972   2.830   2.975   7.552  0.2904 -0.4197  0.0838
   54MOL   C14712973   2.864   3.099   7.647 -0.8761 -1.3504  0.1007
   54MOL   C14812974   3.012   3.099   7.685 -0.1831 -0.4399  0.0596
   54MOL   C14912975   3.066   3.247   7.693 -0.1608  0.1423  0.1753
   54MOL   H15012976   2.878   2.884   7.587  0.1605  0.1351  1.7445
   54MOL   H15112977   2.722   2.957   7.552  0.4314 -1.3602  1.4000
   54MOL   H15212978   2.847   3.186   7.585  0.1640 -0.8882  0.4610
   54MOL   H15312979   3.077   3.039   7.621  0.9369  0.0562  0.7138
   54MOL   H15412980   3.022   3.049   0.075  2.4059  1.0101  0.5859
   54MOL   H15512981   3.043   3.323   7.618 -2.6186 -0.5292  0.1914
   54MOL   H15612982   3.015   3.300   0.068  0.0406 -2.6153  2.1562
   54MOL   H15712983   3.174   3.248   0.003  0.1150 -2.0139 -1.3919
   54MOL   C15812984   2.776   3.111   0.068  0.6356  0.8834  0.7454
   54MOL   C15912985   2.649   3.179   0.058  0.5789  0.2120 -0.3658
   54MOL   C16012986   2.660   3.325   0.014  0.0322  0.2496 -0.9387
   54MOL   C16112987   2.718   3.427   0.116 -0.4238  0.6741  0.2019
   54MOL   H16212988   2.839   3.159   0.143  1.7160  1.5734 -0.5820
   54MOL   H16312989   2.763   3.007   0.100  1.7270  0.2936 -0.6637
   54MOL   H16412990   2.599   3.126   7.683  0.1457  0.3991 -0.2218
   54MOL   H16512991   2.559   3.351   7.690  0.2429 -0.0330 -1.8984
   54MOL   H16612992   2.723   3.334   7.632 -0.2232 -1.3301 -1.3060
   54MOL   H16712993   2.742   3.522   0.069 -1.0239  0.3325 -0.8168
   54MOL   H16812994   2.642   3.455   0.189 -2.5176  0.8343 -1.9638
   54MOL   H16912995   2.807   3.392   0.167  0.4464  0.6176 -1.3253
   54MOL   C17012996   2.558   3.162   0.189 -0.4128 -0.0864  0.3555
   54MOL   C17112997   2.485   3.024   0.208  0.6884  0.4986 -0.1866
   54MOL   C17212998   2.378   2.985   0.104 -0.6375 -0.2053 -0.6933
   54MOL   C17312999   2.329   2.840   0.127  0.1349 -0.1818 -0.1976
   54MOL   H17413000   2.476   3.233   0.188 -1.3312 -1.1374  1.0398
   54MOL   H17513001   2.617   3.188   0.277 -1.4616  1.4890  0.5912
   54MOL   H17613002   2.556   2.942   0.210 -1.3882 -1.4864 -3.3342
   54MOL   H17713003   2.433   2.992   0.010 -2.3773  0.3333 -1.6929
   54MOL   H17813004   2.297   3.059   0.101 -0.2444  0.1804 -1.9826
   54MOL   H17913005   2.418   2.778   0.126 -0.3804 -1.0178 -4.1119
   54MOL   H18013006   2.274   2.823   0.219 -0.4561  1.6687 -0.1845
   54MOL   H18113007   2.264   2.810   0.045  1.4289  0.1680 -1.3726
   54MOL   C18213008   2.425   3.023   0.348 -0.4112  0.5669  0.1216
   54MOL   C18313009   2.462   2.906   0.436  0.1876 -0.0189  0.1464
   54MOL   C18413010   2.384   2.884   0.563 -0.2657  0.0839 -0.2658
   54MOL   C18513011   2.399   3.001   0.657  0.9007  0.0037 -0.1222
   54MOL   H18613012   2.317   3.018   0.335 -0.5551  1.3866  0.9509
   54MOL   H18713013   2.450   3.115   0.401  1.8365  0.8115 -1.3077
   54MOL   H18813014   2.451   2.826   0.363  1.2710  0.3446 -0.4328
   54MOL   H18913015   2.428   2.801   0.618  1.2905  0.7756 -0.4144
   54MOL   H19013016   2.282   2.856   0.538  0.0876 -0.0485 -1.6189
   54MOL   H19113017   2.347   3.090   0.624  0.7240 -0.4942 -1.2056
   54MOL   H19213018   2.362   2.972   0.756  1.7361 -1.9317 -0.3528
   54MOL   H19313019   2.503   3.031   0.669  0.4222  2.5866 -2.1752
   54MOL   C19413020   2.613   2.871   0.451  0.3838  0.0038 -0.1758
   54MOL   C19513021   2.656   2.717   0.469  0.2389 -0.2165  0.2270
   54MOL   C19613022   2.779   2.708   0.572  0.1290  0.7135  0.0218
   54MOL   C19713023   2.749   2.761   0.709  0.8783 -0.1959 -0.6617
   54MOL   H19813024   2.646   2.929   0.538  0.4641 -0.3403  0.0233
   54MOL   H19913025   2.680   2.922   0.383  0.9192 -3.0508 -2.0023
   54MOL   H20013026   2.572   2.669   0.520  1.2369 -1.8637  0.3415
   54MOL   H20113027   2.869   2.760   0.538 -0.1828  1.3949  0.2346
   54MOL   H20213028   2.801   2.604   0.596  0.1939  0.9930  1.2041
   54MOL   H20313029   2.652   2.728   0.745  0.3657  1.6438 -0.2825
   54MOL   H20413030   2.831   2.731   0.774 -0.1380 -1.4332  0.0610
   54MOL   H20513031   2.744   2.870   0.718  0.2687 -0.2605 -0.2304
   54MOL   C20613032   2.688   2.655   0.337 -0.9287  0.2731  0.2248
   54MOL   C20713033   2.724   2.505   0.348 -0.2579 -0.1089 -0.4374
   54MOL   C20813034   2.736   2.459   0.201  0.3918  0.3009 -0.2289
   54MOL   C20913035   2.868   2.507   0.137 -0.5559  0.9661 -0.7263
   54MOL   H21013036   2.773   2.697   0.283  1.7480 -4.1567  0.7339
   54MOL   H21113037   2.599   2.678   0.278 -0.5189  1.0273 -0.1183
   54MOL   H21213038   2.820   2.492   0.398 -1.1271 -1.4050  0.9193
   54MOL   H21313039   2.650   2.482   0.138  0.1701  0.9257  0.2942
   54MOL   H21413040   2.745   2.351   0.198  1.0977  0.3200  0.8212
   54MOL   H21513041   2.940   2.526   0.216  0.5754  1.4789 -1.8611
   54MOL   H21613042   2.909   2.423   0.080  0.6332  0.6102  0.6112
   54MOL   H21713043   2.857   2.598   0.078 -0.4031  1.4865  0.0384
   54MOL   C21813044   2.616   2.412   0.404 -0.2243 -0.5021 -0.0064
   54MOL   C21913045   2.674   2.284   0.458  0.0874 -0.2222 -0.0819
   54MOL   C22013046   2.579   2.165   0.450  0.1349 -0.0693  0.7371
   54MOL   C22113047   2.633   2.032   0.499  0.4708  0.1372 -0.4774
   54MOL   H22213048   2.552   2.380   0.322  1.3706  0.4057 -1.6469
   54MOL   H22313049   2.562   2.472   0.478 -1.3029 -0.2159 -1.0114
   54MOL   H22413050   2.761   2.250   0.402 -0.3984 -1.3867 -0.1346
   54MOL   H22513051   2.543   2.149   0.348  0.5945 -0.3580  0.6206
   54MOL   H22613052   2.487   2.192   0.502  0.6251  0.6969  1.2194
   54MOL   H22713053   2.738   2.006   0.487  0.6525 -0.1728  1.5507
   54MOL   H22813054   2.618   2.019   0.607  0.1680 -2.1335 -0.7576
   54MOL   H22913055   2.586   1.950   0.445  0.6383  0.4065 -1.0266
   54MOL   C23013056   2.735   2.313   0.603 -0.2984  0.3033  0.6436
   54MOL   C23113057   2.633   2.340   0.717 -0.5071  0.4516  0.0515
   54MOL   C23213058   2.684   2.303   0.855 -0.6462  0.2533 -0.0403
   54MOL   C23313059   2.567   2.305   0.957 -0.7146 -0.3558  0.0562
   54MOL   H23413060   2.819   2.382   0.610  0.6623 -0.5575 -1.8344
   54MOL   H23513061   2.787   2.220   0.626  0.5830  0.5511 -0.3264
   54MOL   H23613062   2.594   2.441   0.708  1.0455  1.1642  1.0552
   54MOL   H23713063   2.757   2.379   0.881 -2.1729  1.1851  1.6223
   54MOL   H23813064   2.740   2.210   0.853 -0.0995  0.4091  4.5165
   54MOL   H23913065   2.605   2.312   1.058  2.0670  0.4231 -1.0046
   54MOL   H24013066   2.507   2.393   0.935 -1.4130 -0.7469  0.3703
   54MOL   H24113067   2.505   2.215   0.957 -1.6983  0.3162  0.2804
   54MOL   H24213068   2.538   2.289   0.702 -1.0205  0.7333  2.1753
   55MOL     C113069   6.240   5.340   4.908  0.2488 -0.5371 -0.1271
   55MOL     C213070   6.345   5.222   4.884 -0.0112  0.7875 -1.1647
   55MOL     C313071   6.298   5.126   4.772 -0.7496 -0.0723  0.4648
   55MOL     C413072   6.174   5.032   4.800 -0.2846 -0.4594  0.5886
   55MOL     H513073   6.260   5.399   4.997 -0.5091 -0.9897  0.3427
   55MOL     H613074   6.228   5.399   4.817 -1.9113  1.0178  1.1271
   55MOL     H713075   6.433   5.278   4.853  0.1622  0.5137 -1.1615
   55MOL     H813076   6.386   5.068   4.744 -0.6424 -0.0846  0.8323
   55MOL     H913077   6.265   5.187   4.687 -1.3112 -0.2145  0.5848
   55MOL    H1013078   6.145   4.967   4.718  1.2346 -1.7242  1.0316
   55MOL    H1113079   6.197   4.974   4.889  0.2791 -1.5023 -0.2254
   55MOL    H1213080   6.080   5.076   4.834  0.8816  1.4559  1.3722
   55MOL    H1313081   6.145   5.290   4.927 -1.1087  1.9574 -0.1726
   55MOL    C1413082   6.386   5.149   5.021  0.2685  0.0044  0.5487
   55MOL    C1513083   6.519   5.063   5.021  1.0209 -0.4345 -0.0390
   55MOL    C1613084   6.530   4.954   5.138 -0.5227 -0.8549  0.5350
   55MOL    C1713085   6.501   5.014   5.276  0.1165  0.8074 -0.1061
   55MOL    H1813086   6.303   5.091   5.060 -0.6452  1.1146  0.2972
   55MOL    H1913087   6.402   5.228   5.095 -2.0741  0.9790  0.0384
   55MOL    H2013088   6.510   4.991   4.941 -0.5275 -1.4642  1.0241
   55MOL    H2113089   6.625   4.901   5.138  0.4304  0.7837  1.7042
   55MOL    H2213090   6.446   4.890   5.115 -0.7018  0.4577 -2.7265
   55MOL    H2313091   6.495   4.941   5.358 -1.7473  2.0882  0.9346
   55MOL    H2413092   6.573   5.091   5.302  1.8231 -1.2529  1.4269
   55MOL    H2513093   6.401   5.058   5.270  0.0328  0.4795 -1.1714
   55MOL    C2613094   6.645   5.149   5.012  0.4104  0.0557  0.9203
   55MOL    C2713095   6.776   5.080   4.974  0.6108  0.1417 -0.6647
   55MOL    C2813096   6.898   5.181   4.966  0.0782 -0.2941 -0.2771
   55MOL    C2913097   7.038   5.112   4.995  0.2433  0.0870  0.1323
   55MOL    H3013098   6.648   5.211   5.102 -0.0712 -0.0213  0.9917
   55MOL    H3113099   6.626   5.220   4.932  0.4551 -0.8342  0.1220
   55MOL    H3213100   6.798   5.015   5.059 -2.7786 -1.0843 -0.6610
   55MOL    H3313101   6.893   5.258   5.044  2.2702 -0.7320  0.3225
   55MOL    H3413102   6.891   5.246   4.878  1.4732  1.9015  1.1716
   55MOL    H3513103   7.064   5.067   4.899 -1.6695  0.8552 -0.7817
   55MOL    H3613104   7.109   5.190   5.022  0.0081  0.1705  0.5082
   55MOL    H3713105   7.021   5.036   5.071 -1.3255  1.4097  1.1369
   55MOL    C3813106   6.779   4.997   4.844  0.7837 -0.2515  0.4052
   55MOL    C3913107   6.730   4.854   4.840 -0.0540 -0.1597  0.3209
   55MOL    C4013108   6.840   4.746   4.836 -0.3321  0.1421  0.1385
   55MOL    C4113109   6.947   4.768   4.945 -0.7301  0.2892 -0.2499
   55MOL    H4213110   6.880   5.000   4.802  0.7724  0.2436  0.4129
   55MOL    H4313111   6.718   5.048   4.770 -0.2055 -0.4825  1.0556
   55MOL    H4413112   6.679   4.848   4.937  0.1210  0.3212  0.4494
   55MOL    H4513113   6.890   4.745   4.740 -0.3658 -0.6558  0.1303
   55MOL    H4613114   6.797   4.646   4.831  0.4124 -0.1975  0.5095
   55MOL    H4713115   7.008   4.683   4.974 -0.4131  1.1206  1.5873
   55MOL    H4813116   7.024   4.841   4.921  1.1907 -0.5913  2.9701
   55MOL    H4913117   6.900   4.807   5.035  0.7839  1.1563  0.1788
   55MOL    C5013118   6.635   4.828   4.710  0.2447 -0.0858  0.8082
   55MOL    C5113119   6.540   4.708   4.714 -0.4581  0.0101  0.2134
   55MOL    C5213120   6.485   4.675   4.576 -0.7191  0.2794 -0.0346
   55MOL    C5313121   6.593   4.610   4.489  0.2779  0.2629 -0.3226
   55MOL    H5413122   6.703   4.821   4.626  0.9818 -1.3426  1.4887
   55MOL    H5513123   6.573   4.914   4.685 -1.2029 -0.7946  1.8136
   55MOL    H5613124   6.604   4.625   4.742 -0.1603  0.1840  0.0456
   55MOL    H5713125   6.438   4.757   4.522 -0.7157 -0.1943 -0.7531
   55MOL    H5813126   6.401   4.606   4.571 -1.3329  0.9270  1.0820
   55MOL    H5913127   6.683   4.666   4.465  1.8383 -0.8748  2.5546
   55MOL    H6013128   6.624   4.518   4.539  0.6007  1.3903  1.5873
   55MOL    H6113129   6.550   4.581   4.393 -0.5626 -1.8874  0.6564
   55MOL    C6213130   6.420   4.730   4.807  0.3372  0.1736  0.9601
   55MOL    C6313131   6.365   4.604   4.881 -0.0252 -0.1905  0.7892
   55MOL    C6413132   6.236   4.641   4.949  0.1878  0.2842 -0.1695
   55MOL    C6513133   6.117   4.657   4.845  0.3418  0.2061 -0.2755
   55MOL    H6613134   6.343   4.787   4.754  1.5595 -0.1499 -1.1975
   55MOL    H6713135   6.457   4.795   4.887  0.0674  0.1045  1.1429
   55MOL    H6813136   6.347   4.532   4.801 -0.0754  0.6825  0.0020
   55MOL    H6913137   6.261   4.737   4.994  3.2281 -1.0453  1.1532
   55MOL    H7013138   6.200   4.564   5.017  3.3499 -0.1431  1.0931
   55MOL    H7113139   6.078   4.560   4.813 -0.0422  0.4075 -0.4110
   55MOL    H7213140   6.033   4.714   4.885  0.2106 -0.6182  0.6595
   55MOL    H7313141   6.135   4.709   4.752 -2.3343  1.8013  0.0545
   55MOL    C7413142   6.467   4.551   4.989  0.9127 -0.1404  0.1570
   55MOL    C7513143   6.511   4.406   4.954 -0.5713 -0.2281 -0.0233
   55MOL    C7613144   6.399   4.299   4.934  0.4422 -0.3310  0.2279
   55MOL    C7713145   6.312   4.276   5.061  0.1665 -0.2892  0.4693
   55MOL    H7813146   6.422   4.542   5.087 -2.3341 -0.8674 -1.3419
   55MOL    H7913147   6.547   4.625   4.994 -0.2768  1.0556  2.1283
   55MOL    H8013148   6.549   4.414   4.852 -0.2141 -1.0555  0.0376
   55MOL    H8113149   6.440   4.204   4.901 -0.9762 -0.1898 -2.0839
   55MOL    H8213150   6.326   4.323   4.856  2.4373  1.9708 -0.9979
   55MOL    H8313151   6.332   4.175   5.097 -0.8932 -0.2221  1.2548
   55MOL    H8413152   6.349   4.344   5.138 -1.3960  1.9260 -0.6762
   55MOL    H8513153   6.208   4.292   5.033  0.1926  2.8468  1.9160
   55MOL    C8613154   6.623   4.359   5.054 -0.0413 -0.8323  0.1810
   55MOL    C8713155   6.767   4.422   5.024  0.1713  0.8219  0.7388
   55MOL    C8813156   6.809   4.379   4.877 -0.0586 -0.5343  0.5750
   55MOL    C8913157   6.956   4.388   4.834 -0.0130  0.6555 -0.2276
   55MOL    H9013158   6.631   4.251   5.066 -1.2570 -0.8238  1.0919
   55MOL    H9113159   6.573   4.386   5.147 -2.5999 -1.2993 -1.0160
   55MOL    H9213160   6.769   4.530   5.019 -1.2721  0.8138 -0.2745
   55MOL    H9313161   6.760   4.436   4.798  0.1558 -0.3237  0.5929
   55MOL    H9413162   6.787   4.277   4.845  3.1147  0.3729 -5.2875
   55MOL    H9513163   6.967   4.386   4.726 -0.4105  0.6598 -0.2672
   55MOL    H9613164   7.013   4.473   4.870 -1.0398  1.3436 -0.2165
   55MOL    H9713165   7.002   4.294   4.866 -1.7778 -0.8357 -1.9984
   55MOL    C9813166   6.882   4.382   5.122 -0.2360  0.0933  0.3075
   55MOL    C9913167   6.867   4.417   5.273 -0.0733  0.6937 -0.2903
   55MOL   C10013168   6.789   4.315   5.353  1.0702 -0.4102  0.0279
   55MOL   C10113169   6.836   4.177   5.355  0.0632 -0.0713  0.5511
   55MOL   H10213170   6.970   4.435   5.086 -1.9967  0.8585 -3.1475
   55MOL   H10313171   6.910   4.276   5.124  0.1144  0.1084 -1.8912
   55MOL   H10413172   6.968   4.399   5.309 -0.1166 -2.2464 -1.4577
   55MOL   H10513173   6.681   4.314   5.334  1.4209 -2.6760 -2.1715
   55MOL   H10613174   6.800   4.354   5.454 -2.2629  3.2495 -0.9012
   55MOL   H10713175   6.808   4.136   5.259  1.6828 -0.0072  0.0455
   55MOL   H10813176   6.939   4.156   5.383  0.5120  1.6263  0.2495
   55MOL   H10913177   6.772   4.130   5.430  0.5994 -0.4658  0.7604
   55MOL   C11013178   6.819   4.557   5.312  0.3573  0.2659 -0.3606
   55MOL   C11113179   6.889   4.620   5.432 -0.2294  0.3402 -0.3384
   55MOL   C11213180   6.806   4.725   5.505  0.1236 -0.1198  0.4740
   55MOL   C11313181   6.780   4.855   5.433 -0.0385  0.0384  0.0667
   55MOL   H11413182   6.717   4.544   5.349  0.2596  1.2172 -0.2602
   55MOL   H11513183   6.810   4.615   5.220  1.7167  1.6763  0.3805
   55MOL   H11613184   6.902   4.547   5.512 -0.3298  0.0198 -0.6177
   55MOL   H11713185   6.848   4.742   5.604  1.3299  1.3892 -0.2826
   55MOL   H11813186   6.707   4.691   5.534 -1.3308  0.5932 -3.3881
   55MOL   H11913187   6.874   4.899   5.399  0.0558  0.7505  1.2458
   55MOL   H12013188   6.720   4.840   5.342 -0.6885  1.3237  0.2687
   55MOL   H12113189   6.734   4.931   5.497  1.6626  1.1390  0.0012
   55MOL   C12213190   7.020   4.684   5.388  0.2353  0.0738 -0.7903
   55MOL   C12313191   7.113   4.750   5.491  0.0456 -0.5123  0.3930
   55MOL   C12413192   7.212   4.851   5.432 -0.1122  0.0022 -0.2062
   55MOL   C12513193   7.263   4.805   5.295  0.3485  0.3324 -0.1256
   55MOL   H12613194   6.991   4.755   5.311  2.6996  0.1763 -1.6805
   55MOL   H12713195   7.083   4.607   5.342  0.3182 -1.5798  1.9531
   55MOL   H12813196   7.046   4.805   5.557  1.8411 -0.2570  2.0697
   55MOL   H12913197   7.301   4.875   5.490 -0.2914 -1.1424  0.5409
   55MOL   H13013198   7.152   4.942   5.422 -0.4786 -0.3979 -1.8689
   55MOL   H13113199   7.333   4.723   5.302  1.5885  1.3833 -0.0192
   55MOL   H13213200   7.202   4.786   5.206  1.2895 -0.3584 -0.6208
   55MOL   H13313201   7.308   4.895   5.253 -0.2069  0.6978  0.0424
   55MOL   C13413202   7.195   4.647   5.583  0.2480  0.3757  0.4602
   55MOL   C13513203   7.241   4.707   5.721 -0.6100 -0.3736 -0.7778
   55MOL   C13613204   7.343   4.616   5.792 -0.4959 -0.3144 -0.6817
   55MOL   C13713205   7.468   4.563   5.719 -0.7099  0.0083 -0.4768
   55MOL   H13813206   7.285   4.621   5.527  0.1843  1.3264 -0.0965
   55MOL   H13913207   7.153   4.547   5.593 -1.3410  0.9065 -0.6361
   55MOL   H14013208   7.285   4.806   5.709  0.0111 -0.5969 -0.3393
   55MOL   H14113209   7.292   4.540   5.852 -1.0801  1.5656  1.2799
   55MOL   H14213210   7.380   4.680   5.873 -0.5303 -0.4397 -0.5671
   55MOL   H14313211   7.518   4.646   5.670 -1.5536  0.7981 -0.0188
   55MOL   H14413212   7.539   4.514   5.785  1.5555 -0.0015 -2.8730
   55MOL   H14513213   7.443   4.490   5.641 -0.1467 -0.9791  0.2489
   55MOL   C14613214   7.112   4.722   5.812  0.1128  0.0437 -0.0243
   55MOL   C14713215   7.131   4.806   5.935 -0.2377 -0.1629  0.2294
   55MOL   C14813216   7.012   4.775   6.034 -0.1145  0.1686 -0.0320
   55MOL   C14913217   6.873   4.791   5.971  0.0366 -0.2313 -0.5658
   55MOL   H15013218   7.078   4.619   5.825  1.4259 -0.5630 -1.2585
   55MOL   H15113219   7.031   4.764   5.753 -1.3543 -0.2923  1.7038
   55MOL   H15213220   7.221   4.779   5.990 -0.7684  1.8640  2.1969
   55MOL   H15313221   7.023   4.834   6.125 -1.1486 -0.9930  0.8640
   55MOL   H15413222   7.020   4.671   6.065  0.3745 -0.2475 -1.5131
   55MOL   H15513223   6.855   4.707   5.905 -1.6121  0.8921 -1.5686
   55MOL   H15613224   6.797   4.793   6.049  1.0388 -0.5218  0.4486
   55MOL   H15713225   6.850   4.885   5.922  0.0097  2.3850  4.1603
   55MOL   C15813226   7.127   4.959   5.904  0.3061 -0.2074  0.3567
   55MOL   C15913227   7.195   5.037   6.021  0.3317  0.3036  0.0128
   55MOL   C16013228   7.115   5.169   6.041 -0.5421  0.0363  0.5082
   55MOL   C16113229   6.996   5.147   6.132 -0.7363 -0.4727 -0.2514
   55MOL   H16213230   7.026   4.996   5.884 -0.3580 -1.4694  1.3360
   55MOL   H16313231   7.184   4.982   5.814 -0.0423 -1.0905 -0.0911
   55MOL   H16413232   7.197   4.986   6.118 -0.5577 -0.3938 -0.3303
   55MOL   H16513233   7.086   5.209   5.944 -1.9680 -0.5591  0.6775
   55MOL   H16613234   7.190   5.228   6.095 -1.1187 -0.3783  1.7902
   55MOL   H16713235   6.952   5.245   6.152 -2.0259 -1.1009  0.0793
   55MOL   H16813236   6.915   5.093   6.084 -0.3209 -0.5482 -0.8667
   55MOL   H16913237   7.012   5.094   6.226 -1.5132 -0.4223 -0.0845
   55MOL   C17013238   7.343   5.074   5.990  0.5716  0.5184 -0.3022
   55MOL   C17113239   7.449   4.960   5.972  0.3980 -0.4360 -0.1388
   55MOL   C17213240   7.471   4.876   6.104 -0.0606 -0.3354 -0.0198
   55MOL   C17313241   7.555   4.937   6.217 -0.4687  0.8833 -0.3813
   55MOL   H17413242   7.393   5.130   6.069  0.0322 -0.2578  0.5878
   55MOL   H17513243   7.346   5.148   5.910 -1.9194 -0.7482 -1.6202
   55MOL   H17613244   7.415   4.896   5.891 -3.4021 -0.9230  1.7307
   55MOL   H17713245   7.531   4.789   6.076 -1.0734 -0.6227 -1.3029
   55MOL   H17813246   7.376   4.839   6.142 -2.0898  2.0284 -2.6623
   55MOL   H17913247   7.647   4.983   6.181 -0.7647  2.1892  0.4864
   55MOL   H18013248   7.495   5.009   6.272 -0.0144  0.0519  1.2168
   55MOL   H18113249   7.585   4.858   6.286 -1.2866  1.0891  0.2115
   55MOL   C18213250   7.585   5.023   5.918 -0.4313  0.5316 -0.0709
   55MOL   C18313251   7.595   5.085   5.773 -0.2452  0.0513  0.5530
   55MOL   C18413252   7.567   4.976   5.665 -0.5112 -0.4611  0.1845
   55MOL   C18513253   7.569   5.015   5.520  0.6230 -0.2771  0.2509
   55MOL   H18613254   7.674   4.966   5.940 -1.3612 -0.6982  0.5457
   55MOL   H18713255   7.605   5.104   5.988 -0.1598 -0.2556  0.7512
   55MOL   H18813256   7.511   5.154   5.766  0.4119  0.7407 -0.6785
   55MOL   H18913257   7.464   4.940   5.675 -0.1111 -2.3126 -1.8661
   55MOL   H19013258   7.626   4.885   5.673  0.8582  0.6067  2.6402
   55MOL   H19113259   7.662   5.047   5.475  0.5218 -3.6058 -2.4984
   55MOL   H19213260   7.547   4.932   5.453  0.2085  1.9189 -2.4241
   55MOL   H19313261   7.512   5.109   5.515 -0.4220 -0.9268 -0.2241
   55MOL   C19413262   0.009   5.166   5.737  0.1967  0.3710 -0.7674
   55MOL   C19513263   0.045   5.286   5.824  0.4237  0.0244 -0.5481
   55MOL   C19613264   7.648   5.403   5.821 -0.2687 -0.1698  0.0868
   55MOL   C19713265   7.681   5.521   5.923  0.6735  0.2098 -0.5124
   55MOL   H19813266   0.001   5.201   5.634 -3.4644  2.5127  0.1555
   55MOL   H19913267   0.098   5.104   5.734  0.5893  0.7766  1.2793
   55MOL   H20013268   0.039   5.262   5.930  0.7776  0.9524 -0.3044
   55MOL   H20113269   7.548   5.371   5.848 -1.8167  2.4358 -2.2865
   55MOL   H20213270   7.633   5.436   5.719  1.6901  0.3761 -0.0423
   55MOL   H20313271   0.041   5.599   5.884  1.8042  0.5198  1.9602
   55MOL   H20413272   7.584   5.555   5.960  1.6430  2.1057  0.3610
   55MOL   H20513273   0.030   5.482   6.008 -2.1209  0.4573  1.5068
   55MOL   C20613274   0.182   5.342   5.796 -0.1809 -0.7742 -0.0637
   55MOL   C20713275   0.297   5.249   5.840 -0.1684  0.6862  0.4097
   55MOL   C20813276   0.288   5.189   5.977  0.1613  0.4758  0.2522
   55MOL   C20913277   0.337   5.263   6.100  0.2456  0.2495 -0.1095
   55MOL   H21013278   0.211   5.429   5.855 -0.7829  0.6856 -1.8864
   55MOL   H21113279   0.192   5.364   5.690 -0.6253 -0.1691  0.0169
   55MOL   H21213280   0.304   5.163   5.774 -1.2022 -1.3623  2.8756
   55MOL   H21313281   0.341   5.094   5.978  0.9573  0.8346 -2.7051
   55MOL   H21413282   0.188   5.155   6.004  0.4447 -1.1148 -0.6015
   55MOL   H21513283   0.439   5.290   6.073  0.9998 -2.1024  0.2672
   55MOL   H21613284   0.277   5.351   6.123 -1.3549 -0.3087 -2.0276
   55MOL   H21713285   0.331   5.198   6.187 -3.3103  0.4785 -0.1304
   55MOL   C21813286   0.426   5.304   5.809 -0.0299  0.4128 -0.2097
   55MOL   C21913287   0.562   5.211   5.823 -0.0266 -1.0811  0.5259
   55MOL   C22013288   0.680   5.299   5.778  0.5423 -0.2264  0.3945
   55MOL   C22113289   0.812   5.224   5.787 -0.6138  0.3975 -0.9108
   55MOL   H22213290   0.441   5.388   5.876 -2.9488  1.8141 -1.2230
   55MOL   H22313291   0.428   5.342   5.707 -0.4671  2.0275  0.3667
   55MOL   H22413292   0.574   5.185   5.929  0.1339 -0.8452  0.5665
   55MOL   H22513293   0.685   5.380   5.850  2.1168 -0.0755  0.1310
   55MOL   H22613294   0.651   5.340   5.681  1.9587 -0.9021 -0.3203
   55MOL   H22713295   0.831   5.174   5.692 -2.6616 -1.6166 -0.2785
   55MOL   H22813296   0.895   5.294   5.802 -1.5176  1.6138 -1.4423
   55MOL   H22913297   0.807   5.140   5.855 -0.3940  0.7400 -0.4647
   55MOL   C23013298   0.555   5.084   5.731  0.2668  0.0720  0.5338
   55MOL   C23113299   0.500   5.108   5.591 -0.1869  0.0102  0.1818
   55MOL   C23213300   0.477   4.976   5.516 -0.6815  0.4186  0.2240
   55MOL   C23313301   0.393   5.004   5.390  0.4057  0.1930  0.1157
   55MOL   H23413302   0.479   5.025   5.782 -0.4885 -0.7694 -1.5295
   55MOL   H23513303   0.643   5.020   5.728 -0.5090 -0.9619 -0.1684
   55MOL   H23613304   0.408   5.165   5.589 -1.2965 -1.6615  2.1205
   55MOL   H23713305   0.427   4.910   5.587 -1.0434  0.4017 -0.0447
   55MOL   H23813306   0.565   4.917   5.489 -0.6539  1.4179 -1.9573
   55MOL   H23913307   0.343   4.915   5.350 -0.6508  0.2506  1.2805
   55MOL   H24013308   0.311   5.072   5.414 -0.5790 -0.2892 -1.7452
   55MOL   H24113309   0.452   5.057   5.315  0.4991  1.9145  1.3709
   55MOL   H24213310   0.573   5.162   5.531  0.2659 -0.8896 -0.0893
   56MOL     C113311   0.750   6.261   7.128  0.8458  0.0401 -0.1432
   56MOL     C213312   0.612   6.246   7.195 -0.0821  0.1572 -0.0952
   56MOL     C313313   0.514   6.169   7.100 -0.3445  0.7124 -0.1206
   56MOL     C413314   0.461   6.254   6.990  0.2224 -0.2435 -0.1108
   56MOL     H513315   0.751   6.312   7.032 -3.1789 -0.5293 -0.5892
   56MOL     H613316   0.811   6.311   7.204  1.0935  1.4337 -1.2334
   56MOL     H713317   0.636   6.168   7.267 -0.3763 -2.3195 -2.5746
   56MOL     H813318   0.434   6.138   7.168 -0.8528  0.1127 -0.9807
   56MOL     H913319   0.559   6.081   7.056 -1.3155  0.5076 -0.7149
   56MOL    H1013320   0.377   6.312   7.028 -0.8878  1.9373 -5.3982
   56MOL    H1113321   0.540   6.321   6.955 -0.0834 -0.8626 -2.0390
   56MOL    H1213322   0.434   6.190   6.907 -0.2918 -2.9627  2.0828
   56MOL    H1313323   0.797   6.163   7.124 -1.2879 -0.9585 -1.6601
   56MOL    C1413324   0.552   6.377   7.249 -0.1859  0.1616 -0.7407
   56MOL    C1513325   0.591   6.396   7.398 -0.2574 -0.0721  0.3173
   56MOL    C1613326   0.516   6.304   7.499 -0.1411 -0.0906 -0.1536
   56MOL    C1713327   0.588   6.280   7.632  0.0853  0.0516 -0.5253
   56MOL    H1813328   0.444   6.374   7.239 -0.2376 -0.8356  0.1074
   56MOL    H1913329   0.571   6.467   7.189  0.2902  0.6226  0.0913
   56MOL    H2013330   0.695   6.364   7.411 -0.9161 -2.0889  0.9038
   56MOL    H2113331   0.485   6.210   7.455  0.0252 -1.1663  1.9951
   56MOL    H2213332   0.425   6.358   7.525  0.8794  0.8377  1.5507
   56MOL    H2313333   0.643   6.363   7.676  0.0787  0.1526 -0.7084
   56MOL    H2413334   0.506   6.267   7.702 -0.1082  2.3357 -0.3029
   56MOL    H2513335   0.652   6.193   7.617  0.5215  0.5372 -1.5603
   56MOL    C2613336   0.588   6.546   7.447  0.5776 -0.5147 -0.4620
   56MOL    C2713337   0.701   6.641   7.386 -0.2389 -0.2004 -0.2045
   56MOL    C2813338   0.790   6.700   7.495 -0.5079 -0.0401 -0.4639
   56MOL    C2913339   0.726   6.818   7.571 -0.1694 -0.4035 -0.0228
   56MOL    H3013340   0.580   6.552   7.555  3.8112  2.6571 -0.3476
   56MOL    H3113341   0.488   6.582   7.422  0.2437 -0.5893  0.7399
   56MOL    H3213342   0.763   6.574   7.327 -0.8665 -0.8910 -0.0963
   56MOL    H3313343   0.878   6.739   7.443 -0.0073 -0.8452 -0.2199
   56MOL    H3413344   0.826   6.629   7.569 -2.3155 -1.8362 -1.2758
   56MOL    H3513345   0.778   6.854   7.661 -2.1419  0.3455  0.8401
   56MOL    H3613346   0.712   6.910   7.515 -0.7341  0.5989  1.7165
   56MOL    H3713347   0.627   6.796   7.610 -0.2640  2.3273  1.4240
   56MOL    C3813348   0.621   6.742   7.294  0.2854  0.5178 -0.4986
   56MOL    C3913349   0.717   6.835   7.212  0.1638  0.0777  0.1087
   56MOL    C4013350   0.635   6.941   7.131  0.1059 -0.4968  0.1457
   56MOL    C4113351   0.561   7.041   7.220  0.2185 -0.4634  0.3375
   56MOL    H4213352   0.560   6.805   7.358  0.3504 -0.3463  0.4153
   56MOL    H4313353   0.544   6.693   7.235 -1.1002  2.1732 -0.0961
   56MOL    H4413354   0.784   6.886   7.282  0.7750  0.8406 -1.0026
   56MOL    H4513355   0.576   6.897   7.052 -0.5944  1.2580 -0.3313
   56MOL    H4613356   0.710   6.996   7.073  0.6168 -1.7471 -0.4021
   56MOL    H4713357   0.634   7.101   7.274  0.6617  0.6495 -1.4430
   56MOL    H4813358   0.498   7.106   7.159 -0.1878 -0.2578  0.9650
   56MOL    H4913359   0.496   6.988   7.290  0.8823  1.1528  2.2251
   56MOL    C5013360   0.808   6.746   7.123  0.0440  0.0699  0.2799
   56MOL    C5113361   0.952   6.743   7.137  0.1936  0.4900  0.7248
   56MOL    C5213362   1.017   6.891   7.126 -0.9876 -0.0548 -0.2776
   56MOL    C5313363   1.059   6.961   7.248 -0.2288  0.2938 -0.4671
   56MOL    H5413364   0.781   6.769   7.020  1.8961  3.2550  0.4320
   56MOL    H5513365   0.779   6.642   7.136 -0.9549  0.1570 -1.1211
   56MOL    H5613366   0.964   6.697   7.235 -1.6984 -0.2036  0.6455
   56MOL    H5713367   0.945   6.950   7.069 -0.4975 -0.1551 -1.0079
   56MOL    H5813368   1.103   6.894   7.059 -0.6737 -2.1187 -0.0036
   56MOL    H5913369   1.085   6.896   7.332 -1.1109  0.4502 -0.0586
   56MOL    H6013370   1.134   7.035   7.224 -0.3524  1.5995  2.8421
   56MOL    H6113371   0.974   7.023   7.275 -0.4708  1.5152 -3.8876
   56MOL    C6213372   1.030   6.643   7.040 -0.3708 -0.1984  0.0026
   56MOL    C6313373   1.180   6.624   7.061  0.4741  0.2366  0.4229
   56MOL    C6413374   1.244   6.521   6.962  0.4999 -0.0473 -0.2241
   56MOL    C6513375   1.343   6.584   6.859 -0.7102 -0.2094  0.5072
   56MOL    H6613376   1.002   6.670   6.938 -1.6665 -2.4432 -0.2557
   56MOL    H6713377   0.988   6.544   7.053 -1.8296  0.5247  0.9407
   56MOL    H6813378   1.237   6.716   7.044  0.2069 -0.1770 -3.0461
   56MOL    H6913379   1.162   6.477   6.905  0.8760  0.9636 -1.5710
   56MOL    H7013380   1.291   6.442   7.020  1.0874 -0.5330 -1.3538
   56MOL    H7113381   1.362   6.511   6.780 -1.3049  0.4790 -0.2789
   56MOL    H7213382   1.303   6.678   6.820 -0.4137 -1.7153 -3.7305
   56MOL    H7313383   1.442   6.588   6.904 -0.2828 -1.5290 -0.2816
   56MOL    C7413384   1.216   6.587   7.209  0.2691  0.4344  0.3108
   56MOL    C7513385   1.186   6.453   7.278 -0.3884  0.0701  0.6334
   56MOL    C7613386   1.046   6.442   7.339 -0.6804 -0.1276 -0.0958
   56MOL    C7713387   1.006   6.303   7.387 -0.4127  0.7164  0.1389
   56MOL    H7813388   1.192   6.669   7.275 -0.0494 -1.9508  3.2781
   56MOL    H7913389   1.325   6.594   7.207  0.5053 -1.6673  2.4309
   56MOL    H8013390   1.190   6.389   7.190 -0.5386  0.6612  0.1906
   56MOL    H8113391   0.966   6.470   7.271  0.3714  1.1436 -0.8431
   56MOL    H8213392   1.042   6.510   7.424 -0.0443  0.6772 -0.6953
   56MOL    H8313393   1.067   6.266   7.469 -1.0452 -1.0053 -0.1502
   56MOL    H8413394   0.900   6.307   7.415  0.1818  1.4081  2.4777
   56MOL    H8513395   1.016   6.231   7.307  0.3895  1.7234 -0.6872
   56MOL    C8613396   1.292   6.409   7.383 -0.3373  0.2032  0.8391
   56MOL    C8713397   1.402   6.294   7.346  0.4358  0.6093 -0.1343
   56MOL    C8813398   1.452   6.205   7.461  0.1141 -0.3200  0.9660
   56MOL    C8913399   1.351   6.149   7.559  0.4217  0.1066 -0.0609
   56MOL    H9013400   1.244   6.384   7.477 -0.5884 -3.3240 -0.1404
   56MOL    H9113401   1.347   6.501   7.398 -1.0109  0.7701 -0.1008
   56MOL    H9213402   1.347   6.222   7.285 -2.6307  0.2253  2.9444
   56MOL    H9313403   1.525   6.265   7.516 -0.1908  0.3040  0.7023
   56MOL    H9413404   1.502   6.119   7.418 -1.8706 -1.4489  0.8466
   56MOL    H9513405   1.266   6.097   7.513 -0.5484  1.6294 -0.0255
   56MOL    H9613406   1.397   6.076   7.625  0.1349 -0.1236 -0.1110
   56MOL    H9713407   1.310   6.226   7.624  2.3234  0.4727  0.7150
   56MOL    C9813408   1.522   6.358   7.260 -0.8354 -0.1927 -0.1852
   56MOL    C9913409   1.609   6.248   7.185 -0.3965 -0.0285  0.3277
   56MOL   C10013410   1.736   6.302   7.120 -0.2418 -0.3717 -0.6548
   56MOL   C10113411   1.844   6.364   7.221  0.6704 -0.0070 -0.3442
   56MOL   H10213412   1.587   6.415   7.326  1.5033  0.3950 -2.8948
   56MOL   H10313413   1.496   6.444   7.198  5.6592  1.3889 -1.0877
   56MOL   H10413414   1.647   6.172   7.253  1.2139  0.4402 -0.0163
   56MOL   H10513415   1.720   6.369   7.035  1.6963  0.8733 -0.0823
   56MOL   H10613416   1.798   6.225   7.074  4.2258  1.9345  1.0992
   56MOL   H10713417   1.795   6.409   7.307 -2.5133 -1.4058 -1.3546
   56MOL   H10813418   1.912   6.287   7.258  3.0491  0.1267 -4.1681
   56MOL   H10913419   1.899   6.444   7.172  1.7737 -0.6228 -0.1215
   56MOL   C11013420   1.530   6.178   7.073 -0.1820 -0.1826  1.2763
   56MOL   C11113421   1.465   6.042   7.075 -0.2145  0.1170 -0.4231
   56MOL   C11213422   1.542   5.935   7.153 -0.0497  0.0056 -0.1173
   56MOL   C11313423   1.692   5.899   7.109  0.8378 -1.1737 -0.3764
   56MOL   H11413424   1.598   6.163   6.989 -0.9785 -2.2848  0.9813
   56MOL   H11513425   1.450   6.244   7.040 -0.5097 -0.4130  1.6003
   56MOL   H11613426   1.380   6.065   7.139  0.9268 -0.1689  1.2359
   56MOL   H11713427   1.495   5.837   7.148  2.2101 -1.1833  1.0270
   56MOL   H11813428   1.556   5.943   7.261  1.4871 -0.4753 -0.2775
   56MOL   H11913429   1.757   5.982   7.137 -0.4980 -0.2847  0.1471
   56MOL   H12013430   1.707   5.809   7.168 -2.7592 -2.4594 -1.3007
   56MOL   H12113431   1.690   5.868   7.004  0.5774  2.4754 -1.5053
   56MOL   C12213432   1.424   5.994   6.932 -0.4291 -0.0923 -0.4476
   56MOL   C12313433   1.339   5.868   6.935 -0.4224 -0.1881 -0.0932
   56MOL   C12413434   1.393   5.751   6.855 -0.0264  0.1984  0.0252
   56MOL   C12513435   1.328   5.614   6.878  0.0719 -0.4663  0.5374
   56MOL   H12613436   1.508   5.983   6.864 -1.7907 -0.4212 -2.1276
   56MOL   H12713437   1.377   6.079   6.882  1.2648  1.2584  0.2070
   56MOL   H12813438   1.321   5.831   7.036  1.0491  2.7845  1.3101
   56MOL   H12913439   1.501   5.746   6.872 -0.0320  0.8484  0.2750
   56MOL   H13013440   1.381   5.770   6.749 -0.5511 -0.1143  0.0279
   56MOL   H13113441   1.393   5.535   6.841 -2.8019 -2.5735 -0.1992
   56MOL   H13213442   1.321   5.581   6.981 -0.7646  0.8625  0.9053
   56MOL   H13313443   1.231   5.591   6.833 -0.2943 -0.0581  1.1218
   56MOL   C13413444   1.197   5.903   6.890 -0.2576  0.0814 -0.2622
   56MOL   C13513445   1.122   6.000   6.989 -0.2046  0.9716 -0.2625
   56MOL   C13613446   1.091   5.952   7.130  0.8885  0.1306  0.3766
   56MOL   C13713447   0.977   5.853   7.154  0.2728 -0.1093  0.5742
   56MOL   H13813448   1.142   5.810   6.876 -0.9999  0.1757  1.8252
   56MOL   H13913449   1.205   5.950   6.793 -1.2763 -0.3843 -0.5841
   56MOL   H14013450   1.184   6.088   7.002  1.1678  0.1573 -1.1665
   56MOL   H14113451   1.063   6.046   7.178 -1.2452  0.3047 -1.1465
   56MOL   H14213452   1.184   5.922   7.178  1.0360 -1.3573 -0.8152
   56MOL   H14313453   0.975   5.804   7.252  0.2028 -0.9309  0.1653
   56MOL   H14413454   0.882   5.900   7.132  0.4538 -0.0779 -0.1446
   56MOL   H14513455   0.985   5.776   7.077  0.2873  0.6215 -0.1510
   56MOL   C14613456   0.993   6.044   6.919  0.1281  0.1010  0.3892
   56MOL   C14713457   0.995   6.106   6.775 -0.4565 -0.1376 -0.0155
   56MOL   C14813458   1.064   6.241   6.789  0.6895 -0.1730  0.2303
   56MOL   C14913459   1.062   6.332   6.664 -0.2072  1.0223 -0.2725
   56MOL   H15013460   0.962   6.118   6.993  2.6137  0.9448  0.6251
   56MOL   H15113461   0.919   5.964   6.916  0.2811 -0.1696  2.6059
   56MOL   H15213462   1.051   6.038   6.710  0.2352  1.0250 -0.6439
   56MOL   H15313463   1.170   6.230   6.815  0.5796  1.4598  1.5101
   56MOL   H15413464   1.040   6.297   6.880 -2.1764  0.3262 -0.8138
   56MOL   H15513465   1.072   6.276   6.571 -2.3740  0.8489 -0.4303
   56MOL   H15613466   0.971   6.391   6.649 -1.5354 -0.4871  1.6049
   56MOL   H15713467   1.145   6.402   6.674  1.4623 -0.9906  0.2813
   56MOL   C15813468   0.845   6.114   6.725 -0.2067  0.1766  0.1710
   56MOL   C15913469   0.777   5.984   6.677 -0.8764  0.5220 -0.0746
   56MOL   C16013470   0.839   5.932   6.548  0.4143  0.2768  0.0193
   56MOL   C16113471   0.815   6.010   6.423  0.3445  0.0959  0.4938
   56MOL   H16213472   0.839   6.181   6.640  1.4715  0.9235  0.6196
   56MOL   H16313473   0.782   6.161   6.801  0.1665  0.1645  0.4893
   56MOL   H16413474   0.789   5.911   6.757 -2.6818  0.7003  0.3911
   56MOL   H16513475   0.802   5.831   6.525  0.7724 -0.1176  1.1497
   56MOL   H16613476   0.946   5.937   6.567  0.2943 -0.9330  1.1049
   56MOL   H16713477   0.815   6.118   6.440 -0.8042  0.1548  0.1517
   56MOL   H16813478   0.893   6.000   6.347  0.8209 -2.1616  1.2360
   56MOL   H16913479   0.716   5.986   6.384  0.4478 -0.3528  0.5032
   56MOL   C17013480   0.619   6.001   6.677 -0.0641  0.1639  0.7655
   56MOL   C17113481   0.541   5.871   6.657  0.3464  0.7767  0.0989
   56MOL   C17213482   0.400   5.895   6.598 -0.1659 -0.0025 -0.9479
   56MOL   C17313483   0.397   5.950   6.456  0.3939  0.0065 -0.0459
   56MOL   H17413484   0.596   6.068   6.594  0.9611  0.3835  0.6497
   56MOL   H17513485   0.574   6.065   6.754 -1.3134 -0.8072  0.8551
   56MOL   H17613486   0.592   5.800   6.592  1.3153  1.3815  0.1977
   56MOL   H17713487   0.341   5.943   6.677 -1.0973 -2.4314 -0.1243
   56MOL   H17813488   0.346   5.801   6.600 -0.6216  0.2647 -0.7523
   56MOL   H17913489   0.293   5.940   6.424  1.1475 -0.8922 -2.3035
   56MOL   H18013490   0.442   6.049   6.450 -1.0181  0.6157 -0.8069
   56MOL   H18113491   0.455   5.884   6.391  0.1700  1.0142 -1.2831
   56MOL   C18213492   0.533   5.796   6.794 -0.3890  0.7825  0.4469
   56MOL   C18313493   0.489   5.649   6.796  0.0949  0.3043  0.7996
   56MOL   C18413494   0.474   5.597   6.946  0.0156  0.0791  0.7920
   56MOL   C18513495   0.392   5.467   6.951 -0.9606  0.2384 -0.1831
   56MOL   H18613496   0.452   5.841   6.854 -1.3748 -0.9922  0.4693
   56MOL   H18713497   0.628   5.807   6.846  0.3233 -1.1274 -0.4261
   56MOL   H18813498   0.391   5.641   6.749 -0.8839 -1.8604  3.0869
   56MOL   H18913499   0.413   5.672   6.996 -1.3215 -0.1173 -0.5190
   56MOL   H19013500   0.572   5.575   6.988  0.6414 -0.8463 -1.0849
   56MOL   H19113501   0.380   5.440   7.056  2.4487  1.2863  0.5184
   56MOL   H19213502   0.294   5.470   6.903 -1.3522 -0.0810  0.5748
   56MOL   H19313503   0.443   5.379   6.911 -0.9739  0.5004 -0.7799
   56MOL   C19413504   0.581   5.542   6.731 -0.2646 -0.1569  0.2872
   56MOL   C19513505   0.544   5.519   6.588 -0.3017  0.2533  0.6493
   56MOL   C19613506   0.415   5.438   6.576 -0.0964 -0.2931  0.4471
   56MOL   C19713507   0.417   5.289   6.606  0.3461 -0.0043  0.3725
   56MOL   H19813508   0.576   5.439   6.766 -2.3737 -0.9110 -2.0314
   56MOL   H19913509   0.685   5.574   6.739 -0.2489  0.2428 -1.3145
   56MOL   H20013510   0.515   5.616   6.547 -1.6426 -0.7902 -0.9505
   56MOL   H20113511   0.377   5.453   6.476  0.2472  1.9724  0.6291
   56MOL   H20213512   0.346   5.479   6.650  1.7183  0.2897  1.8658
   56MOL   H20313513   0.487   5.264   6.686  1.3546  0.3701 -0.3862
   56MOL   H20413514   0.324   5.239   6.636  0.0368  0.6828  0.5592
   56MOL   H20513515   0.463   5.245   6.517 -0.6513 -1.0801  0.3675
   56MOL   C20613516   0.667   5.449   6.517  0.7606 -0.2986  0.5312
   56MOL   C20713517   0.656   5.473   6.364  0.3404 -0.2390 -0.1315
   56MOL   C20813518   0.759   5.377   6.298  0.3699 -0.7360  0.1440
   56MOL   C20913519   0.709   5.300   6.176 -0.4243  0.8245  0.3754
   56MOL   H21013520   0.675   5.342   6.537 -2.7909 -0.5399  0.8638
   56MOL   H21113521   0.763   5.487   6.555  0.0637 -0.6562  2.7411
   56MOL   H21213522   0.558   5.436   6.335  0.2682  0.4779 -0.8125
   56MOL   H21313523   0.778   5.304   6.377  0.5059  1.9711  2.6939
   56MOL   H21413524   0.858   5.421   6.295  0.8373 -1.7810  0.1221
   56MOL   H21513525   0.617   5.251   6.205 -0.9416  1.4059 -0.2676
   56MOL   H21613526   0.674   5.362   6.093  0.4952 -0.5662 -1.0987
   56MOL   H21713527   0.771   5.219   6.138  1.3520  1.3734  2.0140
   56MOL   C21813528   0.686   5.625   6.329  0.7198 -0.0383 -0.1623
   56MOL   C21913529   0.655   5.673   6.185 -0.1277 -0.2986  0.2684
   56MOL   C22013530   0.530   5.613   6.125  1.2424  0.1722  0.2647
   56MOL   C22113531   0.403   5.661   6.202  0.2644  0.5216  0.2681
   56MOL   H22213532   0.784   5.659   6.364 -0.5241  2.0651  1.3736
   56MOL   H22313533   0.627   5.689   6.395  0.6400 -0.8005  0.5064
   56MOL   H22413534   0.647   5.780   6.205 -0.1836 -0.5224  1.5280
   56MOL   H22513535   0.529   5.504   6.120  0.0711  0.0552  2.2848
   56MOL   H22613536   0.520   5.647   6.022 -0.4356 -2.6815 -0.5650
   56MOL   H22713537   0.418   5.647   6.310  1.3174 -0.5185 -0.0021
   56MOL   H22813538   0.387   5.766   6.177 -2.1807  0.4001  1.1959
   56MOL   H22913539   0.312   5.607   6.176  1.1299 -0.3056 -1.0877
   56MOL   C23013540   0.771   5.648   6.087  0.3991  0.4058 -0.3508
   56MOL   C23113541   0.785   5.760   5.974 -1.1063  0.7612 -0.1082
   56MOL   C23213542   0.902   5.732   5.879 -0.6296  0.1123 -0.2015
   56MOL   C23313543   0.918   5.853   5.781 -0.4270  0.1137  0.1654
   56MOL   H23413544   0.776   5.545   6.052  1.5564 -0.3497  1.8974
   56MOL   H23513545   0.863   5.649   6.146  0.8188 -0.7319 -0.9776
   56MOL   H23613546   0.694   5.778   5.918 -1.5375  0.0778  0.3501
   56MOL   H23713547   0.874   5.639   5.829  0.7475  0.7763 -2.2383
   56MOL   H23813548   0.992   5.721   5.939 -1.3293  2.1445  1.2665
   56MOL   H23913549   0.907   5.950   5.830  0.9774  0.7060 -0.6575
   56MOL   H24013550   1.010   5.845   5.724 -0.1838 -3.0373  0.8990
   56MOL   H24113551   0.841   5.861   5.705  0.9815  0.7388 -1.2158
   56MOL   H24213552   0.808   5.854   6.023 -1.2339  1.0041 -0.5200
   57MOL     C113553   4.052   0.387   3.231 -0.6580 -0.0698 -0.0025
   57MOL     C213554   4.009   0.245   3.236  0.4200 -0.0496 -0.5323
   57MOL     C313555   3.972   0.195   3.385  0.0967  0.0413  0.5896
   57MOL     C413556   3.906   0.055   3.377 -0.0407  0.1423 -0.3323
   57MOL     H513557   3.981   0.457   3.276  2.1094  0.9625  3.0037
   57MOL     H613558   4.149   0.411   3.274 -0.1834 -1.2499 -0.4085
   57MOL     H713559   3.917   0.237   3.178 -0.0189 -2.8694  0.4840
   57MOL     H813560   3.899   0.266   3.422 -1.1475 -1.1471  0.4347
   57MOL     H913561   4.054   0.185   3.456 -0.8222 -0.4411  1.5898
   57MOL    H1013562   3.810   0.054   3.325 -1.3464  0.8280  1.9957
   57MOL    H1113563   3.974   7.692   3.327  0.2544 -0.2089  0.5421
   57MOL    H1213564   3.902   0.009   3.476  1.1534  2.4174  0.8026
   57MOL    H1313565   4.063   0.424   3.129  2.5010 -0.0099  0.3177
   57MOL    C1413566   4.108   0.156   3.162 -1.0767  0.0122  0.2158
   57MOL    C1513567   4.239   0.098   3.231 -0.0358 -0.5188 -0.2295
   57MOL    C1613568   4.354   0.212   3.242  0.3041 -0.3714 -0.1898
   57MOL    C1713569   4.389   0.277   3.101  0.3991 -0.6792  0.2318
   57MOL    H1813570   4.131   0.215   3.073  0.4030 -2.8054 -1.3411
   57MOL    H1913571   4.037   0.077   3.138 -0.3107 -0.8555  0.7918
   57MOL    H2013572   4.219   0.086   3.337  3.2222  1.8281  0.7511
   57MOL    H2113573   4.441   0.168   3.292 -1.6877 -1.5709  2.3256
   57MOL    H2213574   4.327   0.291   3.313  0.9598 -0.2314 -0.0930
   57MOL    H2313575   4.489   0.321   3.103  0.4756 -0.7132 -1.8164
   57MOL    H2413576   4.395   0.202   3.022 -2.2618 -1.5009  0.7474
   57MOL    H2513577   4.313   0.348   3.068 -2.0329 -2.0214  2.7262
   57MOL    C2613578   4.305   7.681   3.167  0.4995  1.0340 -0.4385
   57MOL    C2713579   4.226   7.541   3.180 -0.0436 -0.3925  0.6151
   57MOL    C2813580   4.227   7.482   3.323 -0.0394  0.1646 -0.2201
   57MOL    C2913581   4.144   7.352   3.337  0.3583  0.0914 -0.4539
   57MOL    H3013582   4.408   7.666   3.199  0.5498 -0.1304 -1.1146
   57MOL    H3113583   4.317   7.703   3.061 -1.0534  1.0516 -0.6167
   57MOL    H3213584   4.123   7.555   3.149  0.5002 -0.7526 -1.4323
   57MOL    H3313585   4.178   7.544   3.397 -1.6772  0.6621 -1.6964
   57MOL    H3413586   4.332   7.474   3.352  0.0276  2.2245  0.1719
   57MOL    H3513587   4.192   7.265   3.292  1.6016 -0.0844  1.1700
   57MOL    H3613588   4.090   7.334   3.430  1.3394 -0.5750 -0.0066
   57MOL    H3713589   4.063   7.374   3.268 -0.2811  1.2481  0.6291
   57MOL    C3813590   4.286   7.435   3.081  0.8655  0.7923 -0.2149
   57MOL    C3913591   4.278   7.467   2.926  0.2249 -0.1161 -0.4529
   57MOL    C4013592   4.127   7.482   2.888 -1.1459  0.1962  0.1478
   57MOL    C4113593   4.068   7.617   2.859  0.0017 -0.3500 -0.2691
   57MOL    H4213594   4.241   7.340   3.112  2.7612 -0.2919 -0.6884
   57MOL    H4313595   4.391   7.432   3.110  1.0997 -0.7524 -1.1631
   57MOL    H4413596   4.337   7.553   2.891  0.2601 -0.6140 -1.6332
   57MOL    H4513597   4.049   7.434   2.946 -1.3650  0.8414  0.3918
   57MOL    H4613598   4.118   7.435   2.790 -1.6348 -1.0527  0.7831
   57MOL    H4713599   4.072   7.693   2.937  1.0198  0.9141 -1.5233
   57MOL    H4813600   4.128   7.659   2.778 -0.4428  0.5707 -0.1322
   57MOL    H4913601   3.966   7.616   2.820 -0.6447  3.6305  1.0061
   57MOL    C5013602   4.348   7.352   2.856  0.2920 -0.2647 -0.0248
   57MOL    C5113603   4.480   7.301   2.900 -0.0821  0.0193  0.0173
   57MOL    C5213604   4.587   7.406   2.880 -0.2541  0.2163  0.3976
   57MOL    C5313605   4.731   7.372   2.930  0.8956  0.0701 -0.2178
   57MOL    H5413606   4.368   7.368   2.750 -1.2616  1.2213 -0.1150
   57MOL    H5513607   4.268   7.278   2.860 -1.0395  1.1129 -0.6017
   57MOL    H5613608   4.472   7.274   3.006 -1.5904  0.5476  0.0549
   57MOL    H5713609   4.553   7.498   2.927  0.3184  1.7364 -2.0393
   57MOL    H5813610   4.582   7.441   2.776  2.2554  2.8012  1.0548
   57MOL    H5913611   4.785   7.464   2.953 -1.8191  1.4767  0.7279
   57MOL    H6013612   4.733   7.303   3.015  5.3640 -0.3266 -0.5302
   57MOL    H6113613   4.780   7.306   2.858 -2.1282 -1.6918 -0.7385
   57MOL    C6213614   4.516   7.171   2.834  0.0032  0.4611  0.0073
   57MOL    C6313615   4.416   7.047   2.850  0.1762  0.2763 -0.1448
   57MOL    C6413616   4.406   6.999   3.002 -0.2441 -0.8519 -0.6511
   57MOL    C6513617   4.534   6.952   3.069  0.7374  0.1130 -0.4106
   57MOL    H6613618   4.615   7.144   2.869  0.2665  2.4131  0.8340
   57MOL    H6713619   4.520   7.180   2.725 -0.5558 -1.8731 -0.2255
   57MOL    H6813620   4.316   7.070   2.815 -0.3799  0.8678  1.7525
   57MOL    H6913621   4.328   6.925   3.014 -2.5324  1.2295 -2.1675
   57MOL    H7013622   4.373   7.081   3.067 -3.9197 -0.9406 -2.3134
   57MOL    H7113623   4.514   6.922   3.171 -0.3009  0.4668 -0.5037
   57MOL    H7213624   4.563   6.862   3.014 -0.9656 -0.2865 -0.6957
   57MOL    H7313625   4.602   7.037   3.077 -0.3819  1.0017 -0.1365
   57MOL    C7413626   4.462   6.931   2.762 -0.4605  0.0007 -0.6156
   57MOL    C7513627   4.403   6.791   2.793  0.2044  0.1725  0.3998
   57MOL    C7613628   4.504   6.688   2.743 -0.0703  0.2486  0.5914
   57MOL    C7713629   4.543   6.698   2.597  1.0184 -0.1656  0.4033
   57MOL    H7813630   4.570   6.922   2.772 -0.7460 -0.5208  2.7142
   57MOL    H7913631   4.458   6.949   2.655  2.2907 -0.9579 -0.9227
   57MOL    H8013632   4.393   6.771   2.900  0.2368  0.1736  0.4032
   57MOL    H8113633   4.462   6.588   2.756 -0.2071  0.5671  2.9032
   57MOL    H8213634   4.595   6.693   2.803  0.4344  0.2386 -0.1653
   57MOL    H8313635   4.454   6.702   2.534  0.2293  1.2112  1.5885
   57MOL    H8413636   4.598   6.791   2.581  1.5104 -0.5166  0.0334
   57MOL    H8513637   4.610   6.623   2.556  1.4528  0.6251 -0.3730
   57MOL    C8613638   4.262   6.767   2.731 -0.5880  0.0757 -0.2768
   57MOL    C8713639   4.193   6.637   2.773  0.5739  0.6737  0.0286
   57MOL    C8813640   4.175   6.544   2.658  0.7146 -0.0440 -0.0328
   57MOL    C8913641   4.084   6.597   2.544 -0.0486  0.1953 -0.5219
   57MOL    H9013642   4.275   6.779   2.623 -1.2970 -2.1470 -0.6380
   57MOL    H9113643   4.204   6.848   2.774  0.6978  0.8363  0.0450
   57MOL    H9213644   4.252   6.583   2.847 -0.8250 -0.4332  0.3600
   57MOL    H9313645   4.137   6.451   2.700  1.5548  0.0299  0.9142
   57MOL    H9413646   4.268   6.523   2.605  0.5858 -1.7272  0.3682
   57MOL    H9513647   4.081   6.524   2.463 -0.5537  2.2962 -2.4602
   57MOL    H9613648   3.983   6.616   2.580 -0.6628 -0.4860 -1.8484
   57MOL    H9713649   4.121   6.680   2.483 -0.6724  0.6525 -0.2853
   57MOL    C9813650   4.054   6.660   2.837  0.1845 -0.5094  0.1753
   57MOL    C9913651   4.053   6.742   2.968  0.5453  0.5702  0.0092
   57MOL   C10013652   4.121   6.672   3.089 -0.4480 -0.1510  0.5047
   57MOL   C10113653   4.041   6.548   3.143  0.3411  0.1513 -0.1135
   57MOL   H10213654   3.998   6.569   2.860  0.5116 -0.4104  1.4219
   57MOL   H10313655   3.996   6.730   2.778 -1.4178 -1.7683  0.2042
   57MOL   H10413656   4.112   6.835   2.965 -0.1104  1.0535  1.6233
   57MOL   H10513657   4.150   6.742   3.167 -0.3633  0.8999 -0.4562
   57MOL   H10613658   4.213   6.628   3.051 -1.1418 -3.0069  1.9651
   57MOL   H10713659   3.944   6.586   3.174 -0.1793 -0.5722 -0.8522
   57MOL   H10813660   4.038   6.462   3.077 -2.3939  1.3641 -1.6221
   57MOL   H10913661   4.085   6.513   3.237  1.1140 -0.4343 -0.6907
   57MOL   C11013662   3.916   6.804   3.005  0.6258 -0.3650 -0.0475
   57MOL   C11113663   3.858   6.918   2.920  0.2911 -0.3857 -0.0206
   57MOL   C11213664   3.889   7.068   2.976  0.4302 -0.0303 -0.2345
   57MOL   C11313665   4.034   7.103   2.995  0.3438  0.0554 -1.2683
   57MOL   H11413666   3.911   6.838   3.109 -0.3428  1.0950 -0.5729
   57MOL   H11513667   3.847   6.719   3.003 -1.9624  1.6557  0.0934
   57MOL   H11613668   3.894   6.918   2.817  1.6820  2.0019  0.4540
   57MOL   H11713669   3.850   7.096   3.073  2.2358 -1.0954  0.8413
   57MOL   H11813670   3.850   7.141   2.906 -0.1239 -0.4486 -0.3658
   57MOL   H11913671   4.083   7.026   3.055  1.9177  1.0249 -1.3001
   57MOL   H12013672   4.089   7.107   2.901  0.6547  0.8403 -1.0577
   57MOL   H12113673   4.044   7.196   3.051  0.5041  0.4116 -1.8810
   57MOL   C12213674   3.704   6.900   2.880 -0.3791  0.0875  0.3970
   57MOL   C12313675   3.663   6.902   2.730 -0.1597  0.0615 -0.0238
   57MOL   C12413676   3.728   6.785   2.655 -0.1690  0.8737 -0.0020
   57MOL   C12513677   3.712   6.647   2.729  0.9026  0.1308  0.3043
   57MOL   H12613678   3.657   6.986   2.928  2.6770  1.0611  1.8264
   57MOL   H12713679   3.662   6.824   2.946 -0.0073 -2.0013 -1.7084
   57MOL   H12813680   3.554   6.890   2.727 -0.3142  1.0770  1.1783
   57MOL   H12913681   3.829   6.807   2.619  0.0335 -0.0485 -0.0181
   57MOL   H13013682   3.684   6.768   2.557 -1.7695  1.4707  0.5978
   57MOL   H13113683   3.775   6.622   2.814 -0.3178 -1.4889  0.7712
   57MOL   H13213684   3.607   6.633   2.754  0.5662 -2.0811 -2.1526
   57MOL   H13313685   3.743   6.580   2.649  0.3879  0.3891 -0.1140
   57MOL   C13413686   3.700   7.031   2.655 -0.5969  0.1179  0.0142
   57MOL   C13513687   3.634   7.161   2.706 -0.1862  0.0618  0.5975
   57MOL   C13613688   3.482   7.172   2.671  0.0397 -0.5668 -0.0731
   57MOL   C13713689   3.438   7.148   2.523  0.1592 -0.2844  0.4584
   57MOL   H13813690   3.671   7.017   2.551  1.6010  2.0485 -0.9024
   57MOL   H13913691   3.808   7.031   2.641 -0.2378 -3.5417  2.1635
   57MOL   H14013692   3.645   7.173   2.814  0.9864  2.2996  0.2405
   57MOL   H14113693   3.435   7.266   2.702 -0.1646 -0.6870 -0.0174
   57MOL   H14213694   3.436   7.096   2.735  1.4285 -1.1307  0.2864
   57MOL   H14313695   3.484   7.060   2.478  0.2497 -0.1687  0.3271
   57MOL   H14413696   3.329   7.146   2.511  0.0364 -0.8082  1.6028
   57MOL   H14513697   3.471   7.236   2.468  2.7997 -0.4574  1.7043
   57MOL   C14613698   3.710   7.274   2.644 -0.1476 -0.3920  0.5802
   57MOL   C14713699   3.664   7.422   2.687 -0.4019  0.0028  1.1442
   57MOL   C14813700   3.748   7.520   2.605 -0.3194  0.3609 -0.2691
   57MOL   C14913701   3.684   7.555   2.469 -0.2126 -0.5139  0.1932
   57MOL   H15013702   3.720   7.253   2.538  1.2899  1.4710  0.3290
   57MOL   H15113703   3.811   7.273   2.685 -0.0397  1.8704  0.3946
   57MOL   H15213704   3.558   7.434   2.665  0.1756 -1.8262 -3.1055
   57MOL   H15313705   3.845   7.474   2.586 -0.3685 -0.2550  0.9141
   57MOL   H15413706   3.782   7.609   2.659 -0.1760  1.6142 -2.3467
   57MOL   H15513707   3.760   7.606   2.409  0.1471  0.3034  1.3424
   57MOL   H15613708   3.642   7.469   2.415 -0.7025 -0.8356  1.0790
   57MOL   H15713709   3.604   7.626   2.493 -0.9074 -0.8629 -1.0178
   57MOL   C15813710   3.693   7.453   2.839 -0.2719  0.5643  0.8476
   57MOL   C15913711   3.634   7.584   2.892 -0.0774 -0.3387  0.2996
   57MOL   C16013712   3.697   7.624   3.029 -0.1240 -0.4271 -0.1767
   57MOL   C16113713   3.668   7.533   3.151  0.0627 -0.0589 -0.7568
   57MOL   H16213714   3.800   7.438   2.848 -0.0200  1.8849  0.2670
   57MOL   H16313715   3.657   7.376   2.907 -0.2392  1.1009  1.4746
   57MOL   H16413716   3.656   7.663   2.819  0.9094  0.1664  1.1294
   57MOL   H16513717   3.673   0.021   3.056 -0.7681 -0.7417  0.4701
   57MOL   H16613718   3.803   7.634   3.002  0.5797 -3.9259  1.0243
   57MOL   H16713719   3.689   7.429   3.129  0.1055 -0.0900 -0.5677
   57MOL   H16813720   3.730   7.576   3.230 -0.4155 -0.6355 -0.0691
   57MOL   H16913721   3.565   7.558   3.177  0.8329  1.2984  1.1061
   57MOL   C17013722   3.485   7.578   2.903  0.9791  0.4563  0.1511
   57MOL   C17113723   3.414   7.705   2.930 -0.3950  0.2067  0.6987
   57MOL   C17213724   3.269   7.695   3.001 -0.0315  0.5231 -0.5487
   57MOL   C17313725   3.283   7.687   3.155  0.2012 -0.1085  0.5498
   57MOL   H17413726   3.466   7.515   2.990 -0.0771  0.5171 -0.0322
   57MOL   H17513727   3.446   7.522   2.818 -0.2355  1.5387 -0.0173
   57MOL   H17613728   3.475   0.049   3.005 -0.4917 -0.0027  0.9182
   57MOL   H17713729   3.200   7.624   2.956  3.2361 -1.6499 -2.2979
   57MOL   H17813730   3.218   0.085   2.996 -0.7802  0.2020  0.6658
   57MOL   H17913731   3.366   0.031   3.204 -0.7261  1.3885  0.6091
   57MOL   H18013732   3.192   0.012   3.206  0.1813 -2.7860  2.2300
   57MOL   H18113733   3.292   7.579   3.172 -1.4159 -0.6054 -1.5208
   57MOL   C18213734   3.410   0.096   2.815 -0.2587 -0.3628 -0.0270
   57MOL   C18313735   3.379   0.052   2.667  0.2507 -0.3630  0.5277
   57MOL   C18413736   3.387   0.171   2.565  0.4429 -0.1794  0.1328
   57MOL   C18513737   3.515   0.260   2.585 -0.1454 -0.0079 -0.1539
   57MOL   H18613738   3.512   0.134   2.802 -0.0146 -0.9018  0.2802
   57MOL   H18713739   3.354   0.189   2.825 -0.1830 -0.2910 -0.2701
   57MOL   H18813740   3.447   7.681   2.630  0.0727 -0.5027  0.4946
   57MOL   H18913741   3.291   0.223   2.576  0.2103 -0.7076  0.6256
   57MOL   H19013742   3.389   0.122   2.467  2.3974  1.5312 -0.7189
   57MOL   H19113743   3.592   0.192   2.623 -0.2775  0.9944  1.9725
   57MOL   H19213744   3.538   0.311   2.492  0.7323 -1.5839 -0.8150
   57MOL   H19313745   3.510   0.339   2.660  1.5083 -0.1294  0.0938
   57MOL   C19413746   3.248   7.672   2.667 -0.2109 -0.1433 -0.8545
   57MOL   C19513747   3.199   7.600   2.538  0.1326  0.0445  0.3693
   57MOL   C19613748   3.314   7.521   2.465 -0.1563  0.1809 -0.3658
   57MOL   C19713749   3.286   7.428   2.343 -0.9481  0.0452 -0.0143
   57MOL   H19813750   3.167   0.026   2.707  0.4314 -0.2527  0.6565
   57MOL   H19913751   3.266   7.594   2.742  0.9627  1.2681  0.3580
   57MOL   H20013752   3.129   7.528   2.579 -0.9418  1.2250  0.6393
   57MOL   H20113753   3.366   7.456   2.534  0.2421  1.5401  0.6417
   57MOL   H20213754   3.393   7.588   2.431  1.8225 -1.9255  0.0035
   57MOL   H20313755   3.263   7.485   2.253 -1.8493  1.0499  0.8299
   57MOL   H20413756   3.381   7.380   2.323  1.3892  4.1472  0.5725
   57MOL   H20513757   3.207   7.357   2.368  0.4540 -0.3738  3.4482
   57MOL   C20613758   3.132   7.701   2.448 -0.4500 -0.4756 -0.2448
   57MOL   C20713759   3.007   7.642   2.374  0.6164 -0.6097 -0.6165
   57MOL   C20813760   2.968   0.033   2.261 -0.5909 -0.2127  0.1591
   57MOL   C20913761   3.046   0.015   2.132  0.5625  0.7652 -0.3092
   57MOL   H21013762   3.201   0.035   2.374 -0.0519  1.0798  0.9308
   57MOL   H21113763   3.091   0.078   2.506  1.9908 -0.2264  1.1933
   57MOL   H21213764   3.036   7.542   2.341 -0.4327 -0.7548 -1.0921
   57MOL   H21313765   2.985   0.135   2.295 -0.5539  0.1816 -1.0154
   57MOL   H21413766   2.860   0.027   2.246 -0.4405 -2.5297 -0.2192
   57MOL   H21513767   3.034   7.616   2.102  0.1596  0.8896 -0.5850
   57MOL   H21613768   3.002   0.074   2.052  1.7001  1.8915 -0.1111
   57MOL   H21713769   3.153   0.035   2.136  0.4439  1.0073  2.1393
   57MOL   C21813770   2.887   7.627   2.460 -0.7662  0.0061  0.3733
   57MOL   C21913771   2.770   7.540   2.406 -0.2916  0.3230  0.0207
   57MOL   C22013772   2.633   7.618   2.419  0.1251  0.1340  0.2131
   57MOL   C22113773   2.593   7.657   2.566  0.3059 -0.5322  0.3979
   57MOL   H22213774   2.853   0.022   2.479 -2.6562 -0.8364  1.5979
   57MOL   H22313775   2.927   7.594   2.556  0.5166 -2.7879 -1.0593
   57MOL   H22413776   2.787   7.517   2.301 -0.0506 -2.1361  0.5747
   57MOL   H22513777   2.547   7.562   2.381 -0.9797  1.5968  0.5182
   57MOL   H22613778   2.631   0.009   2.368  0.6879  0.0177 -0.0296
   57MOL   H22713779   2.510   0.021   2.569 -0.5041 -1.4934  0.6522
   57MOL   H22813780   2.562   7.570   2.622 -2.1522  0.0646  0.0050
   57MOL   H22913781   2.678   0.001   2.614 -0.2127 -0.5132  1.2864
   57MOL   C23013782   2.764   7.402   2.476  0.6316 -0.7310  0.4575
   57MOL   C23113783   2.873   7.306   2.427 -0.0259  0.1923  0.4483
   57MOL   C23213784   2.853   7.254   2.288  0.1782  0.2878 -0.8333
   57MOL   C23313785   2.969   7.158   2.241 -0.6121  0.6356  0.3378
   57MOL   H23413786   2.664   7.358   2.476  1.4330 -2.6227  0.5223
   57MOL   H23513787   2.781   7.409   2.583 -1.4962 -1.1221  0.8470
   57MOL   H23613788   2.974   7.347   2.436  0.3437 -0.3673 -0.9767
   57MOL   H23713789   2.856   7.332   2.212  1.1989  0.1774 -0.9074
   57MOL   H23813790   2.754   7.207   2.281  1.4943 -2.4237 -2.1745
   57MOL   H23913791   2.963   7.147   2.132 -0.2363 -0.3616  0.4100
   57MOL   H24013792   3.064   7.209   2.254 -0.2845 -0.3395  1.9134
   57MOL   H24113793   2.974   7.055   2.277 -2.4180  0.0745 -0.9312
   57MOL   H24213794   2.856   7.226   2.499 -0.6205 -0.3587 -0.3039
   58MOL     C113795   4.645   4.373   3.164 -0.1915 -0.0446 -0.6075
   58MOL     C213796   4.588   4.229   3.154  0.5811 -0.1404 -0.1381
   58MOL     C313797   4.466   4.227   3.061  0.3869  0.0954  0.4107
   58MOL     C413798   4.496   4.263   2.920 -0.6991  0.4496  0.2783
   58MOL     H513799   4.725   4.374   3.239 -2.5208  3.3365  1.9609
   58MOL     H613800   4.685   4.407   3.069 -1.3136  0.9875 -0.7197
   58MOL     H713801   4.668   4.162   3.121  1.7300  0.9855  0.2799
   58MOL     H813802   4.394   4.297   3.104 -2.1946 -0.6974 -2.4029
   58MOL     H913803   4.405   4.137   3.069  1.0755 -0.6540 -2.4503
   58MOL    H1013804   4.557   4.353   2.913 -1.6717  0.9682 -1.9597
   58MOL    H1113805   4.546   4.176   2.876 -1.1440 -1.1221  2.7539
   58MOL    H1213806   4.402   4.272   2.866 -1.0387 -1.1776  0.5465
   58MOL    H1313807   4.583   4.450   3.210 -1.0087 -0.5797 -0.8183
   58MOL    C1413808   4.560   4.179   3.302  0.0183 -0.2660 -0.2589
   58MOL    C1513809   4.520   4.031   3.324  0.1382  0.2833 -0.0808
   58MOL    C1613810   4.493   4.004   3.470  0.4042  0.1415 -0.0080
   58MOL    C1713811   4.360   4.057   3.520  0.5682 -0.6057  0.3204
   58MOL    H1813812   4.485   4.245   3.345 -0.2439 -0.5514 -0.2743
   58MOL    H1913813   4.647   4.195   3.366 -1.2012  2.1117  0.8551
   58MOL    H2013814   4.427   4.008   3.271  0.2732 -0.0341 -0.1783
   58MOL    H2113815   4.580   4.028   3.530  0.2935  1.0381 -0.2049
   58MOL    H2213816   4.472   3.897   3.478 -0.9677  0.4414  0.6680
   58MOL    H2313817   4.361   4.166   3.522 -1.6740 -0.5455 -0.9354
   58MOL    H2413818   4.283   4.032   3.448  2.6182 -0.1150 -2.1537
   58MOL    H2513819   4.342   4.027   3.623  0.2249 -2.3177 -0.2348
   58MOL    C2613820   4.628   3.941   3.254  0.5618  1.1016  0.1788
   58MOL    C2713821   4.630   3.788   3.279  0.2124 -0.6320 -0.1772
   58MOL    C2813822   4.752   3.720   3.214  0.2208  0.4378 -0.8432
   58MOL    C2913823   4.757   3.742   3.063  0.1475 -0.5953  0.1216
   58MOL    H3013824   4.721   3.973   3.303  1.9009 -0.6955 -1.1296
   58MOL    H3113825   4.641   3.956   3.147 -0.8468  0.0855 -0.1440
   58MOL    H3213826   4.654   3.776   3.385 -0.9656  0.1600  0.1888
   58MOL    H3313827   4.752   3.612   3.227 -1.6662  0.3748 -1.2193
   58MOL    H3413828   4.846   3.746   3.264  0.3529 -0.1931 -0.7602
   58MOL    H3513829   4.775   3.655   3.000 -0.4750 -0.8113  0.2398
   58MOL    H3613830   4.673   3.798   3.024  0.3865  0.8967  1.7029
   58MOL    H3713831   4.839   3.809   3.039 -0.4256 -0.2373 -0.8469
   58MOL    C3813832   4.496   3.715   3.240  0.1165 -0.2243 -0.5164
   58MOL    C3913833   4.489   3.563   3.283  0.4534  0.5525 -0.5705
   58MOL    C4013834   4.522   3.458   3.180 -0.1272  0.0149 -0.0578
   58MOL    C4113835   4.417   3.426   3.072 -0.3532  1.1775  0.1839
   58MOL    H4213836   4.462   3.723   3.137 -2.1285  0.3983  0.2435
   58MOL    H4313837   4.405   3.761   3.277  1.6195  3.4112 -1.0928
   58MOL    H4413838   4.574   3.567   3.351 -0.6386  1.9607  0.7571
   58MOL    H4513839   4.556   3.368   3.232  2.0994  1.4239  0.9743
   58MOL    H4613840   4.606   3.492   3.119 -0.0269 -0.3287 -0.1139
   58MOL    H4713841   4.381   3.510   3.012  0.5218  0.0031 -2.0142
   58MOL    H4813842   4.439   3.346   3.002 -3.6711  1.1369 -0.9136
   58MOL    H4913843   4.335   3.383   3.130  1.0990  1.3542  2.4591
   58MOL    C5013844   4.356   3.537   3.349 -0.1939  0.6820  0.3763
   58MOL    C5113845   4.340   3.612   3.489  0.0424 -0.2288 -0.4377
   58MOL    C5213846   4.455   3.569   3.586 -0.1599  0.7550  0.2018
   58MOL    C5313847   4.478   3.418   3.607 -0.2378  0.2449  1.2377
   58MOL    H5413848   4.344   3.432   3.377  2.1538  0.3562  0.2531
   58MOL    H5513849   4.283   3.564   3.273  0.1305  0.8399  0.1220
   58MOL    H5613850   4.369   3.715   3.468  1.4852 -0.6325 -0.5135
   58MOL    H5713851   4.449   3.623   3.680 -2.3457 -2.2573  1.8626
   58MOL    H5813852   4.553   3.601   3.550  0.8907 -0.8020  1.5750
   58MOL    H5913853   4.489   3.343   3.529 -0.8656 -0.9245  2.2618
   58MOL    H6013854   4.567   3.410   3.670  0.2084  0.6860  0.6693
   58MOL    H6113855   4.395   3.387   3.671 -0.9572  1.5459  0.9631
   58MOL    C6213856   4.201   3.629   3.543 -1.0183  0.1973  0.5845
   58MOL    C6313857   4.165   3.755   3.618  0.3500 -0.0029  0.1337
   58MOL    C6413858   4.225   3.775   3.764  0.3651  0.0148  0.5755
   58MOL    C6513859   4.200   3.664   3.866 -0.0060 -0.2655  0.7654
   58MOL    H6613860   4.171   3.539   3.598 -2.2980 -0.0653 -0.5061
   58MOL    H6713861   4.135   3.623   3.456  0.3856  0.1881 -0.4865
   58MOL    H6813862   4.205   3.838   3.560  1.4269 -0.0317  0.8218
   58MOL    H6913863   4.199   3.872   3.806  2.2026 -0.1871  2.2530
   58MOL    H7013864   4.331   3.799   3.756  0.7751 -1.4411  1.4273
   58MOL    H7113865   4.244   3.575   3.820 -0.2804  0.6356 -1.3065
   58MOL    H7213866   4.244   3.686   3.963 -2.0681  2.1725  1.1932
   58MOL    H7313867   4.094   3.661   3.891 -0.3712  3.8169 -0.0095
   58MOL    C7413868   4.013   3.766   3.620 -0.1017 -0.1221 -0.0556
   58MOL    C7513869   3.948   3.894   3.682 -0.6963  0.6066 -0.0621
   58MOL    C7613870   3.793   3.869   3.694 -0.3691  0.5011 -0.2696
   58MOL    C7713871   3.706   3.862   3.565  0.0389  0.4754  0.7484
   58MOL    H7813872   3.976   3.681   3.677 -1.4748  0.1377 -0.5407
   58MOL    H7913873   3.971   3.756   3.520 -0.8390  0.8000  0.1580
   58MOL    H8013874   3.980   3.907   3.785  2.3939  1.1755 -1.0484
   58MOL    H8113875   3.751   3.947   3.758 -0.8563  0.7062 -0.8345
   58MOL    H8213876   3.770   3.772   3.739  3.1183  0.0613  0.6918
   58MOL    H8313877   3.683   3.763   3.526 -2.1646  1.3819 -0.3216
   58MOL    H8413878   3.612   3.912   3.588  0.1241  0.0398  2.0723
   58MOL    H8513879   3.769   3.911   3.491  1.2026 -1.4429  0.4192
   58MOL    C8613880   3.997   4.026   3.628  0.0380  0.5690 -1.1113
   58MOL    C8713881   3.928   4.166   3.673  0.2090 -0.1548  0.7594
   58MOL    C8813882   3.995   4.283   3.593  0.8618 -0.2464  0.6436
   58MOL    C8913883   3.943   4.284   3.450  0.3463 -0.1782  0.3163
   58MOL    H9013884   3.990   4.019   3.520 -0.5109 -2.3799 -0.9316
   58MOL    H9113885   4.103   4.046   3.645  0.1491 -1.1969  0.4716
   58MOL    H9213886   3.824   4.164   3.641 -0.0014  1.4071  1.3226
   58MOL    H9313887   4.103   4.272   3.585  0.7974  0.1026 -0.8608
   58MOL    H9413888   3.976   4.378   3.644 -2.0050 -0.7506  0.5888
   58MOL    H9513889   3.890   4.199   3.409 -0.8899  1.7831 -2.3211
   58MOL    H9613890   3.865   4.359   3.435 -0.0410 -0.6807 -0.2018
   58MOL    H9713891   4.024   4.305   3.379 -1.4576  1.9786 -1.1780
   58MOL    C9813892   3.938   4.183   3.829  0.2831  0.1973 -0.4736
   58MOL    C9913893   3.843   4.290   3.889  0.0127 -0.2625 -1.3994
   58MOL   C10013894   3.888   4.329   4.037  0.0477 -0.3594  0.3931
   58MOL   C10113895   4.022   4.405   4.048  0.1934  0.0446  0.2743
   58MOL   H10213896   4.043   4.209   3.846  0.1923 -0.7770  1.6285
   58MOL   H10313897   3.921   4.093   3.887  3.2919 -0.5450 -0.6167
   58MOL   H10413898   3.842   4.379   3.826 -2.7673  1.8227  1.4376
   58MOL   H10513899   3.893   4.233   4.089 -1.1692 -0.6358  0.0150
   58MOL   H10613900   3.819   4.393   4.092  3.0991  2.2898  1.2879
   58MOL   H10713901   4.110   4.345   4.024  0.8070  1.1296 -0.2308
   58MOL   H10813902   4.029   4.484   3.974  2.1141  0.4100  0.8142
   58MOL   H10913903   4.035   4.452   4.145  0.8946 -0.6122  0.5070
   58MOL   C11013904   3.692   4.234   3.876  0.2489 -0.6064  0.2164
   58MOL   C11113905   3.569   4.320   3.916  0.0036  0.3201 -1.1049
   58MOL   C11213906   3.437   4.236   3.917  0.5698  0.9703  0.5718
   58MOL   C11313907   3.394   4.184   3.777  0.0040 -0.3675 -0.5729
   58MOL   H11413908   3.678   4.142   3.934 -0.6530 -0.6558 -0.0754
   58MOL   H11513909   3.664   4.203   3.775  0.0499  0.2612  0.0050
   58MOL   H11613910   3.583   4.354   4.018 -1.2979 -1.7837 -0.1828
   58MOL   H11713911   3.352   4.297   3.948  0.7392  0.6606  1.6762
   58MOL   H11813912   3.443   4.154   3.988  0.2831  1.3725  1.0653
   58MOL   H11913913   3.311   4.114   3.787  0.6633 -1.1078 -0.1849
   58MOL   H12013914   3.363   4.254   3.699 -0.6593 -1.9834 -1.7808
   58MOL   H12113915   3.475   4.127   3.732 -1.4307 -1.4132 -1.8525
   58MOL   C12213916   3.556   4.440   3.815 -0.1498  0.1139 -0.1054
   58MOL   C12313917   3.427   4.527   3.833 -0.2508 -0.0902 -0.2082
   58MOL   C12413918   3.421   4.639   3.729  0.0847  0.1522 -0.2154
   58MOL   C12513919   3.432   4.597   3.588 -0.0197 -0.2413  0.7964
   58MOL   H12613920   3.557   4.406   3.711 -1.3617  0.7031 -0.3206
   58MOL   H12713921   3.646   4.503   3.812  0.1380 -0.2770  0.3982
   58MOL   H12813922   3.345   4.460   3.809  1.1487 -2.3753  1.2843
   58MOL   H12913923   3.501   4.712   3.741  0.1098  0.0349  0.3267
   58MOL   H13013924   3.332   4.701   3.740 -0.2620 -0.0515 -1.7905
   58MOL   H13113925   3.415   4.675   3.513 -2.0500 -0.0355  1.4202
   58MOL   H13213926   3.528   4.559   3.555 -0.2594 -0.5541  0.4533
   58MOL   H13313927   3.349   4.529   3.566 -2.6878  2.4886  2.0294
   58MOL   C13413928   3.419   4.586   3.970  0.5228 -0.1026 -0.3054
   58MOL   C13513929   3.283   4.638   4.005  0.6935  0.5268  0.5859
   58MOL   C13613930   3.287   4.748   4.115 -0.4224 -0.9498  0.6395
   58MOL   C13713931   3.332   4.890   4.066  0.2505  0.6032  0.2169
   58MOL   H13813932   3.495   4.663   3.988  0.4854 -0.5654  2.0602
   58MOL   H13913933   3.442   4.508   4.043  0.2130 -0.6948 -0.8391
   58MOL   H14013934   3.240   4.685   3.916  0.2643 -1.1053 -0.0874
   58MOL   H14113935   3.347   4.725   4.203  2.2071 -2.0499 -1.3668
   58MOL   H14213936   3.183   4.757   4.146 -1.2405 -1.9031 -1.7007
   58MOL   H14313937   3.255   4.926   3.998 -0.5075 -0.3191  0.5646
   58MOL   H14413938   3.333   4.964   4.145 -1.5666 -0.2245  1.0451
   58MOL   H14513939   3.432   4.893   4.023  0.0764  2.8470 -0.0943
   58MOL   C14613940   3.193   4.527   4.051  0.0442  0.0199 -0.6285
   58MOL   C14713941   3.039   4.556   4.049  0.2177 -0.2065 -0.1595
   58MOL   C14813942   2.973   4.456   4.149 -0.2914  1.0827 -0.8137
   58MOL   C14913943   2.996   4.306   4.130 -0.2701  0.1365 -0.1449
   58MOL   H15013944   3.225   4.502   4.152  1.1851  1.2726 -0.6702
   58MOL   H15113945   3.218   4.451   3.977  1.1467  1.0332 -1.2980
   58MOL   H15213946   3.012   4.652   4.093 -0.4947  0.5527 -2.1961
   58MOL   H15313947   2.867   4.480   4.146 -0.1569  1.7491 -0.0531
   58MOL   H15413948   3.006   4.475   4.251 -0.1542 -1.1809 -0.4071
   58MOL   H15513949   3.103   4.291   4.122 -0.5991 -1.6622 -1.3375
   58MOL   H15613950   2.973   4.266   4.229  0.7665 -0.1175 -0.0033
   58MOL   H15713951   2.952   4.257   4.043 -0.0315 -0.6004  0.1448
   58MOL   C15813952   2.980   4.553   3.904  0.7311 -0.1733  0.7156
   58MOL   C15913953   2.868   4.665   3.867 -0.0112  0.0699  0.1923
   58MOL   C16013954   2.745   4.675   3.962  0.4247  0.1586 -0.5411
   58MOL   C16113955   2.643   4.549   3.969 -0.3924 -0.0019 -0.0505
   58MOL   H16213956   2.953   4.454   3.868 -1.4643  1.2196 -1.5944
   58MOL   H16313957   3.061   4.580   3.836 -0.4598  0.9022 -0.3088
   58MOL   H16413958   2.928   4.755   3.877  1.3043 -0.7265 -0.3786
   58MOL   H16513959   2.690   4.753   3.910 -0.0135  0.2063 -0.0079
   58MOL   H16613960   2.772   4.696   4.065  0.6386  1.2414 -0.8156
   58MOL   H16713961   2.601   4.528   3.870 -0.8423 -2.9602  0.7261
   58MOL   H16813962   2.697   4.457   3.993 -0.1638 -0.6979 -3.0022
   58MOL   H16913963   2.563   4.565   4.041 -1.2438 -3.7519 -0.0287
   58MOL   C17013964   2.821   4.649   3.726 -0.3147 -0.0894 -0.2757
   58MOL   C17113965   2.922   4.660   3.611 -0.0423  0.4045 -0.5216
   58MOL   C17213966   3.007   4.786   3.627  0.2145 -0.7911 -0.5265
   58MOL   C17313967   3.108   4.823   3.525 -0.4975  0.3947  0.0627
   58MOL   H17413968   2.741   4.721   3.707 -0.7857 -1.3055 -3.2986
   58MOL   H17513969   2.759   4.560   3.712 -1.6448  0.8729 -0.5929
   58MOL   H17613970   3.004   4.589   3.617  0.0165  0.4216 -1.0703
   58MOL   H17713971   3.061   4.772   3.720 -1.2251 -0.3462  0.3888
   58MOL   H17813972   2.936   4.868   3.641  1.7799  0.4317  0.3781
   58MOL   H17913973   3.157   4.916   3.553  1.5371 -0.2971 -1.0221
   58MOL   H18013974   3.187   4.750   3.506 -0.5706  0.0856  0.9238
   58MOL   H18113975   3.072   4.845   3.425 -1.6703  0.2832  0.4594
   58MOL   C18213976   2.842   4.663   3.481  0.2716  0.6912  0.1665
   58MOL   C18313977   2.778   4.524   3.433 -0.5677  0.4570 -0.2043
   58MOL   C18413978   2.887   4.424   3.395 -0.4038  0.0962 -0.3974
   58MOL   C18513979   2.851   4.275   3.401  0.2598 -0.4840  0.2282
   58MOL   H18613980   2.913   4.694   3.404 -0.0310 -0.5955 -0.6275
   58MOL   H18713981   2.763   4.738   3.494 -1.3514 -1.4048  2.7635
   58MOL   H18813982   2.723   4.469   3.510  1.4649  0.5928  1.3716
   58MOL   H18913983   2.961   4.430   3.474  0.3321 -0.5239 -1.0305
   58MOL   H19013984   2.930   4.448   3.297  0.5560 -0.2033 -0.0554
   58MOL   H19113985   2.797   4.255   3.309 -2.4667 -0.2291  1.7295
   58MOL   H19213986   2.938   4.210   3.410  0.3278 -0.8103 -2.4042
   58MOL   H19313987   2.785   4.257   3.485  0.9337  0.0602  0.8874
   58MOL   C19413988   2.676   4.551   3.320  0.2546  0.5675 -0.4904
   58MOL   C19513989   2.528   4.579   3.350 -0.3283  0.0227  0.0240
   58MOL   C19613990   2.448   4.600   3.224 -1.1666  0.1794 -0.3572
   58MOL   C19713991   2.426   4.473   3.140 -0.5961  1.2297  0.0710
   58MOL   H19813992   2.667   4.453   3.274 -0.4512  0.0314  0.7465
   58MOL   H19913993   2.718   4.617   3.244 -0.5232  1.4639 -0.1625
   58MOL   H20013994   2.486   4.488   3.394  2.0208 -0.6134  1.0516
   58MOL   H20113995   2.502   4.676   3.167 -0.6548 -0.9543 -1.4159
   58MOL   H20213996   2.350   4.634   3.258 -0.5048  0.2873  1.4564
   58MOL   H20313997   2.359   4.402   3.188 -1.0331  0.5677 -1.5051
   58MOL   H20413998   2.385   4.505   3.044  1.6225  1.1168 -0.9508
   58MOL   H20513999   2.517   4.419   3.113 -1.1866 -0.5180  1.5188
   58MOL   C20614000   2.505   4.683   3.469 -0.5735 -0.4148 -0.1313
   58MOL   C20714001   2.365   4.699   3.529 -0.3306  0.1249  0.3945
   58MOL   C20814002   2.357   4.799   3.653  1.0570 -0.2723  0.6260
   58MOL   C20914003   2.382   4.943   3.606 -0.4948  0.5776 -0.0848
   58MOL   H21014004   2.545   4.774   3.426 -1.1007  0.1542  0.5687
   58MOL   H21114005   2.565   4.655   3.556 -0.0620  0.1086 -0.3166
   58MOL   H21214006   2.309   4.746   3.448  1.7649  0.8307 -0.6954
   58MOL   H21314007   2.403   4.776   3.749 -1.1259  0.8402  1.9738
   58MOL   H21414008   2.252   4.811   3.679  0.9185 -1.5448  0.6600
   58MOL   H21514009   2.329   4.962   3.513 -1.3800 -0.7526  0.1403
   58MOL   H21614010   2.352   5.006   3.690 -1.2797  0.5612 -0.3545
   58MOL   H21714011   2.487   4.965   3.588  0.2151 -1.0628  1.8096
   58MOL   C21814012   2.297   4.559   3.550 -0.1923 -0.4038  0.7584
   58MOL   C21914013   2.160   4.558   3.631  0.4325  0.6314  0.3577
   58MOL   C22014014   2.159   4.445   3.737 -0.4093 -0.9761  0.1173
   58MOL   C22114015   2.256   4.481   3.845  0.1745 -0.8065  0.1302
   58MOL   H22214016   2.374   4.502   3.602  1.2644  0.2016 -0.6842
   58MOL   H22314017   2.281   4.499   3.460  0.5440  0.0274  0.3360
   58MOL   H22414018   2.137   4.655   3.674 -1.3470  0.6982 -0.7136
   58MOL   H22514019   2.188   4.356   3.682  0.4132  0.4926 -1.9331
   58MOL   H22614020   2.062   4.425   3.782 -0.8337 -1.5087 -1.0203
   58MOL   H22714021   2.216   4.460   3.944  0.0957  0.1857  0.3047
   58MOL   H22814022   2.343   4.417   3.827 -1.4868 -2.0518 -4.0112
   58MOL   H22914023   2.298   4.581   3.836  1.0580 -1.3323 -1.9682
   58MOL   C23014024   2.045   4.535   3.527  0.0663  0.4144 -0.1550
   58MOL   C23114025   1.982   4.645   3.439  0.6621  0.3815  0.3473
   58MOL   C23214026   1.843   4.597   3.396 -0.0591 -0.1623 -0.3616
   58MOL   C23314027   1.772   4.678   3.290  0.2461  0.5711  0.1592
   58MOL   H23414028   1.961   4.512   3.592  2.0068 -2.0081  1.5641
   58MOL   H23514029   2.079   4.446   3.474  3.1985  0.9285  0.9163
   58MOL   H23614030   1.976   4.737   3.497  1.1486 -0.4641  1.7667
   58MOL   H23714031   1.776   4.591   3.482 -2.3690  0.4233 -2.0853
   58MOL   H23814032   1.846   4.495   3.356 -2.0911 -0.9933  1.5019
   58MOL   H23914033   1.826   4.665   3.196 -0.6519  1.2428 -0.4538
   58MOL   H24014034   1.676   4.628   3.282  0.2354  0.4003  1.3102
   58MOL   H24114035   1.767   4.784   3.317  0.2155  0.9459 -1.2559
   58MOL   H24214036   2.042   4.665   3.349  1.1051  2.2510  1.0300
   59MOL     C114037   4.452   5.572   3.820 -0.0221  0.7185  0.4072
   59MOL     C214038   4.330   5.497   3.762 -0.4614 -0.1514 -0.7774
   59MOL     C314039   4.336   5.492   3.610  0.0540 -0.4003  0.1357
   59MOL     C414040   4.448   5.404   3.548 -0.1030  0.3404 -0.5015
   59MOL     H514041   4.457   5.577   3.929  0.5179 -1.1232  0.4724
   59MOL     H614042   4.549   5.535   3.788 -0.1718 -1.1483  2.0393
   59MOL     H714043   4.322   5.393   3.792 -1.0259 -0.6941 -2.7027
   59MOL     H814044   4.353   5.591   3.568  0.3992 -0.5721 -0.1393
   59MOL     H914045   4.242   5.449   3.576  0.6693 -1.5368 -0.1654
   59MOL    H1014046   4.453   5.407   3.439 -2.7569  1.9840 -0.5997
   59MOL    H1114047   4.547   5.436   3.582 -0.5196  1.2141 -0.0984
   59MOL    H1214048   4.445   5.303   3.588  1.3186  0.2763 -0.5315
   59MOL    H1314049   4.454   5.670   3.771  0.6150 -0.0957 -1.2445
   59MOL    C1414050   4.197   5.572   3.801 -0.2610 -0.1040  0.5283
   59MOL    C1514051   4.164   5.586   3.955 -0.7267  0.0346 -0.4444
   59MOL    C1614052   4.165   5.444   4.021 -0.5359  0.0395  0.1210
   59MOL    C1714053   4.119   5.448   4.169 -0.0960  0.4445 -0.0135
   59MOL    H1814054   4.117   5.515   3.755  0.1928 -0.3600  0.0533
   59MOL    H1914055   4.199   5.661   3.738  0.5161 -0.9441 -0.6606
   59MOL    H2014056   4.249   5.640   3.997  0.2255 -1.5796 -0.2546
   59MOL    H2114057   4.267   5.405   4.013 -0.5739 -0.1413  0.4926
   59MOL    H2214058   4.111   5.368   3.964  0.5089  0.1519 -1.0285
   59MOL    H2314059   4.146   5.354   4.217 -0.4273  0.4118  0.1101
   59MOL    H2414060   4.175   5.521   4.227 -0.8743  2.2661 -1.4798
   59MOL    H2514061   4.014   5.471   4.185  0.2987  2.1977  0.1095
   59MOL    C2614062   4.033   5.663   3.967  0.0305  0.4032 -0.0739
   59MOL    C2714063   4.025   5.812   3.913  0.2827  0.3238  0.6727
   59MOL    C2814064   4.149   5.899   3.969 -0.1998 -0.9200 -0.1795
   59MOL    C2914065   4.147   6.045   3.931 -0.5408 -0.5849 -0.2321
   59MOL    H3014066   3.997   5.670   4.070 -0.4726  0.3273 -0.2434
   59MOL    H3114067   3.956   5.606   3.915  1.8054 -1.3406 -0.8123
   59MOL    H3214068   4.015   5.794   3.806  0.0386 -2.4461  1.1184
   59MOL    H3314069   4.245   5.867   3.928 -0.3485 -0.8042 -0.6258
   59MOL    H3414070   4.157   5.898   4.077 -1.9123 -3.2132 -0.0391
   59MOL    H3514071   4.216   6.096   3.998 -1.3683 -0.8152  0.8165
   59MOL    H3614072   4.169   6.063   3.826 -1.3757  0.4932 -0.2386
   59MOL    H3714073   4.048   6.090   3.939 -1.5909 -3.1023  1.6125
   59MOL    C3814074   3.896   5.876   3.962 -0.1081 -0.1379  0.3392
   59MOL    C3914075   3.759   5.803   3.954  0.2869 -0.7476 -0.2847
   59MOL    C4014076   3.723   5.756   3.807  0.0460 -0.5179 -0.4202
   59MOL    C4114077   3.690   5.863   3.706  0.4335 -0.2052  0.1836
   59MOL    H4214078   3.892   5.973   3.913 -0.3141 -1.2450 -1.8923
   59MOL    H4314079   3.904   5.911   4.065  1.1876 -1.7284  0.7930
   59MOL    H4414080   3.771   5.713   4.014 -2.4799 -1.4561 -0.7192
   59MOL    H4514081   3.634   5.694   3.813  0.3291 -1.2419 -2.9085
   59MOL    H4614082   3.805   5.696   3.766 -0.9130 -0.5359 -2.3529
   59MOL    H4714083   3.684   5.816   3.608  2.5459  0.6104 -0.3675
   59MOL    H4814084   3.606   5.931   3.719 -1.6209 -2.2161 -2.0978
   59MOL    H4914085   3.780   5.923   3.694  1.0069 -1.3592 -1.5144
   59MOL    C5014086   3.642   5.878   4.019 -0.8342 -0.2513 -0.0894
   59MOL    C5114087   3.642   5.881   4.172 -0.2452  0.4450 -0.5101
   59MOL    C5214088   3.611   5.728   4.221 -0.6978  0.3250 -0.7124
   59MOL    C5314089   3.484   5.667   4.162  0.1693  0.5209 -0.0426
   59MOL    H5414090   3.546   5.857   3.970 -1.0567 -0.2086  0.3265
   59MOL    H5514091   3.651   5.984   3.996 -1.9611  0.0408  0.7768
   59MOL    H5614092   3.744   5.909   4.196 -0.9004  1.8913  0.6991
   59MOL    H5714093   3.596   5.725   4.329 -0.4749  1.5753 -0.6373
   59MOL    H5814094   3.693   5.657   4.210  0.1734  0.4827  3.6708
   59MOL    H5914095   3.398   5.734   4.162 -0.8199 -0.7430  0.4542
   59MOL    H6014096   3.511   5.641   4.060 -1.5970 -0.9094 -0.1500
   59MOL    H6114097   3.459   5.573   4.211  1.2372 -0.1169 -0.7041
   59MOL    C6214098   3.547   5.991   4.235 -0.2832  0.8300 -0.1821
   59MOL    C6314099   3.496   5.968   4.384  0.3295  0.6636 -1.0294
   59MOL    C6414100   3.360   6.034   4.397  0.4573 -0.8133  0.3070
   59MOL    C6514101   3.300   6.020   4.542  0.4583  0.1858  0.4616
   59MOL    H6614102   3.470   5.989   4.158 -1.4187 -0.9148  0.9573
   59MOL    H6714103   3.598   6.088   4.229  0.6369  0.3902  0.5237
   59MOL    H6814104   3.474   5.863   4.403  0.0103  1.0081  0.5694
   59MOL    H6914105   3.282   5.991   4.333  0.3280  0.9443 -0.7542
   59MOL    H7014106   3.357   6.140   4.375 -1.6449 -1.1191 -1.0443
   59MOL    H7114107   3.316   5.919   4.582 -2.0357  0.4503  2.2096
   59MOL    H7214108   3.345   6.082   4.619  2.7060  0.0228 -0.6665
   59MOL    H7314109   3.195   6.048   4.540  0.6222  0.8200  0.8307
   59MOL    C7414110   3.604   5.999   4.494 -0.4568 -0.4377 -0.4461
   59MOL    C7514111   3.670   5.881   4.574  0.0675 -0.8282  0.1264
   59MOL    C7614112   3.595   5.841   4.702  0.5069  0.7945  0.8571
   59MOL    C7714113   3.620   5.697   4.747 -0.8066 -0.3850  0.2695
   59MOL    H7814114   3.559   6.064   4.569 -0.1393  1.0861 -1.5493
   59MOL    H7914115   3.687   6.060   4.458 -0.4289 -0.0005  0.3511
   59MOL    H8014116   3.688   5.790   4.518 -2.3801 -1.6628  0.6345
   59MOL    H8114117   3.489   5.837   4.678  0.7693  2.7501 -0.7377
   59MOL    H8214118   3.608   5.919   4.776 -0.0237  1.2455  0.4744
   59MOL    H8314119   3.717   5.699   4.796 -0.6554  3.0686 -0.0525
   59MOL    H8414120   3.546   5.671   4.822 -1.4204 -0.4779 -0.3607
   59MOL    H8514121   3.604   5.616   4.675 -0.0110  1.0617 -1.5822
   59MOL    C8614122   3.813   5.924   4.621 -0.1243  0.1682  0.3959
   59MOL    C8714123   3.928   5.951   4.517 -0.8764  0.1245 -0.3097
   59MOL    C8814124   3.973   5.825   4.443  0.1001 -0.1527 -0.4592
   59MOL    C8914125   4.079   5.841   4.336  0.2907 -0.1055  0.6593
   59MOL    H9014126   3.855   5.854   4.693  0.4879 -1.7298 -1.7392
   59MOL    H9114127   3.807   6.011   4.687 -1.7985 -0.2879  0.8764
   59MOL    H9214128   3.901   6.014   4.432  1.7957  1.4763 -0.1776
   59MOL    H9314129   3.886   5.784   4.391  1.0923 -1.4695 -1.1252
   59MOL    H9414130   4.013   5.748   4.509  1.4420 -0.1153 -1.1886
   59MOL    H9514131   4.086   5.750   4.276  0.1197 -1.3075  2.4254
   59MOL    H9614132   4.065   5.935   4.282 -1.3442 -0.9774 -0.4829
   59MOL    H9714133   4.178   5.842   4.381  0.3249 -0.1449  0.5831
   59MOL    C9814134   4.046   6.021   4.589  0.2421 -0.6034 -0.6615
   59MOL    C9914135   4.016   6.157   4.657  0.5744 -0.4839 -0.6092
   59MOL   C10014136   3.944   6.257   4.551 -0.1972  0.0001  0.6541
   59MOL   C10114137   3.907   6.399   4.600  0.8429  0.4840  0.2680
   59MOL   H10214138   4.114   6.046   4.508  1.2092  0.9043  0.6076
   59MOL   H10314139   4.100   5.950   4.651  2.3526  1.1821 -0.3887
   59MOL   H10414140   3.944   6.137   4.736 -0.1442  1.4448 -0.7712
   59MOL   H10514141   3.851   6.210   4.519  0.5793 -0.9924 -0.1996
   59MOL   H10614142   4.009   6.276   4.465 -0.7706 -2.0940 -0.2849
   59MOL   H10714143   3.983   6.473   4.574  0.2342  1.0539  0.1034
   59MOL   H10814144   3.817   6.439   4.553 -0.6718 -2.8071  0.2242
   59MOL   H10914145   3.883   6.403   4.706 -0.9772 -2.4342  0.0206
   59MOL   C11014146   4.146   6.217   4.713 -0.1285  0.7762  0.3238
   59MOL   C11114147   4.175   6.153   4.843  0.3476  0.8127  0.5841
   59MOL   C11214148   4.085   6.199   4.958  0.3113 -0.5238 -0.1283
   59MOL   C11314149   4.114   6.343   5.000 -0.3276 -0.4123  0.1633
   59MOL   H11414150   4.141   6.326   4.722  1.5916  1.0019 -1.2042
   59MOL   H11514151   4.232   6.202   4.647 -0.2419 -2.8931  0.9122
   59MOL   H11614152   4.149   6.049   4.828  0.2995  1.0487 -1.1059
   59MOL   H11714153   4.102   6.147   5.052 -0.1667  1.3074  1.0058
   59MOL   H11814154   3.980   6.174   4.942 -0.1036  0.7056  0.5791
   59MOL   H11914155   4.215   6.377   4.980 -1.2796  2.0161 -0.6145
   59MOL   H12014156   4.059   6.412   4.935  2.1130  2.0252  0.6426
   59MOL   H12114157   4.083   6.370   5.101 -0.0089 -0.7390  0.3481
   59MOL   C12214158   4.327   6.154   4.877 -0.5337  0.7583  0.2600
   59MOL   C12314159   4.373   6.118   5.021  0.1829  0.0749  0.2257
   59MOL   C12414160   4.524   6.150   5.032 -0.5149  0.0375  0.0435
   59MOL   C12514161   4.555   6.298   5.058  0.4522  0.8076 -0.3551
   59MOL   H12614162   4.369   6.254   4.859  1.0529  0.5910  2.7074
   59MOL   H12714163   4.380   6.094   4.804 -0.1923  2.1909 -0.7001
   59MOL   H12814164   4.325   6.186   5.092 -0.1181  1.9662 -1.7191
   59MOL   H12914165   4.578   6.118   4.943 -1.5313 -1.5522 -0.0129
   59MOL   H13014166   4.572   6.088   5.108 -0.7372  0.8222  0.8296
   59MOL   H13114167   4.532   6.366   4.976  0.1957  0.8358 -0.2609
   59MOL   H13214168   4.502   6.331   5.148 -1.1766 -1.3771 -0.4671
   59MOL   H13314169   4.662   6.308   5.075  0.3456 -0.2618  1.1043
   59MOL   C13414170   4.330   5.974   5.054  0.6110 -0.2955 -0.0336
   59MOL   C13514171   4.337   5.929   5.208 -0.4246  0.3613  0.2064
   59MOL   C13614172   4.361   5.773   5.227  0.0419 -0.2583  0.1815
   59MOL   C13714173   4.490   5.723   5.165 -0.3207  0.0124 -0.0408
   59MOL   H13814174   4.403   5.912   5.002  0.9203  0.6914 -0.7881
   59MOL   H13914175   4.230   5.946   5.020  1.2509 -1.5731 -0.8820
   59MOL   H14014176   4.422   5.979   5.254 -0.6427  0.7528  0.1856
   59MOL   H14114177   4.276   5.717   5.189 -0.8116  0.9134  0.3448
   59MOL   H14214178   4.358   5.753   5.334  1.4571 -4.3128 -0.4445
   59MOL   H14314179   4.576   5.789   5.173  0.5405 -1.1453  0.4544
   59MOL   H14414180   4.522   5.630   5.212  2.5349  1.5176  1.0932
   59MOL   H14514181   4.473   5.692   5.062 -0.1110 -0.4766  0.0734
   59MOL   C14614182   4.201   5.957   5.274  0.0002  0.5402  0.0185
   59MOL   C14714183   4.185   5.967   5.430 -0.3434  0.1417  0.1074
   59MOL   C14814184   4.045   6.027   5.461 -0.5645 -0.0735  0.2310
   59MOL   C14914185   4.040   6.177   5.432 -0.3724 -0.9262  0.2205
   59MOL   H15014186   4.129   5.890   5.228  1.0534 -1.2730  0.9775
   59MOL   H15114187   4.183   6.057   5.233 -3.5118 -0.6575 -1.6214
   59MOL   H15214188   4.186   5.866   5.471 -1.4544 -0.0031 -0.2350
   59MOL   H15314189   4.022   6.009   5.566  2.0070 -2.1831  0.4879
   59MOL   H15414190   3.975   5.979   5.393 -0.6853  2.2175 -1.3352
   59MOL   H15514191   4.046   6.181   5.323 -0.1357  2.2280  0.3191
   59MOL   H15614192   3.949   6.229   5.461  1.0297  0.8291  1.5439
   59MOL   H15714193   4.121   6.235   5.474 -1.9694  2.7724 -1.6071
   59MOL   C15814194   4.299   6.046   5.505  0.6699  0.3289 -0.5156
   59MOL   C15914195   4.276   6.072   5.657  0.6173 -0.6426 -0.2122
   59MOL   C16014196   4.391   6.154   5.709  0.3557  0.2259 -0.2127
   59MOL   C16114197   4.381   6.306   5.678 -0.4933  0.6695  0.3230
   59MOL   H16214198   4.331   6.142   5.464 -1.2410  0.4724 -1.7533
   59MOL   H16314199   4.392   5.990   5.497  0.5794  0.2216 -0.8186
   59MOL   H16414200   4.184   6.128   5.674  1.7329  0.4630  2.3997
   59MOL   H16514201   4.482   6.107   5.670 -0.4756 -1.9019  0.3529
   59MOL   H16614202   4.397   6.149   5.818  1.2296 -0.7859 -0.2994
   59MOL   H16714203   4.344   6.326   5.577  1.3541  1.2834 -0.2542
   59MOL   H16814204   4.341   6.362   5.762  3.9892  1.7514  1.8288
   59MOL   H16914205   4.484   6.336   5.660 -0.6508  0.6380 -0.7040
   59MOL   C17014206   4.252   5.938   5.746 -0.0692 -0.3571  0.0695
   59MOL   C17114207   4.237   5.940   5.895 -0.0860  0.5040  0.2849
   59MOL   C17214208   4.214   5.798   5.950  0.4543  0.5081 -0.1269
   59MOL   C17314209   4.269   5.769   6.091 -0.5175  0.0337 -0.6693
   59MOL   H17414210   4.332   5.869   5.720 -1.0564 -0.2624 -3.4879
   59MOL   H17514211   4.170   5.890   5.693  0.0773 -1.0224  0.4434
   59MOL   H17614212   4.326   5.977   5.946  0.6701 -0.3124 -0.4231
   59MOL   H17714213   4.248   5.718   5.884  2.1949 -0.1681  1.5602
   59MOL   H17814214   4.109   5.772   5.963  0.6097  0.3329  0.7907
   59MOL   H17914215   4.250   5.666   6.120 -0.2113  0.3173  0.5621
   59MOL   H18014216   4.377   5.778   6.093 -0.3242 -1.8660 -1.8746
   59MOL   H18114217   4.231   5.823   6.178 -0.0121 -0.6886 -0.0002
   59MOL   C18214218   4.113   6.017   5.944 -0.0828 -0.1103 -0.1058
   59MOL   C18314219   4.136   6.167   5.976 -0.1629 -0.0895 -0.2213
   59MOL   C18414220   4.219   6.177   6.105  0.0056  0.8316 -0.1215
   59MOL   C18514221   4.298   6.306   6.119 -0.6634  0.3806  0.4160
   59MOL   H18614222   4.083   5.979   6.041  1.6485 -0.3988  0.3254
   59MOL   H18714223   4.031   5.991   5.876 -0.1472 -2.2246  0.7570
   59MOL   H18814224   4.181   6.216   5.889 -3.0825  2.8624 -0.1753
   59MOL   H18914225   4.273   6.089   6.140  1.6341  1.2078 -1.6137
   59MOL   H19014226   4.148   6.176   6.188  0.0978  0.0715 -0.0466
   59MOL   H19114227   4.372   6.309   6.039 -0.9742 -0.5140  0.0863
   59MOL   H19214228   4.232   6.392   6.105 -0.0731  0.7801  0.0597
   59MOL   H19314229   4.346   6.320   6.215  1.3339  0.1788 -0.5246
   59MOL   C19414230   3.997   6.234   5.988 -0.6949 -0.1632  0.2994
   59MOL   C19514231   3.920   6.246   5.850 -0.3223  0.0714  1.2075
   59MOL   C19614232   3.972   6.363   5.761 -0.4409 -0.3629  0.4324
   59MOL   C19714233   3.955   6.512   5.806  0.6619  0.1562  0.5001
   59MOL   H19814234   4.026   6.334   6.020 -0.6684  0.0875 -0.4816
   59MOL   H19914235   3.939   6.187   6.066 -1.1552  2.1818  1.4056
   59MOL   H20014236   3.937   6.159   5.787 -2.9077  0.2981  0.1453
   59MOL   H20114237   3.931   6.349   5.661 -1.5147  2.2399  0.4856
   59MOL   H20214238   4.078   6.364   5.737 -0.7984 -1.4877 -1.3009
   59MOL   H20314239   4.038   6.549   5.866 -0.0603  0.0995  1.5538
   59MOL   H20414240   3.954   6.573   5.717  0.9548 -1.1871 -0.4386
   59MOL   H20514241   3.865   6.533   5.864  1.0986  1.4904  0.7135
   59MOL   C20614242   3.773   6.278   5.882 -0.3141 -0.1760  0.5779
   59MOL   C20714243   3.674   6.157   5.910  0.2524  0.3930  0.5368
   59MOL   C20814244   3.677   6.063   5.787 -0.5184 -0.3258 -0.0079
   59MOL   C20914245   3.636   6.125   5.651  0.0072 -0.6519  0.3928
   59MOL   H21014246   3.728   6.327   5.796  2.8168 -0.7927 -1.4825
   59MOL   H21114247   3.767   6.349   5.965 -0.4116  0.0284  0.3971
   59MOL   H21214248   3.714   6.093   5.989 -0.2302 -1.4610 -0.6883
   59MOL   H21314249   3.622   5.970   5.802  0.1972 -1.3057 -3.0588
   59MOL   H21414250   3.778   6.025   5.769 -1.2255 -2.1436 -0.1425
   59MOL   H21514251   3.549   6.190   5.656  0.4112 -0.2499  2.6582
   59MOL   H21614252   3.715   6.194   5.620  0.8424 -0.8760  1.9922
   59MOL   H21714253   3.633   6.047   5.576 -1.7925 -0.6615  0.4583
   59MOL   C21814254   3.532   6.204   5.954  0.0305 -0.6131 -0.3299
   59MOL   C21914255   3.517   6.217   6.108  0.5439  0.0344 -0.1849
   59MOL   C22014256   3.358   6.206   6.145 -0.0662 -0.2222 -0.3321
   59MOL   C22114257   3.309   6.055   6.153  0.0826  0.7760  0.0657
   59MOL   H22214258   3.467   6.122   5.925 -1.3502 -0.3333  1.8338
   59MOL   H22314259   3.512   6.298   5.902  1.9672  1.0861  1.8977
   59MOL   H22414260   3.569   6.129   6.147 -0.6106  0.0632  1.4729
   59MOL   H22514261   3.297   6.252   6.067  0.7530 -0.3341 -1.0426
   59MOL   H22614262   3.340   6.262   6.237  0.5940 -2.4296  1.1651
   59MOL   H22714263   3.206   6.036   6.182  0.7076 -0.0170  1.7837
   59MOL   H22814264   3.324   6.000   6.060 -1.1280 -2.9723  2.0127
   59MOL   H22914265   3.361   6.004   6.233 -0.2491 -0.5041 -0.5223
   59MOL   C23014266   3.585   6.341   6.166 -0.6279 -0.2951  0.6813
   59MOL   C23114267   3.526   6.474   6.114 -0.9840 -0.6865 -0.4438
   59MOL   C23214268   3.597   6.591   6.194 -0.7192  0.2433  0.3646
   59MOL   C23314269   3.712   6.645   6.112  0.2578  0.1050  0.0690
   59MOL   H23414270   3.694   6.341   6.162 -0.6666 -0.8593 -0.3332
   59MOL   H23514271   3.550   6.337   6.270 -3.0401 -1.6669 -0.1377
   59MOL   H23614272   3.544   6.485   6.007  1.5859  0.6107  0.1055
   59MOL   H23714273   3.627   6.560   6.294  0.0192  1.2700  0.4721
   59MOL   H23814274   3.532   6.676   6.215 -2.1402 -1.2884  2.2906
   59MOL   H23914275   3.788   6.571   6.089 -0.8767 -0.4005 -2.1856
   59MOL   H24014276   3.673   6.675   6.015  0.6907 -1.8212 -0.7229
   59MOL   H24114277   3.750   6.735   6.160 -2.3738  1.0373  0.5132
   59MOL   H24214278   3.417   6.481   6.121 -1.0134  0.7112 -2.0713
   60MOL     C114279   0.137   2.825   6.200  0.2507  0.5008 -0.1599
   60MOL     C214280   0.133   2.670   6.220 -0.3180  0.0058 -0.7172
   60MOL     C314281   0.157   2.640   6.374 -0.8020 -0.2514  0.0200
   60MOL     C414282   0.047   2.691   6.459  0.2381  0.0190  0.0796
   60MOL     H514283   0.239   2.864   6.207  1.0375 -1.7513  1.2924
   60MOL     H614284   0.089   2.847   6.105  0.3033  0.1998 -0.2569
   60MOL     H714285   0.031   2.646   6.189  0.4854 -4.6527 -0.1890
   60MOL     H814286   0.254   2.682   6.401 -1.6622  0.8789  1.4307
   60MOL     H914287   0.166   2.532   6.391  0.6010 -0.4424 -1.8152
   60MOL    H1014288   0.056   2.798   6.478  0.0854  0.1691 -0.6757
   60MOL    H1114289   7.654   2.682   6.415 -0.2112 -0.2891  1.1438
   60MOL    H1214290   0.033   2.633   6.551  0.6886  0.6288  0.5427
   60MOL    H1314291   0.077   2.874   6.277 -0.3902 -1.5769  0.6829
   60MOL    C1414292   0.224   2.599   6.117  0.5288 -0.4518 -0.5748
   60MOL    C1514293   0.188   2.450   6.088  0.6320 -0.4491 -0.3823
   60MOL    C1614294   0.289   2.418   5.978  0.1527  0.3322  0.1397
   60MOL    C1714295   0.431   2.393   6.019  0.5392 -0.6565 -0.2119
   60MOL    H1814296   0.327   2.619   6.147  0.0347  1.4866 -0.1212
   60MOL    H1914297   0.216   2.668   6.033  1.8445  0.9305  0.3978
   60MOL    H2014298   0.195   2.394   6.182  0.7420 -2.2038 -1.4173
   60MOL    H2114299   0.288   2.496   5.903  0.8680 -0.2243 -0.4551
   60MOL    H2214300   0.257   2.332   5.919  1.2710 -1.3298  1.8627
   60MOL    H2314301   0.493   2.349   5.941  0.1177 -1.9449  0.1635
   60MOL    H2414302   0.476   2.484   6.058  0.6139 -1.3414  1.3502
   60MOL    H2514303   0.438   2.318   6.098 -0.5344 -1.6971 -1.0854
   60MOL    C2614304   0.044   2.434   6.033  0.5203  0.4984 -0.0497
   60MOL    C2714305   7.649   2.347   6.100  0.0239  0.5519 -0.2861
   60MOL    C2814306   7.677   2.195   6.083 -0.2536  0.1492  0.0250
   60MOL    C2914307   7.655   2.135   5.946  0.5572 -0.2179  0.1173
   60MOL    H3014308   0.056   2.402   5.930  1.6395  0.7581 -0.0058
   60MOL    H3114309   7.704   2.532   6.024 -1.0910 -0.3315 -1.0578
   60MOL    H3214310   7.669   2.360   6.207  0.5692 -0.1577 -0.2965
   60MOL    H3314311   7.645   2.136   6.170 -2.3505  0.2090 -0.6878
   60MOL    H3414312   0.079   2.192   6.099 -0.3549  1.0430  0.9640
   60MOL    H3514313   7.567   2.182   5.902  0.3887 -1.3919 -0.8356
   60MOL    H3614314   0.031   2.165   5.880  2.1513 -0.9085  1.7386
   60MOL    H3714315   7.654   2.026   5.941  0.4270 -0.2107 -0.0181
   60MOL    C3814316   7.500   2.375   6.081  0.3374  0.0108 -0.7284
   60MOL    C3914317   7.401   2.317   6.189 -0.1119 -0.3453 -0.0970
   60MOL    C4014318   7.258   2.293   6.133 -1.5715 -0.3411  0.4526
   60MOL    C4114319   7.244   2.198   6.012 -0.1142  0.1384 -0.2669
   60MOL    H4214320   7.463   2.354   5.980  2.0365 -0.8329 -1.1900
   60MOL    H4314321   7.491   2.483   6.072 -0.4531  0.1213  1.2194
   60MOL    H4414322   7.445   2.219   6.207 -1.1871 -0.5658  1.5090
   60MOL    H4514323   7.206   2.386   6.109 -0.5419  0.1409  0.0811
   60MOL    H4614324   7.201   2.237   6.208 -2.9711 -0.7098 -0.8690
   60MOL    H4714325   7.147   2.179   5.966 -0.2967 -2.9129  1.2344
   60MOL    H4814326   7.306   2.221   5.926  0.8056  2.5392  0.9924
   60MOL    H4914327   7.286   2.100   6.034 -0.4177 -0.3356 -1.7261
   60MOL    C5014328   7.394   2.406   6.314 -0.0973 -0.6216 -0.1236
   60MOL    C5114329   7.372   2.345   6.451 -0.7470  0.3209  0.5048
   60MOL    C5214330   7.286   2.438   6.529 -0.4876  0.8973  0.9940
   60MOL    C5314331   7.348   2.573   6.571  0.3878 -0.4497  0.2975
   60MOL    H5414332   7.308   2.472   6.303  0.3375  0.0199  0.3473
   60MOL    H5514333   7.480   2.473   6.310 -0.6608  0.2832  2.1766
   60MOL    H5614334   7.315   2.255   6.428  1.5932 -1.2789  0.7886
   60MOL    H5714335   7.247   2.376   6.610 -3.0779  2.1488  0.7657
   60MOL    H5814336   7.193   2.461   6.477  0.3054 -0.5731 -1.1418
   60MOL    H5914337   7.381   2.620   6.478  1.0735  0.8440  1.1816
   60MOL    H6014338   7.272   2.643   6.607  0.5105  0.1765 -0.6323
   60MOL    H6114339   7.444   2.561   6.622  0.4786 -0.6540  0.0771
   60MOL    C6214340   7.502   2.300   6.528 -0.2715  0.0700 -0.0021
   60MOL    C6314341   7.579   2.181   6.478  0.1841  0.1980 -0.6105
   60MOL    C6414342   7.496   2.054   6.497 -0.8577 -0.6373 -0.4513
   60MOL    C6514343   7.561   1.923   6.432 -0.6124 -0.3941  0.2231
   60MOL    H6614344   7.464   2.284   6.629 -0.1832 -0.0165  0.0174
   60MOL    H6714345   7.564   2.390   6.533 -2.6610  1.7742 -0.7727
   60MOL    H6814346   7.587   2.196   6.370  0.2912 -0.8994 -0.7527
   60MOL    H6914347   7.404   2.053   6.440 -1.2484  0.1317  0.1635
   60MOL    H7014348   7.470   2.039   6.602  1.9280  1.1043  0.5552
   60MOL    H7114349   7.566   1.937   6.324 -0.1479  0.7672  0.3912
   60MOL    H7214350   7.667   1.907   6.453 -0.0809  2.0999 -0.4916
   60MOL    H7314351   7.515   1.829   6.462  0.5614 -0.7570  0.9352
   60MOL    C7414352   0.022   2.178   6.529  0.0867 -0.9442  0.4719
   60MOL    C7514353   0.048   2.148   6.681  1.0092 -0.5424  0.5204
   60MOL    C7614354   0.012   2.259   6.776  0.3705 -0.2066 -0.1814
   60MOL    C7714355   0.106   2.382   6.770 -0.3625 -0.1095  0.0643
   60MOL    H7814356   0.078   2.268   6.502 -0.3260 -0.7759  0.1744
   60MOL    H7914357   0.078   2.106   6.469  0.0150 -2.1819  1.8649
   60MOL    H8014358   7.702   2.056   6.703 -1.7737  0.9850  0.5169
   60MOL    H8114359   0.019   2.221   6.878 -1.4705  1.2724  0.5237
   60MOL    H8214360   7.611   2.281   6.776  0.5567  0.9521  3.0615
   60MOL    H8314361   0.109   2.431   6.673  0.7785 -0.1325  0.0803
   60MOL    H8414362   0.078   2.457   6.845 -0.0246  0.2180 -0.1331
   60MOL    H8514363   0.210   2.355   6.789  0.2071 -0.0948 -2.7987
   60MOL    C8614364   0.190   2.112   6.698 -0.7533  0.3297 -0.5103
   60MOL    C8714365   0.239   1.975   6.648  0.1202  0.0362  0.2659
   60MOL    C8814366   0.167   1.860   6.725  0.2865  0.3191  0.0603
   60MOL    C8914367   0.178   1.853   6.882  0.3541  0.3366  0.2683
   60MOL    H9014368   0.218   2.117   6.804  3.1095  0.5240 -1.4748
   60MOL    H9114369   0.261   2.183   6.656  1.7351 -1.5353  0.3821
   60MOL    H9214370   0.221   1.963   6.541 -1.9252 -1.3015  0.7276
   60MOL    H9314371   0.196   1.765   6.680 -2.9370 -0.8785  0.3774
   60MOL    H9414372   0.059   1.859   6.712  0.3744  2.5058 -1.1425
   60MOL    H9514373   0.117   1.929   6.932  0.5947  0.6589  0.0788
   60MOL    H9614374   0.129   1.759   6.905 -2.7357  1.6463 -0.7478
   60MOL    H9714375   0.280   1.861   6.922  1.6868 -0.4553 -2.8363
   60MOL    C9814376   0.396   1.941   6.673 -0.3295 -0.2906 -0.0582
   60MOL    C9914377   0.509   2.011   6.599 -0.6578 -0.1504  0.1450
   60MOL   C10014378   0.614   1.905   6.555 -0.7932 -0.1210 -0.5959
   60MOL   C10114379   0.566   1.797   6.460 -0.4117  0.1204 -0.9348
   60MOL   H10214380   0.397   1.839   6.636 -2.1381  0.1348 -1.4106
   60MOL   H10314381   0.418   1.911   6.775 -0.1828 -1.3453 -0.3966
   60MOL   H10414382   0.470   2.062   6.510  1.0757 -1.4619 -1.4178
   60MOL   H10514383   0.667   1.863   6.641  0.3312  1.0798 -0.6857
   60MOL   H10614384   0.692   1.956   6.499 -0.5544  0.5755  0.3596
   60MOL   H10714385   0.500   1.847   6.388 -0.9399 -0.3932 -0.8173
   60MOL   H10814386   0.645   1.749   6.402 -2.7058 -1.8556 -2.5821
   60MOL   H10914387   0.508   1.717   6.506  0.6238  0.1608  0.4334
   60MOL   C11014388   0.575   2.125   6.687 -0.4783 -0.4901  0.3567
   60MOL   C11114389   0.661   2.235   6.626  0.0069 -0.1753 -0.0669
   60MOL   C11214390   0.740   2.308   6.737  1.1824 -0.3976  0.0569
   60MOL   C11314391   0.859   2.224   6.785  0.4059 -0.2545 -0.3452
   60MOL   H11414392   0.628   2.070   6.765 -0.0812 -1.6100 -0.6868
   60MOL   H11514393   0.487   2.173   6.730  0.3075  0.3052  1.0785
   60MOL   H11614394   0.734   2.178   6.569 -2.0295 -0.0696 -2.8777
   60MOL   H11714395   0.673   2.302   6.823 -0.9212  1.0131 -1.4344
   60MOL   H11814396   0.761   2.410   6.706 -2.3707  0.4814  0.3640
   60MOL   H11914397   0.822   2.144   6.850 -1.6166  0.0217 -1.1052
   60MOL   H12014398   0.918   2.183   6.703  2.6700  2.3554 -0.0516
   60MOL   H12114399   0.912   2.289   6.854 -0.1928 -0.5410  0.3954
   60MOL   C12214400   0.581   2.326   6.528  0.1565  0.1709 -0.6135
   60MOL   C12314401   0.653   2.361   6.403  0.1827  0.1171  0.3315
   60MOL   C12414402   0.575   2.475   6.329  0.1884 -0.0565 -0.6656
   60MOL   C12514403   0.585   2.616   6.389  0.1104  0.1144 -0.2360
   60MOL   H12614404   0.569   2.422   6.577 -0.3356  0.0353 -0.4648
   60MOL   H12714405   0.477   2.294   6.517  0.1775 -0.7053  1.4784
   60MOL   H12814406   0.755   2.395   6.424 -0.0863  0.5942  0.8681
   60MOL   H12914407   0.472   2.440   6.319 -0.0502 -0.5013  2.7696
   60MOL   H13014408   0.620   2.476   6.230  1.2012  2.5791 -0.2258
   60MOL   H13114409   0.498   2.641   6.449 -0.6988  0.6030 -1.5883
   60MOL   H13214410   0.677   2.619   6.447  0.2650 -3.2833 -0.2275
   60MOL   H13314411   0.584   2.692   6.311 -1.1575 -0.2550 -0.5943
   60MOL   C13414412   0.680   2.238   6.316 -0.4631  0.7124 -0.2699
   60MOL   C13514413   0.822   2.240   6.239  0.1149 -0.1898  0.0820
   60MOL   C13614414   0.807   2.142   6.119 -0.5974 -0.0260 -0.1203
   60MOL   C13714415   0.726   2.182   5.990 -0.4453  0.3156 -0.3203
   60MOL   H13814416   0.612   2.224   6.232  0.5315  1.4119 -1.2214
   60MOL   H13914417   0.684   2.147   6.376 -0.9118  0.5188 -0.5297
   60MOL   H14014418   0.839   2.342   6.204 -0.3389 -0.9318 -2.3426
   60MOL   H14114419   0.747   2.055   6.147  0.0736  0.0655  1.6640
   60MOL   H14214420   0.905   2.102   6.093 -1.6792 -0.9851 -2.9230
   60MOL   H14314421   0.768   2.281   5.969  0.6127 -0.3676 -1.5028
   60MOL   H14414422   0.756   2.121   5.905 -1.9768 -0.4487 -0.3137
   60MOL   H14514423   0.620   2.188   6.011 -0.4469  1.8433 -0.7199
   60MOL   C14614424   0.933   2.194   6.335  0.2969 -0.4539 -0.2493
   60MOL   C14714425   1.074   2.182   6.288 -0.0582 -0.1020  0.4223
   60MOL   C14814426   1.161   2.131   6.409 -0.6217 -0.0706 -0.0639
   60MOL   C14914427   1.298   2.076   6.368  0.2702  0.7087  0.9016
   60MOL   H15014428   0.905   2.101   6.385  1.3322 -0.1984  0.8228
   60MOL   H15114429   0.927   2.266   6.416  3.8320 -1.3003  0.8352
   60MOL   H15214430   1.082   2.100   6.217  1.9612  0.0867  0.3779
   60MOL   H15314431   1.118   2.046   6.462  1.5529 -2.5225 -2.1476
   60MOL   H15414432   1.177   2.218   6.472  1.5950 -0.8969  0.5605
   60MOL   H15514433   1.285   2.014   6.279  4.0911  0.3585  0.5045
   60MOL   H15614434   1.377   2.146   6.342  0.8134  0.3183  1.4850
   60MOL   H15714435   1.348   2.007   6.436  0.9877 -0.2542 -0.5639
   60MOL   C15814436   1.129   2.307   6.216 -0.2296  0.4267 -0.6349
   60MOL   C15914437   1.120   2.336   6.061 -0.4817  0.0214 -0.1081
   60MOL   C16014438   1.161   2.211   5.979 -0.2113 -0.7643  0.1658
   60MOL   C16114439   1.080   2.202   5.838  0.1515 -0.1101  0.0504
   60MOL   H16214440   1.236   2.300   6.235 -0.4273 -1.3300 -0.1276
   60MOL   H16314441   1.104   2.392   6.280  1.0376 -0.4555  1.0565
   60MOL   H16414442   1.013   2.350   6.041 -0.1349  0.7426 -1.4737
   60MOL   H16514443   1.164   2.119   6.037  2.4120 -0.1023  1.1133
   60MOL   H16614444   1.268   2.230   5.974 -0.4752  1.0809  1.3273
   60MOL   H16714445   0.973   2.188   5.853  0.4664 -0.7956  1.6786
   60MOL   H16814446   1.096   2.288   5.772  2.1933  0.4461  1.2438
   60MOL   H16914447   1.112   2.116   5.779 -1.1230  0.2022 -1.1331
   60MOL   C17014448   1.195   2.458   6.006  0.0576  0.2022 -0.4389
   60MOL   C17114449   1.169   2.595   6.072 -0.4539 -0.7102  0.2493
   60MOL   C17214450   1.025   2.646   6.048 -0.3416  0.3606 -0.1123
   60MOL   C17314451   0.979   2.751   6.139  0.4269  0.1835  0.1591
   60MOL   H17414452   1.178   2.456   5.899 -0.5259 -0.2950 -0.3396
   60MOL   H17514453   1.299   2.425   6.008 -0.0799 -0.1762  1.0520
   60MOL   H17614454   1.189   2.595   6.179  0.8652  0.0472  0.0024
   60MOL   H17714455   0.957   2.563   6.062  0.1276 -0.6365 -3.3536
   60MOL   H17814456   1.010   2.690   5.950  0.5871 -0.0625 -0.4558
   60MOL   H17914457   0.878   2.792   6.131  0.6596  0.6253 -0.6105
   60MOL   H18014458   0.978   2.716   6.242 -1.0583 -1.1409 -0.2926
   60MOL   H18114459   1.039   2.842   6.146 -1.4114  1.3250  1.5992
   60MOL   C18214460   1.268   2.693   6.008 -0.7498  0.2200 -0.0797
   60MOL   C18314461   1.404   2.722   6.086 -0.4650 -0.1467 -0.1568
   60MOL   C18414462   1.386   2.824   6.201  0.2142 -0.0497 -0.4845
   60MOL   C18514463   1.490   2.820   6.313  0.0342 -0.8844  0.0042
   60MOL   H18614464   1.217   2.788   6.020  0.9531  1.6782 -3.7505
   60MOL   H18714465   1.278   2.687   5.900  0.2323  0.9330 -0.0354
   60MOL   H18814466   1.423   2.626   6.134 -0.5881 -1.0703 -1.9234
   60MOL   H18914467   1.290   2.821   6.253  1.4425  0.8224  1.9073
   60MOL   H19014468   1.398   2.928   6.170 -2.4922  0.6730  0.7008
   60MOL   H19114469   1.504   2.715   6.340  1.1367 -1.2161 -1.7302
   60MOL   H19214470   1.582   2.863   6.275 -0.7361  0.2479 -0.6113
   60MOL   H19314471   1.458   2.878   6.399 -0.7572  0.9206 -1.4613
   60MOL   C19414472   1.535   2.754   6.007 -0.4814  0.3362  0.3314
   60MOL   C19514473   1.589   2.637   5.920 -0.1674 -0.3045 -0.2386
   60MOL   C19614474   1.526   2.605   5.779  0.2024  0.4150  0.1858
   60MOL   C19714475   1.480   2.730   5.699 -0.0876  0.0649  0.0304
   60MOL   H19814476   1.607   2.788   6.082  0.3433  1.0709 -0.7795
   60MOL   H19914477   1.520   2.843   5.946  0.4999  2.2013  2.7181
   60MOL   H20014478   1.681   2.687   5.890 -0.1794  1.4992  2.5287
   60MOL   H20114479   1.433   2.548   5.784  0.5068 -0.0528  0.4991
   60MOL   H20214480   1.606   2.566   5.716  2.0218  2.8491  0.9495
   60MOL   H20314481   1.424   2.720   5.606  1.1719 -0.1066 -0.7240
   60MOL   H20414482   1.419   2.791   5.765 -1.3103 -1.6494  0.5197
   60MOL   H20514483   1.563   2.790   5.662 -0.5583  0.2356 -0.7658
   60MOL   C20614484   1.631   2.518   6.007  0.4541  0.1923  0.0222
   60MOL   C20714485   1.748   2.425   5.965 -0.3062 -0.4614 -0.4910
   60MOL   C20814486   1.887   2.501   5.963  0.6873 -1.1136  0.7913
   60MOL   C20914487   2.001   2.403   5.995 -0.8068 -0.2053 -0.1784
   60MOL   H21014488   1.554   2.442   6.021  1.2491 -0.5655  0.3226
   60MOL   H21114489   1.655   2.565   6.103 -1.8225  0.0291  0.6832
   60MOL   H21214490   1.764   2.362   6.052  0.4804 -1.1402 -1.1272
   60MOL   H21314491   1.892   2.577   6.040  1.7467  0.5628 -0.8915
   60MOL   H21414492   1.910   2.561   5.875  0.9085 -1.3269  0.6994
   60MOL   H21514493   2.009   2.316   5.929  2.4092 -0.3089  0.2665
   60MOL   H21614494   2.099   2.446   5.972 -1.6121 -0.0626 -3.6878
   60MOL   H21714495   2.004   2.376   6.100  0.4800  0.5672  0.0006
   60MOL   C21814496   1.716   2.330   5.851  0.4211 -0.5949  0.6692
   60MOL   C21914497   1.596   2.215   5.871 -0.0971 -0.6649 -0.5490
   60MOL   C22014498   1.606   2.147   5.999 -0.5083 -0.0063  0.1489
   60MOL   C22114499   1.502   2.041   6.031 -0.0470  0.5553  0.5017
   60MOL   H22214500   1.812   2.281   5.835  0.8633 -0.4348  2.7390
   60MOL   H22314501   1.705   2.390   5.761 -1.6974  0.0989  1.3605
   60MOL   H22414502   1.497   2.261   5.867  0.0174 -0.2927  0.7142
   60MOL   H22514503   1.592   2.229   6.069 -0.3571  1.1496 -1.1652
   60MOL   H22614504   1.711   2.117   6.006 -0.2789  0.5554 -0.7920
   60MOL   H22714505   1.397   2.059   6.010 -0.5967 -2.8153  0.0994
   60MOL   H22814506   1.532   1.949   5.980 -3.9932 -2.1243  2.7148
   60MOL   H22914507   1.499   2.010   6.135 -0.2176  0.6672  0.5310
   60MOL   C23014508   1.579   2.120   5.755  0.0162  0.4285  0.4102
   60MOL   C23114509   1.566   2.197   5.626 -0.0221  0.2344  0.7797
   60MOL   C23214510   1.527   2.099   5.516  0.2242  0.6073 -0.3963
   60MOL   C23314511   1.622   1.987   5.478  0.3851 -0.3912  0.0234
   60MOL   H23414512   1.496   2.050   5.768 -1.0582  1.5750 -0.1520
   60MOL   H23514513   1.662   2.051   5.745 -0.5605 -0.7252  3.2387
   60MOL   H23614514   1.488   2.273   5.636 -0.5157 -0.1245 -0.2430
   60MOL   H23714515   1.486   2.150   5.428  0.6453  0.9430 -0.3988
   60MOL   H23814516   1.439   2.044   5.547  0.1645  0.1101 -1.4130
   60MOL   H23914517   1.720   2.035   5.471 -0.3944  1.1540 -0.6153
   60MOL   H24014518   1.639   1.908   5.551 -0.2853 -0.0334  0.5729
   60MOL   H24114519   1.583   1.948   5.384  1.5501 -1.9697  0.1791
   60MOL   H24214520   1.656   2.247   5.592 -0.9479  1.4410  0.0555
   61MOL     C114521   7.485   6.079   0.432  0.3079 -0.0138  0.1693
   61MOL     C214522   7.603   6.019   0.355 -0.9307 -0.0098  0.3249
   61MOL     C314523   7.548   5.883   0.287  0.2218 -0.0311  0.6676
   61MOL     C414524   7.481   5.778   0.376 -0.7937 -0.8292  0.7223
   61MOL     H514525   7.464   6.018   0.521  4.9237  0.2972  1.6333
   61MOL     H614526   7.510   6.175   0.476 -0.1865 -0.1480  0.7520
   61MOL     H714527   7.639   6.090   0.281  0.6627 -0.5893  0.5117
   61MOL     H814528   7.629   5.834   0.233  1.4924 -1.0058  3.3788
   61MOL     H914529   7.478   5.914   0.210  0.8190  0.5714  0.3555
   61MOL    H1014530   7.540   5.762   0.466 -2.3222 -3.8576  1.2191
   61MOL    H1114531   7.383   5.810   0.412 -0.7748  0.0043  0.0615
   61MOL    H1214532   7.464   5.684   0.323  0.6619 -0.2302 -0.8628
   61MOL    H1314533   7.396   6.076   0.370  1.0634  1.3523 -1.0070
   61MOL    C1414534   0.017   5.968   0.442  0.0903  0.0724  0.3788
   61MOL    C1514535   0.134   6.069   0.460  0.4786  0.2480 -1.0070
   61MOL    C1614536   0.261   6.005   0.520  0.3030 -0.2848 -0.1841
   61MOL    C1714537   0.253   5.933   0.656  0.8204  0.4126 -0.2517
   61MOL    H1814538   0.061   5.875   0.407 -1.4816 -0.5150 -0.0754
   61MOL    H1914539   7.688   5.931   0.539 -0.2914  0.4259  0.3778
   61MOL    H2014540   0.182   6.088   0.365  1.4744 -1.6489 -0.8882
   61MOL    H2114541   0.339   6.081   0.528  0.0649 -0.3160  3.4155
   61MOL    H2214542   0.297   5.929   0.451 -0.2739 -1.5055  0.8372
   61MOL    H2314543   0.350   5.926   0.706  0.5384 -2.1023 -0.0277
   61MOL    H2414544   0.200   5.996   0.728  2.8325  0.1534  1.4870
   61MOL    H2514545   0.203   5.837   0.650 -0.8838  1.2903 -0.3960
   61MOL    C2614546   0.092   6.203   0.526  0.0793 -0.2038 -0.4425
   61MOL    C2714547   0.202   6.308   0.542  0.0304  0.1361 -0.5072
   61MOL    C2814548   0.261   6.312   0.688  0.3476 -0.5396  0.3228
   61MOL    C2914549   0.402   6.375   0.698  0.4511 -0.4303  0.3821
   61MOL    H3014550   0.029   6.192   0.614 -1.7651 -2.1001 -1.9444
   61MOL    H3114551   0.021   6.245   0.455  0.2026 -1.1390 -1.1333
   61MOL    H3214552   0.286   6.275   0.480 -0.6810 -1.3749 -0.6861
   61MOL    H3314553   0.268   6.209   0.723 -2.7359 -0.9265 -0.0704
   61MOL    H3414554   0.192   6.368   0.749 -0.0250  0.9410 -1.4126
   61MOL    H3514555   0.378   6.480   0.717 -2.0684 -0.9530  0.2460
   61MOL    H3614556   0.458   6.344   0.786  0.3312 -1.7794 -0.0151
   61MOL    H3714557   0.454   6.355   0.604 -1.6508  0.2043 -0.9681
   61MOL    C3814558   0.148   6.445   0.508  0.1649  0.5781 -0.4239
   61MOL    C3914559   0.136   6.473   0.351 -0.3678  0.2651  0.0552
   61MOL    C4014560   0.278   6.482   0.285  0.2042 -0.4208  0.2009
   61MOL    C4114561   0.282   6.496   0.130 -0.2200  0.0671 -0.5692
   61MOL    H4214562   0.221   6.515   0.549 -2.3565  1.2625  3.0618
   61MOL    H4314563   0.060   6.461   0.570 -0.4761 -2.2691 -0.5381
   61MOL    H4414564   0.093   6.381   0.312  0.1854 -0.3655  0.8818
   61MOL    H4514565   0.320   6.387   0.317  1.0157 -0.0655  0.2123
   61MOL    H4614566   0.330   6.569   0.326 -0.2592  0.8496 -1.8558
   61MOL    H4714567   0.204   6.437   0.082 -0.9952  0.5852  0.0218
   61MOL    H4814568   0.248   6.597   0.103 -1.6586 -0.4376 -0.7183
   61MOL    H4914569   0.381   6.469   0.095  0.9737  0.3851  2.3955
   61MOL    C5014570   0.060   6.610   0.329  0.6365 -0.2271 -0.1864
   61MOL    C5114571   7.609   6.591   0.312  0.0149  1.1986  0.3616
   61MOL    C5214572   7.577   6.512   0.184 -0.2569  0.0741 -0.0595
   61MOL    C5314573   7.433   6.459   0.179  0.3467  0.2952  0.1710
   61MOL    H5414574   0.096   6.673   0.248  2.4205  0.4243  1.0749
   61MOL    H5514575   0.086   6.674   0.414  0.4842 -1.0255  0.4729
   61MOL    H5614576   7.576   6.520   0.387  3.1871  0.3581  1.0126
   61MOL    H5714577   7.645   6.427   0.175 -1.1305 -0.6429 -0.0107
   61MOL    H5814578   7.597   6.557   0.087 -0.0325  1.4950  0.6455
   61MOL    H5914579   7.361   6.535   0.150  0.4188 -0.6253 -2.5513
   61MOL    H6014580   7.425   6.376   0.109  2.0362  0.7496 -0.5761
   61MOL    H6114581   7.404   6.432   0.281 -0.8968 -1.9355 -0.7246
   61MOL    C6214582   7.528   6.719   0.337 -0.4832 -0.4719 -0.5353
   61MOL    C6314583   7.530   6.789   0.475 -0.2512 -0.1758 -0.1329
   61MOL    C6414584   7.424   6.724   0.574  0.1749  0.0561  0.6684
   61MOL    C6514585   7.430   6.574   0.588  0.0059  0.3570 -0.3304
   61MOL    H6614586   7.424   6.703   0.308 -0.2475 -0.2636 -1.5423
   61MOL    H6714587   7.567   6.798   0.271  2.6014  1.0964  2.9834
   61MOL    H6814588   7.627   6.767   0.518 -0.8083 -1.7870  0.3498
   61MOL    H6914589   7.324   6.751   0.540 -0.1877  0.6632  2.1666
   61MOL    H7014590   7.445   6.759   0.675 -1.5511 -2.2092  1.8385
   61MOL    H7114591   7.341   6.547   0.645 -0.1164  0.6171 -0.3955
   61MOL    H7214592   7.393   6.525   0.498 -1.2604  1.1888 -0.2758
   61MOL    H7314593   7.522   6.523   0.614 -0.2711 -0.0176 -0.0859
   61MOL    C7414594   7.507   6.945   0.461 -0.6025 -0.5071 -0.6094
   61MOL    C7514595   7.589   7.013   0.572 -0.3836  0.2922  0.1045
   61MOL    C7614596   7.535   7.148   0.609  0.3106 -0.7383 -0.3175
   61MOL    C7714597   7.403   7.144   0.681 -0.0089  0.5432 -0.2379
   61MOL    H7814598   7.400   6.961   0.475 -0.9077 -1.3967 -1.8104
   61MOL    H7914599   7.542   6.982   0.365  1.6487 -1.1083 -0.0641
   61MOL    H8014600   7.587   6.949   0.661  3.8169 -0.7427 -0.4789
   61MOL    H8114601   7.523   7.197   0.513  1.6935  0.5354  0.1324
   61MOL    H8214602   7.606   7.208   0.667 -0.7093 -0.0311  0.2316
   61MOL    H8314603   7.410   7.081   0.770  1.3439  0.1131 -0.6316
   61MOL    H8414604   7.375   7.243   0.717  0.6007  0.7145 -0.2242
   61MOL    H8514605   7.319   7.103   0.625 -1.5266  0.9694  1.6617
   61MOL    C8614606   0.044   7.007   0.538  0.0667 -0.0268 -0.8253
   61MOL    C8714607   0.127   7.030   0.667  0.2674  0.3266 -0.0530
   61MOL    C8814608   0.247   7.123   0.629  0.5521  0.6501  0.2227
   61MOL    C8914609   0.322   7.185   0.744 -0.7317 -0.6306  0.1179
   61MOL    H9014610   0.056   7.095   0.474 -1.2756  1.2326  0.5983
   61MOL    H9114611   0.076   6.920   0.481 -0.4883 -1.9618  1.7155
   61MOL    H9214612   0.068   7.087   0.738 -0.4595  0.9788 -1.1816
   61MOL    H9314613   0.201   7.212   0.584 -0.2808  1.0808  1.8986
   61MOL    H9414614   0.302   7.087   0.542 -0.4990  1.3791 -0.7713
   61MOL    H9514615   0.397   7.258   0.713  0.6723 -1.1295  2.2322
   61MOL    H9614616   0.245   7.239   0.800 -1.8106  0.2031 -2.0875
   61MOL    H9714617   0.368   7.114   0.812 -0.4256 -0.5345  0.0091
   61MOL    C9814618   0.187   6.900   0.724 -0.1342  0.0573  0.4132
   61MOL    C9914619   0.162   6.862   0.871  0.3524  0.1768  0.0613
   61MOL   C10014620   0.233   6.737   0.918 -0.5584  1.2134  0.2836
   61MOL   C10114621   0.384   6.744   0.917 -0.2081  0.8314 -0.2875
   61MOL   H10214622   0.293   6.884   0.708 -0.1771 -0.1154  0.3020
   61MOL   H10314623   0.145   6.823   0.659  3.4074 -1.7349  0.1095
   61MOL   H10414624   0.208   6.946   0.925  2.1513 -1.1573  0.6738
   61MOL   H10514625   0.204   6.652   0.857  0.1191  0.6438  0.7423
   61MOL   H10614626   0.189   6.699   1.010 -2.7080  1.4140 -0.6388
   61MOL   H10714627   0.435   6.750   0.821 -0.2743 -0.8292 -0.4426
   61MOL   H10814628   0.419   6.828   0.977  1.3114 -0.5760  0.8696
   61MOL   H10914629   0.424   6.648   0.952 -0.4000  0.2054 -1.7862
   61MOL   C11014630   0.013   6.855   0.912 -0.1050 -0.2066 -1.0214
   61MOL   C11114631   7.691   6.862   1.069 -0.2453 -0.7596 -0.2047
   61MOL   C11214632   7.542   6.816   1.086 -1.0493  0.1368  0.0107
   61MOL   C11314633   7.523   6.670   1.105  0.4248  0.3186  0.5359
   61MOL   H11414634   7.675   6.766   0.866  0.3617  0.0089 -1.8807
   61MOL   H11514635   7.658   6.937   0.875  0.7348  0.6929 -0.4214
   61MOL   H11614636   0.056   6.797   1.119  0.9107 -0.7749 -1.8317
   61MOL   H11714637   7.473   6.855   1.011  0.5200  1.3328 -0.8449
   61MOL   H11814638   7.506   6.857   1.180  0.8208  2.8208 -0.3993
   61MOL   H11914639   7.545   6.603   1.021 -0.9357  1.7533 -0.9792
   61MOL   H12014640   7.592   6.655   1.188  1.3800  1.3634 -0.0594
   61MOL   H12114641   7.418   6.648   1.126  0.9250 -1.4478  1.3207
   61MOL   C12214642   0.005   7.007   1.125  0.1450 -0.2491  0.7855
   61MOL   C12314643   0.001   7.045   1.277  0.3146 -0.5968  0.2029
   61MOL   C12414644   0.008   7.199   1.306  0.0428 -0.5579 -0.4168
   61MOL   C12514645   7.602   7.272   1.235  0.0085  0.7715 -0.0970
   61MOL   H12614646   7.629   7.066   1.084  0.0028 -1.3453 -0.5485
   61MOL   H12714647   0.100   7.045   1.087  0.1410 -0.7145  0.2983
   61MOL   H12814648   7.608   7.019   1.314  0.2758  1.0671  1.3103
   61MOL   H12914649   0.107   7.234   1.278  0.3353 -0.7936  0.3271
   61MOL   H13014650   7.698   7.214   1.412 -1.2246  0.8361 -0.7894
   61MOL   H13114651   7.642   7.284   1.135  3.1322 -0.5506  0.9480
   61MOL   H13214652   7.503   7.228   1.245  0.7028 -0.3984  2.0808
   61MOL   H13314653   7.587   7.369   1.283 -1.2996  0.1380  0.8177
   61MOL   C13414654   0.088   6.954   1.372 -0.7932  0.4901  0.4632
   61MOL   C13514655   0.016   6.931   1.514  0.4236  0.0840  0.6467
   61MOL   C13614656   0.112   6.895   1.625 -0.1559  0.9892  0.2442
   61MOL   C13714657   0.240   6.977   1.630  0.3510 -0.3323  0.6132
   61MOL   H13814658   0.185   7.002   1.385 -1.4281  1.5095  1.4777
   61MOL   H13914659   0.110   6.860   1.320 -0.7476  2.5806 -3.4386
   61MOL   H14014660   7.698   7.034   1.541  1.0279  0.0515  1.3575
   61MOL   H14114661   0.146   6.794   1.603  0.5560  1.3480 -0.3424
   61MOL   H14214662   0.053   6.890   1.716 -0.1989  0.2724  0.1793
   61MOL   H14314663   0.221   7.084   1.626 -0.4838 -0.4903  0.1801
   61MOL   H14414664   0.296   6.964   1.722 -2.0920  0.6401  2.3050
   61MOL   H14514665   0.312   6.957   1.550  1.6071  0.8572  1.4382
   61MOL   C14614666   7.591   6.851   1.518 -0.2075 -0.5609  0.3250
   61MOL   C14714667   7.474   6.930   1.594  0.2398  0.4903  0.7041
   61MOL   C14814668   7.486   6.942   1.745  0.1795  0.2068  0.6127
   61MOL   C14914669   7.490   6.809   1.821 -0.1124 -0.0320 -0.7729
   61MOL   H15014670   7.612   6.751   1.557 -1.9112 -0.7767  0.7257
   61MOL   H15114671   7.566   6.824   1.415 -1.6239  1.1317  0.2214
   61MOL   H15214672   7.470   7.035   1.566  0.8611  0.1032 -0.8392
   61MOL   H15314673   7.404   7.006   1.780  1.3749  1.4283  1.2220
   61MOL   H15414674   7.577   7.001   1.756 -0.3392  0.9658  0.9176
   61MOL   H15514675   7.405   6.742   1.807 -1.6796  1.5737  0.7018
   61MOL   H15614676   7.576   6.751   1.789 -0.6975 -0.6489 -1.2327
   61MOL   H15714677   7.505   6.826   1.928 -1.1659  0.3604 -0.6782
   61MOL   C15814678   7.334   6.883   1.546 -0.0830  0.5031  0.3752
   61MOL   C15914679   7.268   6.939   1.420 -0.3263 -0.0236  0.2280
   61MOL   C16014680   7.224   7.085   1.431 -0.2375 -0.1577  0.3484
   61MOL   C16114681   7.132   7.112   1.552 -0.5373  1.3461 -0.1995
   61MOL   H16214682   7.270   6.899   1.633  0.4992  0.0268  0.9020
   61MOL   H16314683   7.345   6.775   1.538 -0.3277  0.6168 -1.7121
   61MOL   H16414684   7.349   6.931   1.347 -0.4386  3.5516 -0.3979
   61MOL   H16514685   7.180   7.119   1.337  2.2923 -0.3014 -0.9252
   61MOL   H16614686   7.303   7.159   1.418 -0.1701 -0.3504 -0.3771
   61MOL   H16714687   7.076   7.205   1.539 -0.6511  1.6211  2.0245
   61MOL   H16814688   7.058   7.033   1.550 -0.7722  1.5784 -0.9924
   61MOL   H16914689   7.185   7.109   1.647 -0.2245 -0.4564 -0.4198
   61MOL   C17014690   7.159   6.839   1.384  0.0144 -0.1074  0.0474
   61MOL   C17114691   7.055   6.871   1.272 -0.3818 -0.0269 -0.2037
   61MOL   C17214692   6.946   6.759   1.279  0.2105  0.3442  0.0639
   61MOL   C17314693   6.997   6.620   1.229  0.9488 -0.5575  0.1298
   61MOL   H17414694   7.104   6.826   1.478 -0.5408  2.0224  0.0343
   61MOL   H17514695   7.214   6.749   1.357 -1.3295 -1.5626  1.9584
   61MOL   H17614696   7.004   6.966   1.290  0.5639  0.5599 -0.6028
   61MOL   H17714697   6.875   6.793   1.203  0.9436  0.1244 -0.7269
   61MOL   H17814698   6.889   6.762   1.372 -0.4071 -0.7947 -0.2601
   61MOL   H17914699   7.032   6.618   1.126  1.5446 -0.0270  0.3190
   61MOL   H18014700   7.088   6.596   1.284  1.0982  1.4959  0.8192
   61MOL   H18114701   6.913   6.551   1.237  1.6071 -1.3898 -0.0798
   61MOL   C18214702   7.132   6.886   1.138 -0.0082 -0.4112 -0.6254
   61MOL   C18314703   7.057   6.910   1.009 -0.2689 -0.7631  0.8827
   61MOL   C18414704   7.142   6.883   0.883 -0.2437  0.2443  0.7080
   61MOL   C18514705   7.176   6.734   0.861 -0.0374 -0.0972  0.2599
   61MOL   H18614706   7.186   6.792   1.124  0.2166 -0.6256  1.6378
   61MOL   H18714707   7.214   6.958   1.151  1.7701 -2.1731 -1.7409
   61MOL   H18814708   6.959   6.862   0.999 -1.5761  1.4880  2.4207
   61MOL   H18914709   7.236   6.937   0.895 -0.9502  1.2910  1.6023
   61MOL   H19014710   7.093   6.918   0.792 -1.4989 -0.8584  0.9456
   61MOL   H19114711   7.244   6.723   0.777  0.8698  3.3743  0.4640
   61MOL   H19214712   7.229   6.680   0.939 -0.3497  2.1310  2.0684
   61MOL   H19314713   7.089   6.677   0.826  0.9644 -1.2088 -0.4448
   61MOL   C19414714   7.010   7.061   1.003 -0.6614  0.5264  0.2293
   61MOL   C19514715   6.890   7.085   0.903  0.3157 -0.3275  0.0971
   61MOL   C19614716   6.910   7.231   0.838 -0.7663 -0.3343 -0.3395
   61MOL   C19714717   7.007   7.225   0.712  0.2491 -0.1638 -0.3574
   61MOL   H19814718   7.096   7.122   0.976  0.0340 -0.9735 -1.0420
   61MOL   H19914719   6.980   7.095   1.102  1.4274 -1.4370  1.5907
   61MOL   H20014720   6.889   7.013   0.821  1.0359 -0.4398  0.1898
   61MOL   H20114721   6.953   7.299   0.911 -0.9589 -1.8764  1.2336
   61MOL   H20214722   6.824   7.294   0.815 -0.1513  1.6446  2.6151
   61MOL   H20314723   7.113   7.212   0.733  0.4220  0.8481 -0.5497
   61MOL   H20414724   6.973   7.145   0.647 -1.1726 -0.6589  0.9871
   61MOL   H20514725   6.998   7.313   0.647  3.1989 -0.9073 -1.8644
   61MOL   C20614726   6.751   7.079   0.978  0.8598  0.1835  0.2990
   61MOL   C20714727   6.636   7.046   0.881  0.3097 -0.5622  1.0761
   61MOL   C20814728   6.516   7.139   0.918 -0.1863 -0.4404  0.4546
   61MOL   C20914729   6.421   7.157   0.800 -0.7071 -0.1914 -0.1500
   61MOL   H21014730   6.739   7.172   1.035  1.9430  1.7909 -1.9883
   61MOL   H21114731   6.748   7.014   1.065  1.1271  0.7274  0.7156
   61MOL   H21214732   6.658   7.060   0.775  2.9395 -0.4728  1.5975
   61MOL   H21314733   6.554   7.237   0.947 -0.3743 -0.8590  2.2198
   61MOL   H21414734   6.461   7.098   1.003 -2.0947 -0.8310 -0.9605
   61MOL   H21514735   6.469   7.219   0.725  0.2981 -0.6070  0.1413
   61MOL   H21614736   6.383   7.070   0.747  0.6985 -0.8762 -0.0762
   61MOL   H21714737   6.333   7.206   0.841  0.6827  2.9187 -0.7627
   61MOL   C21814738   6.584   6.900   0.889  0.3787  0.8736  0.5252
   61MOL   C21914739   6.678   6.789   0.846 -0.7271 -0.0984 -0.2574
   61MOL   C22014740   6.672   6.790   0.693 -0.2609 -0.2986 -0.2007
   61MOL   C22114741   6.799   6.732   0.640 -0.2563  0.5345  0.0614
   61MOL   H22214742   6.500   6.885   0.821  1.9132  2.5231 -1.7907
   61MOL   H22314743   6.539   6.878   0.986  0.3033 -0.9670  0.0813
   61MOL   H22414744   6.771   6.819   0.894 -0.1362 -1.3526 -0.5777
   61MOL   H22514745   6.674   6.893   0.658  0.9266 -0.2018  0.1388
   61MOL   H22614746   6.590   6.731   0.653  0.7777 -0.0439 -2.8131
   61MOL   H22714747   6.802   6.623   0.648 -2.9070  0.4135  0.0087
   61MOL   H22814748   6.816   6.757   0.535 -1.1075 -2.3749 -0.8246
   61MOL   H22914749   6.889   6.775   0.684 -0.3455  1.5273 -0.7123
   61MOL   C23014750   6.623   6.653   0.911 -0.4010 -0.4986 -0.2723
   61MOL   C23114751   6.724   6.536   0.922  0.2692  0.9026 -0.0800
   61MOL   C23214752   6.654   6.400   0.941 -0.7700 -0.3755  0.3334
   61MOL   C23314753   6.745   6.295   1.000 -0.0074 -0.0987  0.1683
   61MOL   H23414754   6.533   6.621   0.859 -2.2128  3.1761  0.4027
   61MOL   H23514755   6.591   6.664   1.014 -0.4962  0.3361 -0.3856
   61MOL   H23614756   6.792   6.529   0.837  2.4406 -1.1036  1.7572
   61MOL   H23714757   6.625   6.374   0.839  0.0305  2.1375 -0.5534
   61MOL   H23814758   6.567   6.405   1.007 -1.3402  0.2961 -0.4592
   61MOL   H23914759   6.824   6.266   0.930 -0.2661  2.1348 -1.0910
   61MOL   H24014760   6.778   6.318   1.101 -1.9626 -0.8798  1.0169
   61MOL   H24114761   6.682   6.205   1.001 -0.6649  0.3632  0.3531
   61MOL   H24214762   6.794   6.559   1.003  2.1943 -0.2393 -1.3745
   62MOL     C114763   0.464   2.969   5.890 -0.5059 -0.2177  0.4239
   62MOL     C214764   0.564   2.949   5.999 -0.3477 -0.1514  0.1128
   62MOL     C314765   0.568   2.803   6.041 -0.6348  0.4430  0.7134
   62MOL     C414766   0.638   2.711   5.938 -0.5406  0.1449  0.5216
   62MOL     H514767   0.479   2.902   5.805 -3.2507  3.2751 -2.9762
   62MOL     H614768   0.361   2.960   5.923 -1.1855  0.6276 -1.4147
   62MOL     H714769   0.664   2.973   5.965 -1.1471  4.2785  0.5748
   62MOL     H814770   0.471   2.769   6.078 -1.3550 -2.4305 -3.4171
   62MOL     H914771   0.636   2.795   6.125  0.9990 -2.6533 -0.8179
   62MOL    H1014772   0.637   2.605   5.962 -2.2073 -0.2269 -1.1087
   62MOL    H1114773   0.602   2.719   5.836  0.0563  0.2673  0.3160
   62MOL    H1214774   0.741   2.745   5.929  0.0141 -0.7563  2.9518
   62MOL    H1314775   0.473   3.065   5.839 -2.3458 -1.0583 -1.5847
   62MOL    C1414776   0.539   3.040   6.124 -0.0671 -0.2186  0.4179
   62MOL    C1514777   0.673   3.056   6.206 -0.4551 -0.1660  0.1433
   62MOL    C1614778   0.640   3.035   6.352 -0.0487  0.9730 -0.0137
   62MOL    C1714779   0.759   3.002   6.442  0.2687  0.1376 -0.3547
   62MOL    H1814780   0.452   3.012   6.183 -1.3381 -0.9111 -1.7426
   62MOL    H1914781   0.507   3.136   6.083 -0.4585 -0.0431  1.1315
   62MOL    H2014782   0.743   2.981   6.171 -0.6571  0.3118 -1.3296
   62MOL    H2114783   0.587   2.940   6.354 -0.1428  1.0508  1.6904
   62MOL    H2214784   0.578   3.108   6.403 -0.7313  1.1169 -1.0307
   62MOL    H2314785   0.723   2.979   6.542  1.7596  2.5966  0.8023
   62MOL    H2414786   0.814   2.919   6.400 -1.5815  0.2491 -3.1613
   62MOL    H2514787   0.838   3.077   6.448  1.1990 -0.7977 -0.7224
   62MOL    C2614788   0.741   3.197   6.180 -0.0824  0.0050 -0.8456
   62MOL    C2714789   0.851   3.198   6.074  0.3667 -0.3032 -0.3918
   62MOL    C2814790   0.986   3.142   6.124 -0.0884  0.3761  0.2071
   62MOL    C2914791   1.055   3.197   6.247 -0.1621 -0.1401  0.6895
   62MOL    H3014792   0.789   3.228   6.273  0.1194 -2.5828 -0.0433
   62MOL    H3114793   0.665   3.275   6.178 -0.1926 -0.0373  0.8783
   62MOL    H3214794   0.832   3.136   5.987  0.2127 -0.1668 -0.4556
   62MOL    H3314795   1.052   3.130   6.039 -3.8236 -1.1257 -2.6350
   62MOL    H3414796   0.962   3.041   6.158  0.9106  0.5726  1.5520
   62MOL    H3514797   0.990   3.185   6.334 -2.4972  0.6246 -0.8989
   62MOL    H3614798   1.144   3.142   6.277 -0.4836 -1.2211 -0.2890
   62MOL    H3714799   1.074   3.302   6.225  2.1229 -0.9633 -1.6057
   62MOL    C3814800   0.867   3.342   6.016 -0.0604 -0.0964  0.3214
   62MOL    C3914801   0.759   3.379   5.909  0.0409  1.0415  0.5366
   62MOL    C4014802   0.758   3.294   5.778  0.4066  0.1002 -0.1367
   62MOL    C4114803   0.894   3.294   5.708 -0.2303  0.1055 -0.6775
   62MOL    H4214804   0.963   3.349   5.965 -0.9281  4.3215 -0.9156
   62MOL    H4314805   0.867   3.408   6.102  2.6809 -0.1025  0.3482
   62MOL    H4414806   0.662   3.350   5.949  0.3152 -0.2888  0.2667
   62MOL    H4514807   0.671   3.333   5.726 -0.3211  0.2902  1.1972
   62MOL    H4614808   0.740   3.187   5.786 -2.5138  0.6863  1.8737
   62MOL    H4714809   0.933   3.396   5.705  2.9264 -1.0652 -0.8298
   62MOL    H4814810   0.960   3.229   5.765  0.6470 -0.0450 -1.8657
   62MOL    H4914811   0.896   3.269   5.602  2.3544  0.6290 -0.7753
   62MOL    C5014812   0.757   3.534   5.889  0.1555 -0.0932  0.0752
   62MOL    C5114813   0.707   3.630   6.001 -0.0941  0.1142 -0.6103
   62MOL    C5214814   0.551   3.638   5.995  0.3262 -0.3434  0.0172
   62MOL    C5314815   0.468   3.513   6.033 -0.1558 -0.4262 -0.4445
   62MOL    H5414816   0.699   3.561   5.801  1.5166  2.6379 -0.0602
   62MOL    H5514817   0.863   3.546   5.865  0.6195 -1.8371  1.1502
   62MOL    H5614818   0.743   3.587   6.095  0.3928  0.1610 -0.7708
   62MOL    H5714819   0.521   3.678   5.898  0.2613  1.4687  0.7608
   62MOL    H5814820   0.526   3.721   6.062 -0.5510 -0.9955  0.5150
   62MOL    H5914821   0.445   3.454   5.944  0.0597  0.8937 -1.3910
   62MOL    H6014822   0.513   3.450   6.109 -1.2597 -1.3251 -0.5229
   62MOL    H6114823   0.369   3.548   6.062  0.3540  0.7641 -0.0946
   62MOL    C6214824   0.770   3.772   5.983  0.0645 -0.0552 -0.6028
   62MOL    C6314825   0.761   3.851   6.120 -0.8269 -0.1216  0.2839
   62MOL    C6414826   0.810   3.999   6.091 -0.6966  0.5302 -0.0803
   62MOL    C6514827   0.699   4.090   6.036 -0.7001 -0.5626 -0.3358
   62MOL    H6614828   0.727   3.836   5.906  2.2306  1.1340 -0.8619
   62MOL    H6714829   0.872   3.762   5.947  0.1367  1.9472 -1.0509
   62MOL    H6814830   0.660   3.866   6.157 -0.9623 -0.1842 -0.0654
   62MOL    H6914831   0.897   3.991   6.026 -0.9901 -0.8137 -0.3145
   62MOL    H7014832   0.845   4.044   6.184  1.5384 -3.4075  1.1005
   62MOL    H7114833   0.649   4.137   6.120  0.1804  0.9240 -0.6283
   62MOL    H7214834   0.746   4.166   5.973  1.5519 -1.5312  0.1156
   62MOL    H7314835   0.619   4.040   5.982  0.0726  0.5467 -2.5474
   62MOL    C7414836   0.842   3.780   6.228  0.5873  0.1297 -0.3881
   62MOL    C7514837   0.773   3.738   6.360 -0.0596 -0.2725 -0.0710
   62MOL    C7614838   0.728   3.860   6.446 -0.2885  0.1586  0.4838
   62MOL    C7714839   0.836   3.947   6.496 -0.3403 -0.3654  0.2392
   62MOL    H7814840   0.921   3.846   6.264 -0.3449  2.9308 -3.2933
   62MOL    H7914841   0.911   3.705   6.191  0.6453  0.5349 -1.1131
   62MOL    H8014842   0.682   3.680   6.345  0.4574 -1.4612  1.3138
   62MOL    H8114843   0.677   3.814   6.530  1.8277 -0.2346  1.6068
   62MOL    H8214844   0.658   3.915   6.383  1.5551 -0.1859 -1.9675
   62MOL    H8314845   0.889   3.988   6.410  1.2237 -0.2435  1.2581
   62MOL    H8414846   0.789   4.031   6.547  2.1854  0.4520  1.3048
   62MOL    H8514847   0.909   3.885   6.548 -1.3992 -2.9366 -1.2940
   62MOL    C8614848   0.866   3.640   6.428 -0.3919  0.2665  0.6888
   62MOL    C8714849   0.815   3.548   6.546 -0.0459  0.2005 -0.2993
   62MOL    C8814850   0.936   3.490   6.633  1.0667 -0.8173  0.5479
   62MOL    C8914851   1.023   3.378   6.565 -0.3560 -0.3887 -0.2790
   62MOL    H9014852   0.949   3.705   6.455  0.0536 -0.2977  0.6714
   62MOL    H9114853   0.897   3.580   6.343 -0.6158  0.5653  0.3922
   62MOL    H9214854   0.761   3.612   6.616 -0.7280 -0.2915 -0.3750
   62MOL    H9314855   0.899   3.450   6.727 -0.5756  2.2763  1.3135
   62MOL    H9414856   0.998   3.572   6.671  0.0319 -0.3868  1.3509
   62MOL    H9514857   0.974   3.280   6.562  0.9052 -1.1127  1.7978
   62MOL    H9614858   1.048   3.412   6.464  0.7212  0.3774  0.2372
   62MOL    H9714859   1.112   3.363   6.626 -0.5633  1.0434  0.3860
   62MOL    C9814860   0.711   3.434   6.511  0.1161  0.9663  0.0404
   62MOL    C9914861   0.563   3.460   6.551  0.1540 -0.0701 -0.5894
   62MOL   C10014862   0.528   3.403   6.689 -0.6388  0.6072 -0.0997
   62MOL   C10114863   0.520   3.248   6.689 -0.0082 -0.8025 -0.6504
   62MOL   H10214864   0.746   3.345   6.563 -1.0091 -0.8309 -2.1667
   62MOL   H10314865   0.721   3.407   6.406  0.4189 -2.3799  0.8694
   62MOL   H10414866   0.548   3.568   6.556 -3.9508 -0.4851 -1.7251
   62MOL   H10514867   0.436   3.440   6.735 -0.9254 -0.2729  0.0600
   62MOL   H10614868   0.614   3.414   6.755 -1.3296 -1.9434  1.3344
   62MOL   H10714869   0.484   3.220   6.788  3.0116 -1.4087  0.3210
   62MOL   H10814870   0.441   3.222   6.618  0.6291  0.8046 -1.9753
   62MOL   H10914871   0.616   3.197   6.681  1.4383  1.4129  1.9453
   62MOL   C11014872   0.473   3.420   6.431  0.5625  0.2353  0.6362
   62MOL   C11114873   0.314   3.451   6.436 -0.3412  0.4964 -0.3388
   62MOL   C11214874   0.246   3.390   6.316  0.4267 -0.4395 -0.2937
   62MOL   C11314875   0.224   3.244   6.338 -0.6701 -0.2136  0.4231
   62MOL   H11414876   0.485   3.312   6.421  0.1726  0.1637  0.9371
   62MOL   H11514877   0.526   3.468   6.348  0.6165 -0.6001  0.1786
   62MOL   H11614878   0.273   3.420   6.533 -1.0935  1.9475 -0.1850
   62MOL   H11714879   0.291   3.420   6.222  1.1947  0.4840  0.3563
   62MOL   H11814880   0.143   3.419   6.296  0.8073 -0.2391 -1.9549
   62MOL   H11914881   0.308   3.202   6.392  1.0261  0.6597 -1.4731
   62MOL   H12014882   0.130   3.226   6.391 -1.1002 -1.8542 -0.8502
   62MOL   H12114883   0.219   3.187   6.246 -0.7771  1.1534 -0.4363
   62MOL   C12214884   0.295   3.606   6.443 -0.1337 -0.0493  0.7261
   62MOL   C12314885   0.150   3.647   6.495 -0.1543 -0.4361 -0.3679
   62MOL   C12414886   0.095   3.776   6.419  0.2648  0.4979 -0.3576
   62MOL   C12514887   0.153   3.907   6.454 -0.6046 -0.0428 -0.2069
   62MOL   H12614888   0.318   3.649   6.346 -0.4513 -2.0579 -0.2652
   62MOL   H12714889   0.367   3.658   6.505  1.7211 -2.2216  0.4699
   62MOL   H12814890   0.089   3.565   6.457 -1.1436  0.2882 -0.3972
   62MOL   H12914891   7.692   3.773   6.426  0.1180  1.5256 -1.9311
   62MOL   H13014892   0.103   3.754   6.313 -1.5864  1.1832 -0.6586
   62MOL   H13114893   0.261   3.890   6.454 -0.6329 -0.2237 -0.1561
   62MOL   H13214894   0.146   3.982   6.375 -1.3263 -1.8806 -1.9339
   62MOL   H13314895   0.123   3.950   6.549  0.7962 -0.0872  0.2687
   62MOL   C13414896   0.127   3.642   6.644 -0.0358 -0.8241  0.5242
   62MOL   C13514897   7.690   3.669   6.696 -0.8503  0.0603 -0.1732
   62MOL   C13614898   7.675   3.780   6.807 -0.0423 -0.4093 -0.4038
   62MOL   C13714899   0.049   3.756   6.934  0.8927  0.3127 -0.0829
   62MOL   H13814900   0.179   3.732   6.680 -0.1454  0.6450 -2.8219
   62MOL   H13914901   0.170   3.557   6.696  0.3929  0.0539  1.6506
   62MOL   H14014902   7.629   3.714   6.618 -0.7730  0.8966  0.2412
   62MOL   H14114903   7.569   3.785   6.831  0.2670 -1.2747  1.2223
   62MOL   H14214904   7.704   3.874   6.760  0.8786  0.1308  1.2023
   62MOL   H14314905   0.034   3.651   6.962  1.4580 -0.8013 -3.7367
   62MOL   H14414906   0.154   3.774   6.908  0.8885  0.3760 -0.0574
   62MOL   H14514907   0.020   3.817   7.020 -0.6627 -0.9094  0.2863
   62MOL   C14614908   7.611   3.543   6.722  0.0190  0.4630  0.1448
   62MOL   C14714909   7.456   3.552   6.732  0.4181 -0.2588  0.4041
   62MOL   C14814910   7.411   3.520   6.879 -0.4756  0.8242 -0.0368
   62MOL   C14914911   7.261   3.546   6.908  0.4631 -0.1416 -0.2069
   62MOL   H15014912   7.659   3.497   6.809  3.8722  0.6118 -1.7957
   62MOL   H15114913   7.630   3.469   6.645 -1.5195 -1.8132  1.8707
   62MOL   H15214914   7.424   3.652   6.704  0.1096 -0.2434  0.8045
   62MOL   H15314915   7.471   3.583   6.945  5.2737 -2.7561 -1.4813
   62MOL   H15414916   7.435   3.416   6.901 -0.0938  0.2488 -2.9923
   62MOL   H15514917   7.228   3.647   6.883 -0.0664 -1.3492 -4.8400
   62MOL   H15614918   7.195   3.478   6.855 -2.8550  1.6952  1.4486
   62MOL   H15714919   7.248   3.530   7.015 -1.4031 -1.5028 -0.6176
   62MOL   C15814920   7.392   3.444   6.632 -0.5986  0.2395  0.2972
   62MOL   C15914921   7.402   3.490   6.481 -0.5291  0.4542 -0.2929
   62MOL   C16014922   7.368   3.642   6.450  0.5824  0.6018  0.1418
   62MOL   C16114923   7.231   3.689   6.500 -0.1855 -0.6338  0.5480
   62MOL   H16214924   7.284   3.433   6.649 -0.5389  0.4230  0.8083
   62MOL   H16314925   7.442   3.348   6.645  0.5596  0.7446 -0.4193
   62MOL   H16414926   7.508   3.477   6.463 -0.4837  0.8635 -0.3155
   62MOL   H16514927   7.373   3.656   6.342 -1.4108  2.5314  0.2432
   62MOL   H16614928   7.438   3.718   6.485  1.1359 -0.6257  1.7140
   62MOL   H16714929   7.146   3.640   6.454 -0.2719 -0.5496  0.6180
   62MOL   H16814930   7.238   3.688   6.609  0.0592 -3.5525  0.5357
   62MOL   H16914931   7.224   3.793   6.468  0.4190 -0.4890  0.8830
   62MOL   C17014932   7.321   3.384   6.396  0.3320 -0.1620 -0.4204
   62MOL   C17114933   7.356   3.233   6.413  0.3756 -0.3090 -0.3710
   62MOL   C17214934   7.480   3.194   6.342 -0.3295 -0.0846  0.3610
   62MOL   C17314935   7.535   3.060   6.391 -0.3402 -0.2677 -0.0205
   62MOL   H17414936   7.337   3.395   6.288  1.2861  1.6961 -0.1143
   62MOL   H17514937   7.219   3.405   6.428  0.6200 -1.0030  1.0760
   62MOL   H17614938   7.365   3.212   6.520  0.6422  0.2398 -0.2854
   62MOL   H17714939   7.558   3.268   6.361 -0.3999  0.3253 -0.8968
   62MOL   H17814940   7.484   3.200   6.233  2.5564 -0.3024  0.4193
   62MOL   H17914941   7.542   3.064   6.500 -0.7476  0.0609 -0.0030
   62MOL   H18014942   7.487   2.965   6.367  1.0094 -0.7708 -0.7909
   62MOL   H18114943   7.638   3.042   6.360 -1.1715 -2.7359 -1.5005
   62MOL   C18214944   7.242   3.141   6.358 -0.2308 -0.7855  0.2747
   62MOL   C18314945   7.162   3.059   6.464 -0.5857 -0.0650  0.2624
   62MOL   C18414946   7.132   2.918   6.406  0.2562  0.0424 -0.7748
   62MOL   C18514947   7.021   2.913   6.297  0.3888 -0.4940 -0.1015
   62MOL   H18614948   7.284   3.082   6.276  1.1294  1.4087 -0.6667
   62MOL   H18714949   7.177   3.207   6.301  0.7970 -0.3251 -0.4033
   62MOL   H18814950   7.232   3.032   6.543  0.8537 -0.7399 -1.2169
   62MOL   H18914951   7.111   2.845   6.484 -1.0556  2.1108  0.8790
   62MOL   H19014952   7.228   2.890   6.363  1.9004  1.4063  1.8355
   62MOL   H19114953   7.020   3.000   6.232  1.0241 -0.8784 -0.6347
   62MOL   H19214954   7.038   2.825   6.236  0.3289  0.2633 -1.2203
   62MOL   H19314955   6.923   2.906   6.344  1.2425 -1.6215  1.5480
   62MOL   C19414956   7.032   3.116   6.534  0.0768  0.8185 -0.4453
   62MOL   C19514957   7.052   3.217   6.646 -0.5399 -0.2932 -0.3615
   62MOL   C19614958   7.169   3.190   6.750 -0.8992  0.4830  0.2278
   62MOL   C19714959   7.148   3.061   6.830 -0.0515 -0.5284 -0.1615
   62MOL   H19814960   6.977   3.037   6.583 -0.1094  1.1058 -0.1893
   62MOL   H19914961   6.967   3.160   6.458  0.4033 -0.0630 -1.2478
   62MOL   H20014962   7.080   3.313   6.603 -0.5235 -1.9336 -4.2456
   62MOL   H20114963   7.172   3.268   6.826 -0.2257  1.5209 -0.8602
   62MOL   H20214964   7.265   3.185   6.700 -0.6062  1.9823  0.6083
   62MOL   H20314965   7.130   3.086   6.934  0.2638  2.1010 -0.6895
   62MOL   H20414966   7.075   2.991   6.791 -1.6222  0.9067  0.1483
   62MOL   H20514967   7.247   3.014   6.826  0.7480  1.1018 -0.0402
   62MOL   C20614968   6.914   3.240   6.720 -0.1534  0.9348 -0.0522
   62MOL   C20714969   6.805   3.319   6.647 -0.1494  0.0669  0.3952
   62MOL   C20814970   6.856   3.445   6.572  0.0959  0.0221 -0.0027
   62MOL   C20914971   6.933   3.548   6.651 -0.2202 -0.0594  0.4006
   62MOL   H21014972   6.928   3.284   6.819  1.1458 -0.8275  0.5483
   62MOL   H21114973   6.880   3.140   6.745 -0.2720  0.6922 -1.1718
   62MOL   H21214974   6.772   3.249   6.571 -0.5776 -1.9786  2.4258
   62MOL   H21314975   6.782   3.490   6.506 -0.3185 -1.5990 -0.6606
   62MOL   H21414976   6.921   3.410   6.492  0.1371  2.2510 -0.9737
   62MOL   H21514977   7.025   3.526   6.707  0.4226  0.2920 -0.5086
   62MOL   H21614978   6.969   3.614   6.572  0.5656 -2.5297 -1.3867
   62MOL   H21714979   6.872   3.592   6.729 -2.8812 -3.2185  0.2427
   62MOL   C21814980   6.685   3.355   6.741 -0.4723  0.0221  0.0773
   62MOL   C21914981   6.553   3.404   6.686  0.3242 -0.2939 -0.2350
   62MOL   C22014982   6.458   3.470   6.792 -0.0576  0.8009  0.5623
   62MOL   C22114983   6.495   3.619   6.818  0.1086  0.4238  0.7546
   62MOL   H22214984   6.725   3.436   6.802  3.4668 -3.2544  2.1717
   62MOL   H22314985   6.684   3.278   6.819 -1.4867 -0.6986 -0.6418
   62MOL   H22414986   6.574   3.483   6.614  0.4728 -0.2675 -0.1650
   62MOL   H22514987   6.457   3.413   6.884 -0.6225  1.9725  1.2835
   62MOL   H22614988   6.358   3.476   6.749  0.0032  3.0404  0.6690
   62MOL   H22714989   6.573   3.630   6.894 -1.1464 -0.2526  2.1765
   62MOL   H22814990   6.524   3.670   6.726 -2.5454 -2.3088 -1.6980
   62MOL   H22914991   6.404   3.669   6.852 -2.0478 -1.9636 -1.3479
   62MOL   C23014992   6.486   3.292   6.607 -0.5530  0.2910  0.2410
   62MOL   C23114993   6.468   3.163   6.674  0.1873  0.4080  0.5750
   62MOL   C23214994   6.430   3.048   6.578 -0.5795 -0.1396 -0.0084
   62MOL   C23314995   6.292   3.070   6.511 -0.1900 -0.1068  0.2903
   62MOL   H23414996   6.546   3.279   6.517 -2.0350  2.6746 -1.1429
   62MOL   H23514997   6.385   3.322   6.578 -0.3786 -0.3017 -1.0391
   62MOL   H23614998   6.564   3.132   6.717  1.0559 -1.7737 -2.7093
   62MOL   H23714999   6.418   2.957   6.636 -0.0129  0.9050  1.8007
   62MOL   H23815000   6.507   3.035   6.502  0.6931 -3.0916  1.6744
   62MOL   H23915001   6.269   2.991   6.439  0.9033  0.1636 -0.3606
   62MOL   H24015002   6.213   3.079   6.586  0.6218 -1.7063  1.3755
   62MOL   H24115003   6.291   3.162   6.453 -0.1082  0.0036  0.4664
   62MOL   H24215004   6.401   3.176   6.758  0.8665 -0.4574  1.2625
   63MOL     C115005   7.232   6.937   6.065  0.0225 -0.1370  0.0051
   63MOL     C215006   7.208   6.807   5.989 -1.2139 -0.6399 -1.4306
   63MOL     C315007   7.097   6.736   6.059 -0.4956 -0.2785  0.0049
   63MOL     C415008   6.968   6.804   6.041  0.3136 -0.2249  0.2842
   63MOL     H515009   7.148   7.007   6.058  0.0977 -0.0900 -0.4353
   63MOL     H615010   7.254   6.910   6.168 -0.8377  0.3903  0.3339
   63MOL     H715011   7.175   6.837   5.890  0.9924  2.5538 -1.2767
   63MOL     H815012   7.128   6.717   6.162 -2.0078  0.9157  0.6938
   63MOL     H915013   7.085   6.634   6.025  1.0012 -0.0293 -1.3364
   63MOL    H1015014   6.962   6.909   6.069 -1.0580 -0.3387  0.4583
   63MOL    H1115015   6.920   6.797   5.943  1.2003  2.2749 -0.3497
   63MOL    H1215016   6.905   6.742   6.105 -1.4171  2.1572  0.9289
   63MOL    H1315017   7.319   6.993   6.032 -0.8116  0.5248 -1.1034
   63MOL    C1415018   7.346   6.736   5.983 -0.6894  0.6339 -0.0809
   63MOL    C1515019   7.367   6.610   5.891  0.2061 -0.9049  0.2199
   63MOL    C1615020   7.501   6.554   5.915 -0.1709  0.3682 -0.3044
   63MOL    C1715021   7.619   6.635   5.873 -0.0884 -0.6977 -0.4699
   63MOL    H1815022   7.395   6.726   6.080 -0.7956  0.6726 -0.0234
   63MOL    H1915023   7.405   6.817   5.940 -0.6558 -0.1283 -1.5095
   63MOL    H2015024   7.293   6.533   5.911 -0.1573 -0.8831 -1.0065
   63MOL    H2115025   7.509   6.463   5.856 -0.0589 -0.7243  1.3658
   63MOL    H2215026   7.517   6.526   6.019  3.0127 -2.8567 -1.5725
   63MOL    H2315027   7.637   6.725   5.932 -0.2831 -0.4157 -0.8383
   63MOL    H2415028   7.702   6.566   5.887 -0.3063 -1.3045 -2.0278
   63MOL    H2515029   7.606   6.665   5.769  0.2092 -2.9089 -1.1736
   63MOL    C2615030   7.335   6.643   5.740  0.5688  0.1882 -0.2264
   63MOL    C2715031   7.310   6.529   5.644 -0.6912  0.6072  0.0060
   63MOL    C2815032   7.322   6.577   5.498  0.0983  0.4864  0.3140
   63MOL    C2915033   7.459   6.610   5.436 -0.4533  0.4066 -0.0314
   63MOL    H3015034   7.415   6.709   5.704  0.1666  1.2506  0.7755
   63MOL    H3115035   7.246   6.705   5.733  1.3475  1.2958 -0.4435
   63MOL    H3215036   7.377   6.445   5.663  0.7231  1.5368 -0.8648
   63MOL    H3315037   7.245   6.652   5.479  1.0984  0.9610 -1.9967
   63MOL    H3415038   7.275   6.502   5.435 -1.7668 -0.0030  2.2606
   63MOL    H3515039   7.538   6.539   5.458 -2.1294 -1.3629  0.3856
   63MOL    H3615040   7.448   6.616   5.328  1.1278 -0.8840 -0.2663
   63MOL    H3715041   7.496   6.705   5.475  0.0171  0.2240 -0.0306
   63MOL    C3815042   7.171   6.467   5.672  0.6570 -0.7030  0.0333
   63MOL    C3915043   7.159   6.325   5.610 -0.7231 -0.0924  0.2558
   63MOL    C4015044   7.025   6.303   5.527  0.3093 -0.0385 -0.5547
   63MOL    C4115045   6.993   6.419   5.434 -0.3829 -0.0335 -0.4575
   63MOL    H4215046   7.104   6.545   5.636  1.0695 -0.4633 -0.2162
   63MOL    H4315047   7.141   6.460   5.777 -0.4171 -2.3060 -0.3596
   63MOL    H4415048   7.240   6.310   5.539 -0.5079 -1.6758  0.8120
   63MOL    H4515049   6.949   6.306   5.605 -0.0762 -0.1386 -0.9311
   63MOL    H4615050   7.016   6.208   5.474 -0.5739 -0.3725  0.1892
   63MOL    H4715051   6.968   6.512   5.486 -2.0718 -0.2606 -0.8363
   63MOL    H4815052   7.068   6.437   5.358  0.2465  2.6568  0.7223
   63MOL    H4915053   6.904   6.411   5.372 -0.4441 -0.8134 -0.2767
   63MOL    C5015054   7.172   6.216   5.716 -0.2880 -0.0388  0.3778
   63MOL    C5115055   7.211   6.071   5.660 -0.7418 -0.7830 -0.8369
   63MOL    C5215056   7.144   5.958   5.740 -0.4558 -0.5153 -0.3468
   63MOL    C5315057   7.003   5.942   5.697 -0.3617  0.3168 -0.5242
   63MOL    H5415058   7.082   6.225   5.777 -0.4292 -0.1624  0.1870
   63MOL    H5515059   7.244   6.247   5.793  1.4923 -0.6352 -1.0120
   63MOL    H5615060   7.179   6.078   5.556  1.5735  1.4758 -1.4210
   63MOL    H5715061   7.163   5.971   5.846  0.1954 -1.4074 -0.3531
   63MOL    H5815062   7.187   5.859   5.720  1.0553 -0.4127  2.2167
   63MOL    H5915063   6.962   6.041   5.679  1.3875  1.2349  0.3901
   63MOL    H6015064   7.001   5.887   5.603  2.4163 -1.1561  0.2117
   63MOL    H6115065   6.948   5.897   5.780  0.9322  0.3831  0.3810
   63MOL    C6215066   7.367   6.055   5.658 -0.6687 -0.1953  0.0821
   63MOL    C6315067   7.421   5.946   5.560 -0.0295 -0.2891 -0.4300
   63MOL    C6415068   7.573   5.902   5.587 -0.7930  0.2796 -0.0666
   63MOL    C6515069   7.600   5.778   5.671 -0.9784  0.9168  0.3780
   63MOL    H6615070   7.409   6.038   5.757 -0.8602 -1.8674 -0.1009
   63MOL    H6715071   7.404   6.152   5.625  0.3724 -0.4802  0.3791
   63MOL    H6815072   7.349   5.865   5.572 -1.8254  0.9692 -2.4574
   63MOL    H6915073   7.630   5.985   5.629  0.2928  0.0489 -1.0862
   63MOL    H7015074   7.621   5.880   5.492  0.6278  0.2028  0.6614
   63MOL    H7115075   7.586   5.686   5.614 -0.1745  0.2410  1.2397
   63MOL    H7215076   7.700   5.767   5.714 -0.9521 -3.0994 -0.4936
   63MOL    H7315077   7.533   5.767   5.756  0.8055  1.9811  1.9500
   63MOL    C7415078   7.403   5.975   5.412  0.0131 -0.2516 -0.1030
   63MOL    C7515079   7.380   5.856   5.317 -0.3846 -0.4677 -0.6842
   63MOL    C7615080   7.421   5.894   5.177  0.0362 -0.1109  0.6204
   63MOL    C7715081   7.565   5.893   5.156  0.2343 -0.0050 -0.1347
   63MOL    H7815082   7.484   6.036   5.372 -0.4405  0.9504  0.8213
   63MOL    H7915083   7.316   6.038   5.396 -2.3228 -3.5465 -0.8591
   63MOL    H8015084   7.439   5.769   5.347  2.0806  1.2387 -0.3676
   63MOL    H8115085   7.370   5.984   5.142  1.7923  0.4821 -0.4746
   63MOL    H8215086   7.387   5.811   5.114  2.7659 -0.3399 -0.6080
   63MOL    H8315087   7.605   5.803   5.202  1.1823  1.9505  3.0282
   63MOL    H8415088   7.595   5.897   5.051  0.3692  1.5484 -0.0546
   63MOL    H8515089   7.616   5.980   5.197  0.0665 -0.4902  1.1240
   63MOL    C8615090   7.232   5.804   5.314 -0.6109  0.0492 -0.2155
   63MOL    C8715091   7.222   5.662   5.253 -0.2814  0.3471  0.0259
   63MOL    C8815092   7.098   5.658   5.157  0.1664 -0.1513  0.1991
   63MOL    C8915093   7.081   5.542   5.063 -0.3856 -0.0635 -0.4842
   63MOL    H9015094   7.162   5.871   5.265  0.4072  0.6915 -0.8040
   63MOL    H9115095   7.204   5.809   5.419 -3.0835 -3.0118 -0.6758
   63MOL    H9215096   7.318   5.637   5.208  0.7293  0.8871  1.8452
   63MOL    H9315097   7.107   5.748   5.097  2.3407  0.9274  2.0599
   63MOL    H9415098   7.014   5.680   5.223  0.2506  0.5789  0.0665
   63MOL    H9515099   6.997   5.571   4.999 -1.6198  1.2086  1.6849
   63MOL    H9615100   7.171   5.546   5.001 -0.0320 -1.9001 -0.1238
   63MOL    H9715101   7.082   5.441   5.105  2.6289  0.6847  1.4221
   63MOL    C9815102   7.217   5.545   5.349  0.1112  0.4649  0.0450
   63MOL    C9915103   7.290   5.414   5.315 -0.6800  0.0088  0.2984
   63MOL   C10015104   7.213   5.284   5.352  0.6554 -0.3262  0.2985
   63MOL   C10115105   7.175   5.285   5.502  0.0444 -0.1512  0.2732
   63MOL   H10215106   7.112   5.523   5.363  0.1884 -1.3352 -1.7927
   63MOL   H10315107   7.260   5.575   5.444 -0.1247 -1.9294  0.9358
   63MOL   H10415108   7.291   5.410   5.206  1.1651 -1.2653  0.3475
   63MOL   H10515109   7.280   5.199   5.335  1.4557 -0.2467  2.8238
   63MOL   H10615110   7.129   5.274   5.284  1.1453 -0.8122 -0.2415
   63MOL   H10715111   7.101   5.208   5.526  0.0890  0.1007  1.2659
   63MOL   H10815112   7.265   5.273   5.562  0.4019 -1.7541 -0.5549
   63MOL   H10915113   7.134   5.382   5.531  0.8992  1.1974 -2.8236
   63MOL   C11015114   7.438   5.432   5.365 -0.8923  0.4697  0.5203
   63MOL   C11115115   7.544   5.335   5.305  0.3814  1.2760 -0.7077
   63MOL   C11215116   7.682   5.349   5.373 -0.5370 -0.1154 -0.5840
   63MOL   C11315117   0.044   5.487   5.383  0.5533  0.5561  0.1541
   63MOL   H11415118   7.427   5.420   5.473  0.9834  1.0126  0.7858
   63MOL   H11515119   7.472   5.536   5.362 -0.7085  0.3812 -0.5008
   63MOL   H11615120   7.505   5.234   5.318 -0.0937  1.2238 -2.3800
   63MOL   H11715121   0.058   5.286   5.339 -0.4142  1.1612 -2.7348
   63MOL   H11815122   7.669   5.328   5.479 -1.4743  1.3283 -0.4029
   63MOL   H11915123   0.136   5.497   5.441 -0.2770 -1.7540  1.9399
   63MOL   H12015124   0.061   5.525   5.282  0.3086 -0.9492 -0.4553
   63MOL   H12115125   7.678   5.558   5.425  0.2565  0.6112 -0.4419
   63MOL   C12215126   7.565   5.362   5.147 -0.0495 -1.2860 -0.1295
   63MOL   C12315127   7.494   5.260   5.051 -0.2998  0.2588 -0.3914
   63MOL   C12415128   7.536   5.113   5.062 -0.0756  0.6946 -0.3198
   63MOL   C12515129   7.450   5.024   4.973 -0.4558 -0.2316 -0.2451
   63MOL   H12615130   7.672   5.373   5.129  0.4397 -0.3695  3.1550
   63MOL   H12715131   7.528   5.461   5.119 -1.1802 -0.8205  2.8871
   63MOL   H12815132   7.386   5.271   5.053 -0.3905 -0.7627  0.9885
   63MOL   H12915133   7.519   5.085   5.166  2.4061  1.1546  0.2603
   63MOL   H13015134   7.640   5.084   5.047 -0.7881 -2.6468  0.7592
   63MOL   H13115135   7.454   4.919   5.001  0.2236 -0.2982 -0.5908
   63MOL   H13215136   7.346   5.056   4.974 -0.3083  0.4135 -1.9781
   63MOL   H13315137   7.488   5.022   4.870  0.0005 -0.9696 -0.0671
   63MOL   C13415138   7.530   5.304   4.907 -0.3152  0.3028  0.3369
   63MOL   C13515139   7.430   5.398   4.831  0.8765 -0.7917 -0.7046
   63MOL   C13615140   7.316   5.310   4.767  0.1039 -0.3671  0.0034
   63MOL   C13715141   7.187   5.381   4.721  0.4293 -0.3985  0.4214
   63MOL   H13815142   7.551   5.216   4.847 -1.9177  1.0746 -1.3845
   63MOL   H13915143   7.623   5.361   4.911 -0.0835  0.1203 -2.0530
   63MOL   H14015144   7.391   5.464   4.908 -2.9294 -2.5710 -0.9639
   63MOL   H14115145   7.288   5.239   4.845 -0.6408  0.8078  0.8416
   63MOL   H14215146   7.359   5.271   4.675 -2.8734 -1.9536 -0.7876
   63MOL   H14315147   7.117   5.316   4.668  0.8494 -1.6014  1.3048
   63MOL   H14415148   7.137   5.425   4.808  2.1770  1.6286  0.4341
   63MOL   H14515149   7.214   5.462   4.654  1.0624 -1.4606 -0.6084
   63MOL   C14615150   7.497   5.489   4.729  0.4261 -0.3322 -0.4213
   63MOL   C14715151   7.553   5.624   4.786  0.8803  0.0749  0.2560
   63MOL   C14815152   7.448   5.729   4.815 -0.3530 -1.0187  0.4049
   63MOL   C14915153   7.386   5.781   4.683  0.4754  0.8346 -0.1666
   63MOL   H15015154   7.436   5.514   4.643  0.8325 -0.3889 -0.7267
   63MOL   H15115155   7.582   5.434   4.689  0.3225 -0.9708  0.2137
   63MOL   H15215156   7.583   5.603   4.889 -1.4273  0.0575  0.9446
   63MOL   H15315157   7.496   5.815   4.861  1.4648 -0.0846 -3.0257
   63MOL   H15415158   7.369   5.701   4.885  0.7676 -2.2599  1.1939
   63MOL   H15515159   7.316   5.862   4.705  0.1093  0.6677 -0.6982
   63MOL   H15615160   7.454   5.824   4.610  1.1683 -1.8539 -1.1440
   63MOL   H15715161   7.320   5.711   4.632  0.3950  1.4431 -0.9077
   63MOL   C15815162   7.680   5.676   4.715 -0.3733  0.3278  0.6749
   63MOL   C15915163   0.103   5.591   4.754 -0.3248 -0.1056  0.4781
   63MOL   C16015164   0.194   5.673   4.842 -0.3638  0.6233  0.6555
   63MOL   C16115165   0.128   5.714   4.970 -0.0963  0.7511  0.0887
   63MOL   H16215166   7.706   5.780   4.737  0.4989  0.3183 -0.2687
   63MOL   H16315167   7.664   5.664   4.608 -1.1680  0.7431  0.7432
   63MOL   H16415168   0.080   5.503   4.814 -0.8571  0.2946  0.8671
   63MOL   H16515169   0.228   5.766   4.797 -0.0924  0.8052  1.2301
   63MOL   H16615170   0.283   5.614   4.862 -1.3935 -1.3469 -0.3936
   63MOL   H16715171   0.109   5.624   5.028 -0.7401 -0.2344 -1.6012
   63MOL   H16815172   0.182   5.790   5.027 -0.1570  1.0238 -0.2164
   63MOL   H16915173   0.030   5.760   4.957  0.1732  1.3116  0.0545
   63MOL   C17015174   0.171   5.530   4.639 -0.2964 -0.2341  0.7293
   63MOL   C17115175   0.257   5.402   4.667 -0.1070  0.1684  0.0386
   63MOL   C17215176   0.355   5.372   4.550 -0.5921  1.1903 -0.1620
   63MOL   C17315177   0.471   5.471   4.540 -0.7741 -0.4692 -0.3974
   63MOL   H17415178   0.231   5.608   4.592 -1.2901 -0.3301 -0.7228
   63MOL   H17515179   0.090   5.498   4.574 -0.0514  0.5567  0.0199
   63MOL   H17615180   0.326   5.429   4.746  0.7680  2.9174 -1.5935
   63MOL   H17715181   0.308   5.366   4.452 -0.2689 -0.8380 -0.2243
   63MOL   H17815182   0.399   5.272   4.558 -0.2946  1.4110  0.9765
   63MOL   H17915183   0.434   5.568   4.509  0.4076  0.2253  0.3201
   63MOL   H18015184   0.539   5.476   4.626  1.3099 -4.1734 -1.7135
   63MOL   H18115185   0.528   5.442   4.452 -0.4295 -1.7201  0.2292
   63MOL   C18215186   0.169   5.272   4.697  0.6457 -0.0228 -0.6446
   63MOL   C18315187   0.238   5.176   4.797  0.0012 -0.2408 -0.4865
   63MOL   C18415188   0.155   5.044   4.794 -0.2552 -0.3836 -0.1507
   63MOL   C18515189   0.210   4.924   4.875 -0.0950 -0.0691 -0.6213
   63MOL   H18615190   0.159   5.223   4.600 -2.7672 -3.8924  1.5563
   63MOL   H18715191   0.070   5.297   4.734  0.9580 -1.4026  1.1569
   63MOL   H18815192   0.336   5.149   4.756 -0.5300 -1.4995 -0.9622
   63MOL   H18915193   0.152   5.010   4.690  0.1955  1.2595 -0.7189
   63MOL   H19015194   0.055   5.061   4.834 -0.0332 -1.0571  0.7020
   63MOL   H19115195   0.212   4.940   4.983 -2.7734 -0.0041 -0.5542
   63MOL   H19215196   0.151   4.835   4.852  0.4240 -0.2504 -1.2730
   63MOL   H19315197   0.313   4.894   4.853  0.8035  0.6379  2.4171
   63MOL   C19415198   0.246   5.232   4.942 -0.0415 -0.2877 -0.2131
   63MOL   C19515199   0.389   5.265   4.995 -0.7666 -0.4187  0.4276
   63MOL   C19615200   0.472   5.130   5.029  0.0886  0.1246 -0.3041
   63MOL   C19715201   0.614   5.159   5.060  0.3919 -0.4033  0.0858
   63MOL   H19815202   0.205   5.156   5.009 -1.2200 -0.1455 -0.7536
   63MOL   H19915203   0.182   5.320   4.939 -1.0821 -1.0673 -2.9190
   63MOL   H20015204   0.437   5.313   4.910 -2.3157  1.1519  0.4125
   63MOL   H20115205   0.480   5.072   4.936  0.9668  0.5409 -0.4945
   63MOL   H20215206   0.426   5.068   5.106 -0.1411 -0.4915 -0.9324
   63MOL   H20315207   0.617   5.187   5.165  2.3313 -2.7316  0.7124
   63MOL   H20415208   0.679   5.072   5.047 -0.9434 -0.9364 -3.6748
   63MOL   H20515209   0.648   5.240   4.996 -2.2552  1.4290  0.9518
   63MOL   C20615210   0.373   5.367   5.102  0.4923  0.0985  0.2816
   63MOL   C20715211   0.491   5.459   5.119  0.4813 -1.2265  0.0417
   63MOL   C20815212   0.484   5.524   5.258 -0.7691 -0.5940  0.7747
   63MOL   C20915213   0.486   5.433   5.380 -0.3080  0.2140 -0.0727
   63MOL   H21015214   0.354   5.305   5.189  2.5715 -0.4722  0.3516
   63MOL   H21115215   0.283   5.429   5.091 -0.2918 -0.7844  1.6484
   63MOL   H21215216   0.585   5.404   5.112  1.3956  0.1489  1.2014
   63MOL   H21315217   0.390   5.580   5.265 -0.8131 -0.5367 -0.1873
   63MOL   H21415218   0.566   5.595   5.265 -3.2097  2.4667 -0.3771
   63MOL   H21515219   0.501   5.329   5.349 -0.9989  0.2189 -0.4508
   63MOL   H21615220   0.551   5.470   5.458  1.3222  1.0839 -1.7933
   63MOL   H21715221   0.384   5.424   5.419 -0.9084  1.8910 -1.2031
   63MOL   C21815222   0.503   5.571   5.008  0.1422 -0.1101  0.1901
   63MOL   C21915223   0.640   5.638   4.994  0.5054 -1.0493  0.5350
   63MOL   C22015224   0.630   5.793   5.013  0.8685 -1.1167 -0.4074
   63MOL   C22115225   0.534   5.867   4.911 -0.0045 -0.2766  0.7226
   63MOL   H22215226   0.426   5.647   5.017 -0.7801 -0.6842 -2.4762
   63MOL   H22315227   0.482   5.525   4.912  0.2137 -3.0609  1.5100
   63MOL   H22415228   0.686   5.599   5.084  0.4167 -1.5194  0.3744
   63MOL   H22515229   0.726   5.844   5.002 -0.4612  1.2031 -1.3928
   63MOL   H22615230   0.594   5.811   5.114  0.9429 -1.5800 -0.2931
   63MOL   H22715231   0.539   5.975   4.930  1.4383 -0.1573 -0.3069
   63MOL   H22815232   0.578   5.852   4.813 -3.3533  0.7591 -1.0256
   63MOL   H22915233   0.430   5.835   4.904 -0.6511  1.6599  1.1302
   63MOL   C23015234   0.726   5.602   4.869 -0.2212 -0.1393 -0.1654
   63MOL   C23115235   0.749   5.449   4.847  0.2059  0.5872 -0.2145
   63MOL   C23215236   0.813   5.405   4.713  0.5569 -0.2606 -0.1131
   63MOL   C23315237   0.801   5.245   4.694 -0.1830  0.7326 -0.0617
   63MOL   H23415238   0.812   5.668   4.855  0.8425 -0.7907  2.8777
   63MOL   H23515239   0.660   5.631   4.787 -0.5549  2.7162  1.0423
   63MOL   H23615240   0.815   5.413   4.926  0.2374  1.1776  0.0266
   63MOL   H23715241   0.917   5.436   4.704  0.0739  1.5493  0.2783
   63MOL   H23815242   0.756   5.451   4.632 -1.3929 -1.8567  0.3203
   63MOL   H23915243   0.870   5.196   4.763  0.4970  0.4240 -0.9445
   63MOL   H24015244   0.703   5.198   4.699 -0.3017  1.0268  0.4398
   63MOL   H24115245   0.843   5.206   4.601  0.0034  0.4061  0.1630
   63MOL   H24215246   0.656   5.392   4.854  0.2740  0.5412  0.3634
   64MOL     C115247   1.615   6.844   3.935 -0.0490  0.3904 -0.1271
   64MOL     C215248   1.718   6.863   3.822 -0.8987  0.4305  0.1522
   64MOL     C315249   1.659   6.824   3.677 -0.5769  0.0203  0.2320
   64MOL     C415250   1.526   6.900   3.644  1.2200 -0.3295 -0.2688
   64MOL     H515251   1.663   6.844   4.033 -0.4729  4.3321  0.1623
   64MOL     H615252   1.546   6.928   3.946 -0.8340 -0.0142 -1.8078
   64MOL     H715253   1.741   6.968   3.803  1.0172  0.0280  0.0816
   64MOL     H815254   1.629   6.719   3.678 -0.2464 -0.1141 -2.0585
   64MOL     H915255   1.738   6.840   3.604 -0.3357 -0.1643  0.4493
   64MOL    H1015256   1.525   7.006   3.669  1.8032 -0.9945  2.7086
   64MOL    H1115257   1.509   6.905   3.536 -0.2189 -0.1320 -0.0415
   64MOL    H1215258   1.442   6.848   3.690  1.1698  0.3955  0.4674
   64MOL    H1315259   1.560   6.750   3.932 -2.2781  1.6750 -0.1010
   64MOL    C1415260   1.848   6.780   3.845  0.1606 -0.1675 -0.2710
   64MOL    C1515261   1.953   6.838   3.950  0.1933 -0.7489  0.3094
   64MOL    C1615262   2.061   6.932   3.889 -0.6831 -0.1525  0.4978
   64MOL    C1715263   2.010   7.042   3.793  0.0492 -0.5589  0.0916
   64MOL    H1815264   1.897   6.774   3.748 -2.5072  1.7428 -1.8053
   64MOL    H1915265   1.827   6.674   3.858 -2.9403  0.4360  0.1049
   64MOL    H2015266   1.896   6.907   4.013  2.4796  1.8548 -0.3931
   64MOL    H2115267   2.138   6.870   3.843  1.4770 -0.7330  4.6875
   64MOL    H2215268   2.110   6.972   3.977  1.8761  0.4066 -1.1268
   64MOL    H2315269   1.988   7.012   3.691 -1.0398 -1.4758  0.5792
   64MOL    H2415270   1.932   7.097   3.845  2.1459  0.9534  1.7480
   64MOL    H2515271   2.088   7.116   3.775  0.4523 -1.0772 -0.3079
   64MOL    C2615272   2.020   6.716   4.027 -0.8827  0.0907  0.4814
   64MOL    C2715273   1.927   6.643   4.123 -0.7002  0.3696  0.7877
   64MOL    C2815274   1.878   6.730   4.253  0.1671  0.0097 -0.2921
   64MOL    C2915275   1.993   6.799   4.322 -0.4307 -0.3085 -0.0730
   64MOL    H3015276   2.108   6.747   4.085 -1.4063  0.8418  0.8866
   64MOL    H3115277   2.051   6.651   3.945  2.8689  0.8414  1.1907
   64MOL    H3215278   1.836   6.621   4.067 -1.8670  1.1343  2.3334
   64MOL    H3315279   1.830   6.662   4.323  0.2983  0.7805  0.5474
   64MOL    H3415280   1.796   6.790   4.212  0.6308 -0.5592 -2.1198
   64MOL    H3515281   2.073   6.729   4.344 -1.2693 -1.9514 -2.1650
   64MOL    H3615282   2.034   6.882   4.263 -0.6301 -1.0779 -1.3080
   64MOL    H3715283   1.967   6.837   4.421 -0.6375  1.1328 -0.6639
   64MOL    C3815284   1.982   6.510   4.173 -0.0884 -0.2725  0.3076
   64MOL    C3915285   2.032   6.403   4.064  0.7437 -0.6876 -0.9076
   64MOL    C4015286   1.952   6.275   4.090  0.7149  0.2813  0.0140
   64MOL    C4115287   1.812   6.262   4.025  0.6726 -0.0423 -0.1344
   64MOL    H4215288   1.906   6.466   4.239  2.1663 -2.1631  1.7250
   64MOL    H4315289   2.067   6.531   4.238 -1.2212 -0.2734  1.8345
   64MOL    H4415290   2.007   6.442   3.965 -1.0161  1.0928  0.2043
   64MOL    H4515291   1.946   6.252   4.196  1.3160 -0.0368 -0.0180
   64MOL    H4615292   2.016   6.190   4.064 -1.4584 -2.2303  2.5473
   64MOL    H4715293   1.746   6.342   4.060  0.0812  0.0501 -1.4310
   64MOL    H4815294   1.820   6.271   3.917  1.0429  1.7772  0.0307
   64MOL    H4915295   1.761   6.168   4.046  0.2474  0.1481 -0.3043
   64MOL    C5015296   2.184   6.372   4.071 -0.0336  0.3567  0.2276
   64MOL    C5115297   2.247   6.306   3.939 -0.0162 -0.0940 -0.1075
   64MOL    C5215298   2.372   6.216   3.978  0.4906 -0.0181  0.0710
   64MOL    C5315299   2.442   6.134   3.870  0.0558  0.7108 -0.4352
   64MOL    H5415300   2.205   6.296   4.146 -0.3721 -1.2725 -1.3172
   64MOL    H5515301   2.232   6.466   4.098  0.8635  0.0301 -0.2233
   64MOL    H5615302   2.167   6.243   3.900  0.1776  0.1059 -0.8288
   64MOL    H5715303   2.357   6.148   4.062 -0.1686  1.3136  1.0595
   64MOL    H5815304   2.453   6.276   4.020  0.2704 -1.5737  2.8591
   64MOL    H5915305   2.469   6.198   3.786 -0.0877  1.5595  0.1633
   64MOL    H6015306   2.537   6.089   3.899 -0.8025 -1.7409 -1.2610
   64MOL    H6115307   2.373   6.064   3.822  1.7187 -1.1973 -0.1070
   64MOL    C6215308   2.257   6.410   3.822 -0.3412  0.1298  0.9461
   64MOL    C6315309   2.329   6.541   3.841 -0.5899 -0.2650  0.1918
   64MOL    C6415310   2.306   6.632   3.711  0.5329 -0.6928  0.0007
   64MOL    C6515311   2.359   6.560   3.580  0.4920  0.2333  0.8902
   64MOL    H6615312   2.151   6.428   3.802  0.1938  1.3742 -0.9064
   64MOL    H6715313   2.299   6.354   3.738  0.1906 -0.5962  1.6981
   64MOL    H6815314   2.276   6.595   3.920  2.3917  0.7311  1.5935
   64MOL    H6915315   2.344   6.732   3.728 -0.1979 -0.6210  1.2373
   64MOL    H7015316   2.199   6.648   3.703  0.9484  2.9514  1.1362
   64MOL    H7115317   2.373   6.626   3.494 -1.0700  3.2434  2.8770
   64MOL    H7215318   2.453   6.504   3.590 -0.3107 -1.2917  0.1464
   64MOL    H7315319   2.291   6.477   3.560 -0.7941  0.8702  2.6244
   64MOL    C7415320   2.477   6.518   3.882  0.3737  0.5241  0.3922
   64MOL    C7515321   2.571   6.649   3.896 -0.4632 -0.0553  0.5528
   64MOL    C7615322   2.705   6.603   3.946  0.3338 -0.4557  0.7021
   64MOL    C7715323   2.795   6.536   3.839  1.0103 -0.0171 -0.1171
   64MOL    H7815324   2.524   6.439   3.823  2.4987  1.4792  0.7678
   64MOL    H7915325   2.475   6.479   3.983  2.0325 -2.3307 -0.6281
   64MOL    H8015326   2.579   6.686   3.794 -2.0250 -3.2210 -0.7823
   64MOL    H8115327   2.709   6.535   4.031  0.3110 -1.5087 -0.1225
   64MOL    H8215328   2.759   6.688   3.987  0.7599 -0.3075 -0.1620
   64MOL    H8315329   2.899   6.522   3.868  0.7479  0.9854  1.3501
   64MOL    H8415330   2.753   6.438   3.816  0.1446  0.6043 -1.2471
   64MOL    H8515331   2.787   6.593   3.746 -0.0307 -0.1815 -0.1376
   64MOL    C8615332   2.509   6.761   3.982 -0.7691  0.1164  0.1069
   64MOL    C8715333   2.581   6.901   3.982 -0.4140 -0.3492 -0.2429
   64MOL    C8815334   2.537   6.968   4.112 -0.4675 -0.4392  0.8238
   64MOL    C8915335   2.614   6.919   4.240 -0.1167 -0.1573  0.3113
   64MOL    H9015336   2.518   6.727   4.085 -3.2772  0.2873  0.4193
   64MOL    H9115337   2.402   6.768   3.962 -1.3675 -1.5743  2.4245
   64MOL    H9215338   2.689   6.886   3.986 -0.1215  0.9658 -2.1698
   64MOL    H9315339   2.431   6.953   4.129 -0.6410 -0.1736  0.0247
   64MOL    H9415340   2.554   7.076   4.115 -0.6182 -0.2851 -2.1951
   64MOL    H9515341   2.608   6.811   4.256 -1.1982  0.0685  1.5205
   64MOL    H9615342   2.718   6.947   4.231 -0.4166  1.4858  1.7303
   64MOL    H9715343   2.584   6.974   4.329 -1.2339  0.2211 -0.2897
   64MOL    C9815344   2.551   6.988   3.854 -0.0004  0.0268  0.1054
   64MOL    C9915345   2.673   7.052   3.792 -0.0203  0.1532 -0.2500
   64MOL   C10015346   2.775   6.949   3.735  0.4128  0.1136  0.8180
   64MOL   C10115347   2.742   6.881   3.606  0.0341 -0.1833 -0.5809
   64MOL   H10215348   2.468   7.056   3.874  1.1347  1.1317  1.1748
   64MOL   H10315349   2.503   6.930   3.776  0.6686  0.0295 -0.3143
   64MOL   H10415350   2.626   7.100   3.706  2.9937  0.7794 -1.6265
   64MOL   H10515351   2.779   6.872   3.812 -0.8587 -0.5030  0.2802
   64MOL   H10615352   2.878   6.984   3.736  0.8930 -1.1072 -1.5316
   64MOL   H10715353   2.641   6.842   3.606 -0.2599  0.4046 -4.1099
   64MOL   H10815354   2.750   6.949   3.521 -1.7156  1.2988  0.4141
   64MOL   H10915355   2.812   6.799   3.588 -0.6880 -1.5627  2.5999
   64MOL   C11015356   2.723   7.156   3.892  0.3797  0.2223  0.4350
   64MOL   C11115357   2.821   7.267   3.839  0.3451 -0.5235  0.1442
   64MOL   C11215358   2.908   7.312   3.960  0.3668 -0.4554 -0.4631
   64MOL   C11315359   3.053   7.257   3.972  0.2529  0.5773  0.6747
   64MOL   H11415360   2.778   7.096   3.965  2.3640  1.3970 -0.0422
   64MOL   H11515361   2.634   7.202   3.934 -0.0128  0.0571 -0.2235
   64MOL   H11615362   2.887   7.215   3.769  1.0317  1.3338 -0.6005
   64MOL   H11715363   2.854   7.272   4.046 -1.9198 -0.1938 -1.7537
   64MOL   H11815364   2.907   7.419   3.982 -3.4931 -0.4566 -0.3235
   64MOL   H11915365   3.108   7.281   4.063  1.2532  1.0972 -0.0540
   64MOL   H12015366   3.046   7.151   3.946 -0.1448  0.9854 -0.9798
   64MOL   H12115367   3.109   7.299   3.888 -2.1356  0.1557 -1.1701
   64MOL   C12215368   2.756   7.392   3.763  0.0415  0.4343 -0.0616
   64MOL   C12315369   2.859   7.495   3.709  1.0884 -0.7009 -0.5518
   64MOL   C12415370   2.802   7.636   3.673 -0.1249  0.1344 -0.2391
   64MOL   C12515371   2.721   7.648   3.550 -0.1188 -0.7181 -0.3924
   64MOL   H12615372   2.706   7.446   3.843 -2.2237 -0.0445 -1.1087
   64MOL   H12715373   2.689   7.364   3.682 -0.1309  0.3757  0.0992
   64MOL   H12815374   2.933   7.511   3.787  0.2456 -0.1199  0.1450
   64MOL   H12915375   2.886   7.702   3.652  2.3527 -1.9468  2.6816
   64MOL   H13015376   2.753   7.686   3.756 -0.3210  0.0507 -0.3048
   64MOL   H13115377   2.675   0.040   3.537 -0.6049 -1.5089 -5.8553
   64MOL   H13215378   2.785   7.637   3.462  1.2275  2.0681  0.1974
   64MOL   H13315379   2.651   7.564   3.548  0.6041 -1.4407  2.2802
   64MOL   C13415380   2.937   7.439   3.590  0.3547 -0.4023  0.3738
   64MOL   C13515381   3.046   7.524   3.531 -0.0498  0.4134 -0.1014
   64MOL   C13615382   3.098   7.446   3.403 -0.1341  0.5627 -0.3502
   64MOL   C13715383   3.003   7.417   3.285 -0.1986  0.7986 -0.1999
   64MOL   H13815384   2.856   7.429   3.518 -0.0567  0.3134  0.7256
   64MOL   H13915385   2.968   7.337   3.611  2.6586  0.2811  0.4629
   64MOL   H14015386   3.009   7.621   3.497 -2.8445  0.4328  2.7691
   64MOL   H14115387   3.150   7.357   3.438 -0.0945 -0.4122 -2.7732
   64MOL   H14215388   3.184   7.499   3.360  0.5352 -1.2527 -1.3119
   64MOL   H14315389   3.050   7.384   3.192  0.4614 -0.9375  0.7244
   64MOL   H14415390   2.928   7.339   3.300  0.7361  0.4472  2.9227
   64MOL   H14515391   2.942   7.506   3.267  0.8120  1.3019 -1.2334
   64MOL   C14615392   3.158   7.540   3.634  0.2684 -0.0072  0.0811
   64MOL   C14715393   3.272   7.643   3.608  0.4020 -0.3926  0.3131
   64MOL   C14815394   3.401   7.571   3.550 -0.0193  0.3443 -0.2327
   64MOL   C14915395   3.509   7.667   3.501  0.3607  0.0731 -0.0790
   64MOL   H15015396   3.206   7.444   3.655  0.7246 -0.5844 -3.3006
   64MOL   H15115397   3.109   7.575   3.724 -0.2992  0.9229 -0.5775
   64MOL   H15215398   3.245   0.006   3.528  1.2706  0.2383  0.5673
   64MOL   H15315399   3.383   7.506   3.465  0.6352  0.6616 -0.6249
   64MOL   H15415400   3.445   7.506   3.626  0.4810  1.7499  0.7078
   64MOL   H15515401   3.586   7.613   3.447 -1.2434  1.3665 -3.8407
   64MOL   H15615402   3.465   0.033   3.432  1.0732  1.6989  1.1252
   64MOL   H15715403   3.562   0.004   3.586 -0.1376 -0.2305  0.3899
   64MOL   C15815404   3.302   0.019   3.739 -0.9554  0.0730  0.4786
   64MOL   C15915405   3.199   0.133   3.766 -0.3338 -0.1817 -0.3480
   64MOL   C16015406   3.198   0.244   3.652  0.1366  0.5945  0.1704
   64MOL   C16115407   3.319   0.333   3.655 -0.1728 -0.6114  0.6910
   64MOL   H16215408   3.403   0.059   3.735 -0.3523 -1.5160 -1.2541
   64MOL   H16315409   3.309   7.651   3.818  0.1900  2.7020  2.8939
   64MOL   H16415410   3.096   0.095   3.760 -1.2053  2.2466 -1.3656
   64MOL   H16515411   3.107   0.303   3.662 -0.5782 -0.4951  0.1680
   64MOL   H16615412   3.186   0.210   3.549 -1.7165 -1.6691  1.0892
   64MOL   H16715413   3.411   0.279   3.632  1.1945  1.0271  2.2066
   64MOL   H16815414   3.317   0.407   3.574 -1.4490  0.1124  1.3646
   64MOL   H16915415   3.345   0.392   3.743  1.4597  0.8784 -0.7310
   64MOL   C17015416   3.212   0.191   3.904  0.2000  0.0136 -0.1236
   64MOL   C17115417   3.206   0.104   4.029 -0.5709 -0.5435  0.3143
   64MOL   C17215418   3.084   0.014   4.024  0.1242  0.0790  0.2021
   64MOL   C17315419   3.052   7.648   4.156  0.3693  0.4683 -0.1031
   64MOL   H17415420   3.133   0.266   3.905 -0.1932 -0.3796 -1.1138
   64MOL   H17515421   3.303   0.251   3.899 -0.6729  1.4107  0.4332
   64MOL   H17615422   3.290   0.035   4.032 -1.6617 -1.8470  2.2440
   64MOL   H17715423   3.091   7.642   3.948  1.1961 -0.0007  0.3800
   64MOL   H17815424   3.002   0.078   3.990  0.5860 -0.5267 -2.1280
   64MOL   H17915425   3.006   0.015   4.223  0.2634 -2.2838  2.9494
   64MOL   H18015426   2.984   7.564   4.139  0.7138 -0.2009  1.7274
   64MOL   H18115427   3.138   7.609   4.210 -0.2948 -3.4691 -1.7243
   64MOL   C18215428   3.192   0.195   4.159 -0.1131 -0.7362  0.1344
   64MOL   C18315429   3.314   0.291   4.179  0.1985 -0.7048  0.1595
   64MOL   C18415430   3.455   0.216   4.185 -0.5719  0.0998  0.1070
   64MOL   C18515431   3.477   0.115   4.298 -0.9595  0.2085  0.0613
   64MOL   H18615432   3.180   0.137   4.251 -1.5591  0.4100  0.6893
   64MOL   H18715433   3.105   0.259   4.147  0.3560  0.1168  1.2792
   64MOL   H18815434   3.318   0.350   4.087 -1.9462  1.9372  1.7119
   64MOL   H18915435   3.545   0.278   4.189 -0.0577 -0.6885  1.0365
   64MOL   H19015436   3.448   0.176   4.084 -1.2167 -0.4410  0.3602
   64MOL   H19115437   3.507   0.152   4.396  1.6134  0.4579 -0.7675
   64MOL   H19215438   3.390   0.053   4.320 -0.9599  0.1147 -0.2024
   64MOL   H19315439   3.557   0.043   4.277  0.9225  1.7016  1.8692
   64MOL   C19415440   3.286   0.397   4.295  0.3421 -0.1075  0.2259
   64MOL   C19515441   3.396   0.515   4.287 -0.2571 -0.2584 -0.0511
   64MOL   C19615442   3.502   0.518   4.393  0.2403  0.1360 -0.0684
   64MOL   C19715443   3.444   0.538   4.534 -0.1288  0.2418 -0.1044
   64MOL   H19815444   3.297   0.346   4.391  0.2280  0.5827  0.6038
   64MOL   H19915445   3.182   0.419   4.275  0.4432 -0.3396 -0.5492
   64MOL   H20015446   3.453   0.504   4.195  1.3020  0.1607  0.8579
   64MOL   H20115447   3.566   0.603   4.367 -1.2074  0.9705 -0.9522
   64MOL   H20215448   3.573   0.436   4.386 -0.5371 -0.7116  1.7086
   64MOL   H20315449   3.386   0.630   4.537 -0.8262 -0.2454  2.5350
   64MOL   H20415450   3.384   0.454   4.566 -0.3450  0.5256  0.2418
   64MOL   H20515451   3.516   0.557   4.614  1.1831 -1.5319 -0.8307
   64MOL   C20615452   3.321   0.643   4.253 -0.1748 -0.6953  0.6873
   64MOL   C20715453   3.384   0.773   4.204 -0.2205  0.4312  0.1377
   64MOL   C20815454   3.304   0.899   4.237  0.4895  0.1941 -0.2518
   64MOL   C20915455   3.276   0.935   4.385 -0.0886 -0.2524  0.6224
   64MOL   H21015456   3.264   0.657   4.345  1.7594  0.1038  1.7976
   64MOL   H21115457   3.237   0.626   4.185 -0.2555  1.2844  0.2648
   64MOL   H21215458   3.479   0.778   4.258  1.7673  1.5256 -3.3388
   64MOL   H21315459   3.204   0.872   4.204 -0.1146  1.5201  0.4360
   64MOL   H21415460   3.339   0.985   4.180 -0.5794  0.4973 -0.4584
   64MOL   H21515461   3.190   0.878   4.419  0.4695 -2.2696 -1.2433
   64MOL   H21615462   3.368   0.916   4.441  0.7573 -0.5319 -0.8288
   64MOL   H21715463   3.259   1.042   4.397  0.4934  0.1853 -2.1679
   64MOL   C21815464   3.417   0.767   4.057 -0.1043  0.5609 -0.3620
   64MOL   C21915465   3.570   0.778   4.039 -0.2598  0.4539  0.6035
   64MOL   C22015466   3.625   0.922   4.039  0.4452  0.0595  0.2323
   64MOL   C22115467   3.754   0.934   4.121  0.5727  0.1029  0.1284
   64MOL   H22215468   3.366   0.839   3.993 -0.9356  0.9717  0.7476
   64MOL   H22315469   3.386   0.672   4.014  4.3068 -0.0549 -2.5061
   64MOL   H22415470   3.619   0.730   4.124 -0.3696  0.7634  0.8377
   64MOL   H22515471   3.556   0.989   4.089  0.0322 -1.9286  2.4308
   64MOL   H22615472   3.646   0.951   3.936 -0.2115 -0.6366 -0.0997
   64MOL   H22715473   3.790   1.036   4.134  2.1883 -0.3559 -0.6902
   64MOL   H22815474   3.747   0.894   4.222  0.2973  0.9762  0.4664
   64MOL   H22915475   3.839   0.879   4.082  0.3429 -1.0282  1.2242
   64MOL   C23015476   3.615   0.705   3.901  0.1854 -0.0270 -0.1492
   64MOL   C23115477   3.600   0.551   3.903  0.1544 -0.1254  0.4031
   64MOL   C23215478   3.705   0.463   3.973  0.0199 -0.4143  0.5656
   64MOL   C23315479   3.717   0.319   3.931  0.0695 -0.5731 -0.5115
   64MOL   H23415480   3.720   0.726   3.883  0.6486 -2.5738 -0.5994
   64MOL   H23515481   3.561   0.740   3.813  2.4599  1.4714 -0.9922
   64MOL   H23615482   3.500   0.516   3.930  0.0448  1.0400  1.5758
   64MOL   H23715483   3.682   0.471   4.079 -0.6346 -3.0356  0.6383
   64MOL   H23815484   3.802   0.512   3.971  0.6946 -1.7459  0.3535
   64MOL   H23915485   3.621   0.268   3.925 -0.1797  0.1376 -3.0764
   64MOL   H24015486   3.756   0.318   3.829  1.5548  1.9027 -0.0279
   64MOL   H24115487   3.784   0.258   3.991  0.5617 -0.9258 -1.4096
   64MOL   H24215488   3.608   0.512   3.802 -1.9167 -0.7896  0.4640
   65MOL     C115489   4.604   2.878   5.679 -0.1715 -0.1282  0.3940
   65MOL     C215490   4.535   2.897   5.544 -0.4983 -0.1358 -0.6189
   65MOL     C315491   4.438   3.010   5.546  0.9397 -0.7783  0.3372
   65MOL     C415492   4.330   2.999   5.653 -0.0102  0.0188  0.0592
   65MOL     H515493   4.688   2.809   5.670  1.5261  2.1317 -1.6315
   65MOL     H615494   4.641   2.967   5.730  1.2607  0.2527 -1.2732
   65MOL     H715495   4.615   2.906   5.470 -1.3562  2.1646 -1.3292
   65MOL     H815496   4.388   3.019   5.450 -0.7706  2.0422  1.4241
   65MOL     H915497   4.483   3.108   5.565 -1.1073 -0.1023  1.8414
   65MOL    H1015498   4.294   3.101   5.663 -0.2813 -0.2115  1.6660
   65MOL    H1115499   4.252   2.933   5.618  2.2657 -1.7015 -1.9459
   65MOL    H1215500   4.366   2.952   5.745  1.6774  1.6246  0.2671
   65MOL    H1315501   4.528   2.830   5.741 -2.0966 -1.0438 -2.5708
   65MOL    C1415502   4.477   2.761   5.503 -0.3181  0.1444 -0.2722
   65MOL    C1515503   4.444   2.726   5.353  0.1047  0.6573 -0.9652
   65MOL    C1615504   4.346   2.599   5.349  0.6163  0.2679 -0.3085
   65MOL    C1715505   4.409   2.467   5.400 -0.5349 -1.1114 -0.1793
   65MOL    H1815506   4.387   2.766   5.563 -0.4346  2.0657 -0.5724
   65MOL    H1915507   4.546   2.681   5.532  0.2779  0.0128 -1.9924
   65MOL    H2015508   4.389   2.813   5.318 -2.0186 -0.8297 -1.3671
   65MOL    H2115509   4.289   2.584   5.257  0.6224  1.7099 -0.5581
   65MOL    H2215510   4.258   2.618   5.410  0.6749  1.4192 -0.5643
   65MOL    H2315511   4.349   2.386   5.441 -0.1988 -0.2762  2.0460
   65MOL    H2415512   4.459   2.422   5.314  0.3382 -0.0153 -0.2678
   65MOL    H2515513   4.489   2.477   5.473 -1.7076  2.4601  0.7224
   65MOL    C2615514   4.558   2.709   5.258  0.4618  0.0172  0.0238
   65MOL    C2715515   4.525   2.693   5.107 -0.3940 -0.4358 -0.4183
   65MOL    C2815516   4.640   2.643   5.021 -0.2370 -0.4585  0.4231
   65MOL    C2915517   4.673   2.492   5.024 -0.1002  0.0653 -0.3606
   65MOL    H3015518   4.617   2.626   5.296  0.8672  0.8228  1.1985
   65MOL    H3115519   4.627   2.793   5.268 -0.9797  0.8870  3.2594
   65MOL    H3215520   4.449   2.615   5.111 -0.6151 -0.2559 -1.1088
   65MOL    H3315521   4.727   2.706   5.040 -0.4499  0.5213 -1.7760
   65MOL    H3415522   4.613   2.664   4.918  1.6002  0.9521  0.2176
   65MOL    H3515523   4.693   2.461   5.126 -2.0226  0.1354  0.0572
   65MOL    H3615524   4.589   2.426   4.999  0.7319 -1.6019  1.1666
   65MOL    H3715525   4.758   2.458   4.965 -0.8006  2.1469 -2.6885
   65MOL    C3815526   4.445   2.810   5.046 -0.4332 -0.1668  0.0178
   65MOL    C3915527   4.300   2.781   4.990 -0.6099  0.4639  0.8080
   65MOL    C4015528   4.292   2.683   4.875  0.2857 -0.3170  0.1840
   65MOL    C4115529   4.153   2.627   4.852 -0.0252  0.0735  0.2838
   65MOL    H4215530   4.507   2.859   4.971  1.7542 -0.0212  1.8456
   65MOL    H4315531   4.444   2.890   5.121  0.2295 -1.4116  1.3961
   65MOL    H4415532   4.232   2.748   5.069  1.3917  0.0389  2.4025
   65MOL    H4515533   4.363   2.605   4.902 -0.4016 -0.3000  2.1869
   65MOL    H4615534   4.333   2.712   4.779 -0.7613 -3.1536 -1.1648
   65MOL    H4715535   4.148   2.537   4.790  0.7262  0.8930 -1.0007
   65MOL    H4815536   4.117   2.596   4.950 -1.3330  0.5621 -0.0240
   65MOL    H4915537   4.092   2.707   4.810  1.4239 -0.1781 -2.4049
   65MOL    C5015538   4.239   2.911   4.938 -0.4074 -0.8522  0.5269
   65MOL    C5115539   4.246   3.041   5.020 -0.5933 -0.2580 -0.1630
   65MOL    C5215540   4.164   3.028   5.151  0.4370 -0.2291 -0.5999
   65MOL    C5315541   4.009   3.002   5.143  0.0091 -0.5758  0.3515
   65MOL    H5415542   4.134   2.884   4.922 -0.3739  0.1732 -1.5808
   65MOL    H5515543   4.276   2.924   4.837 -1.6520 -1.4603 -0.0180
   65MOL    H5615544   4.348   3.067   5.050 -1.9901  2.8485  2.1743
   65MOL    H5715545   4.186   3.112   5.217 -0.9221 -2.0606  2.2816
   65MOL    H5815546   4.205   2.938   5.195  2.9997  1.2630  0.1281
   65MOL    H5915547   3.976   2.917   5.083  1.2981 -0.1891 -0.9603
   65MOL    H6015548   3.959   2.988   5.238  1.2045  0.5662  1.1697
   65MOL    H6115549   3.967   3.094   5.103 -0.0168 -0.9406 -0.4676
   65MOL    C6215550   4.210   3.166   4.937  0.4697  0.0393  0.8567
   65MOL    C6315551   4.273   3.189   4.792 -0.4528 -0.3788 -0.5598
   65MOL    C6415552   4.425   3.215   4.800 -0.2631 -0.2934  0.0191
   65MOL    C6515553   4.454   3.344   4.872 -0.5618 -0.6718  0.6896
   65MOL    H6615554   4.241   3.251   4.997  1.2108  0.0781  0.4361
   65MOL    H6715555   4.102   3.175   4.928  0.8076  3.1406 -0.8336
   65MOL    H6815556   4.253   3.098   4.735  1.9220 -0.6014 -1.1108
   65MOL    H6915557   4.464   3.217   4.698 -1.3651 -1.3305 -0.4392
   65MOL    H7015558   4.478   3.128   4.839  0.8494  0.1930 -0.3978
   65MOL    H7115559   4.551   3.387   4.850 -1.3948 -0.4371 -2.7865
   65MOL    H7215560   4.376   3.419   4.856  0.5497  0.5862  1.0658
   65MOL    H7315561   4.456   3.316   4.977 -0.4065 -1.2690  0.5275
   65MOL    C7415562   4.190   3.300   4.718 -0.5822 -0.0238 -0.6267
   65MOL    C7515563   4.060   3.246   4.654 -0.1333  0.5308 -0.2914
   65MOL    C7615564   4.088   3.165   4.517 -0.3736 -0.2017 -0.5076
   65MOL    C7715565   3.965   3.087   4.464 -0.6577  0.7951  0.5163
   65MOL    H7815566   4.246   3.353   4.642 -0.6155  0.9976  0.0545
   65MOL    H7915567   4.177   3.382   4.788  0.6893  1.1342 -1.7195
   65MOL    H8015568   4.019   3.169   4.719  1.5729  0.0596  0.2624
   65MOL    H8115569   4.173   3.098   4.527 -0.4445 -0.1643  0.3719
   65MOL    H8215570   4.131   3.228   4.440  1.3998  1.0459  1.4471
   65MOL    H8315571   3.911   3.049   4.550  1.3964 -1.3216  0.9145
   65MOL    H8415572   3.905   3.153   4.401 -1.7236 -2.0014 -1.4776
   65MOL    H8515573   3.994   3.001   4.404 -0.9920  0.3892  0.9376
   65MOL    C8615574   3.961   3.357   4.621  0.4294 -0.2471 -0.7542
   65MOL    C8715575   3.885   3.432   4.735  0.3814  0.2547  0.0052
   65MOL    C8815576   3.820   3.328   4.824  0.0087  0.3554  0.4458
   65MOL    C8915577   3.763   3.392   4.952 -0.9871 -0.3984 -0.5427
   65MOL    H9015578   3.891   3.310   4.553  0.7605  0.5597 -1.6683
   65MOL    H9115579   4.015   3.422   4.552 -0.4338  1.8660  0.5235
   65MOL    H9215580   3.971   3.468   4.792 -1.0934  3.7148  0.1109
   65MOL    H9315581   3.902   3.274   4.870  0.2206  1.3413  1.2463
   65MOL    H9415582   3.748   3.267   4.770  0.7154  1.4494 -1.8176
   65MOL    H9515583   3.672   3.451   4.940 -0.6559  0.2423  0.0604
   65MOL    H9615584   3.742   3.316   5.027 -0.3537 -0.2987 -0.2587
   65MOL    H9715585   3.832   3.462   4.998 -2.9146  0.6561  0.8057
   65MOL    C9815586   3.795   3.545   4.690 -0.0664 -0.2099  0.3793
   65MOL    C9915587   3.801   3.677   4.773  0.1755 -0.0166 -0.3221
   65MOL   C10015588   3.660   3.734   4.784  0.0892 -0.4776  0.2759
   65MOL   C10115589   3.593   3.790   4.654  0.7225  0.4025  0.0896
   65MOL   H10215590   3.697   3.496   4.685  0.3808 -1.0602 -0.1323
   65MOL   H10315591   3.826   3.571   4.589 -2.9256  0.8057 -0.2960
   65MOL   H10415592   3.838   3.647   4.871  0.2649 -0.0445 -0.3645
   65MOL   H10515593   3.666   3.807   4.864 -2.7167  1.0006 -0.7994
   65MOL   H10615594   3.599   3.655   4.828 -0.5154 -0.0450  0.2104
   65MOL   H10715595   3.653   3.859   4.594 -0.7948  0.2735 -1.6068
   65MOL   H10815596   3.556   3.709   4.592 -0.7062 -1.3336  3.1460
   65MOL   H10915597   3.502   3.843   4.682 -0.5298 -1.2765 -0.7400
   65MOL   C11015598   3.898   3.784   4.709  0.6509  0.6232  0.6473
   65MOL   C11115599   4.056   3.759   4.729  0.0303 -0.6427  0.4413
   65MOL   C11215600   4.104   3.788   4.875  0.5985 -0.7161  0.0373
   65MOL   C11315601   4.239   3.721   4.914  0.0681  0.0937  0.6204
   65MOL   H11415602   3.890   3.884   4.754 -2.7557  1.2925 -1.2590
   65MOL   H11515603   3.870   3.804   4.606  0.2290  1.2976  0.8886
   65MOL   H11615604   4.089   3.657   4.708  0.8607 -0.0860 -1.0379
   65MOL   H11715605   4.030   3.749   4.944  0.7350 -2.1782 -0.6071
   65MOL   H11815606   4.105   3.896   4.882 -1.8891 -0.6079 -0.9371
   65MOL   H11915607   4.217   3.616   4.933  1.0088 -0.1143  0.5466
   65MOL   H12015608   4.313   3.718   4.834 -1.4265  1.6776 -0.8801
   65MOL   H12115609   4.279   3.768   5.004  1.3481  2.8754 -1.3226
   65MOL   C12215610   4.143   3.853   4.635  0.3884 -0.3250 -0.2417
   65MOL   C12315611   4.143   3.806   4.486 -0.3045  0.0919 -0.6068
   65MOL   C12415612   4.258   3.710   4.468  0.4261 -0.4842 -0.2994
   65MOL   C12515613   4.240   3.630   4.343  0.0109  0.8236  0.8794
   65MOL   H12615614   4.246   3.855   4.672  0.1656  0.0637  0.3444
   65MOL   H12715615   4.108   3.955   4.645  0.4857 -0.4732  1.6701
   65MOL   H12815616   4.049   3.752   4.479 -0.8630  1.0830 -0.9836
   65MOL   H12915617   4.265   3.643   4.554 -2.9809 -0.1474  0.3187
   65MOL   H13015618   4.352   3.765   4.467  0.0602  0.2374  1.7876
   65MOL   H13115619   4.325   3.562   4.335 -0.5912 -0.0652  1.9528
   65MOL   H13215620   4.148   3.575   4.328  0.4312  0.9697 -2.6388
   65MOL   H13315621   4.245   3.687   4.250  1.3329  1.1579  1.1454
   65MOL   C13415622   4.137   3.919   4.377  0.0851  0.2193  0.3893
   65MOL   C13515623   4.049   3.909   4.252 -0.3625 -0.2551  0.0609
   65MOL   C13615624   4.098   4.001   4.136 -0.1068 -0.4117  0.4919
   65MOL   C13715625   4.239   3.968   4.085 -0.4118  0.1494  0.2217
   65MOL   H13815626   4.238   3.942   4.345 -0.4750  2.0972 -0.1233
   65MOL   H13915627   4.121   4.015   4.426  1.8136 -0.6155  2.6742
   65MOL   H14015628   4.048   3.806   4.217 -0.4370  0.0406 -0.8224
   65MOL   H14115629   4.084   4.107   4.156 -1.7356 -0.3392 -0.8357
   65MOL   H14215630   4.028   3.999   4.052 -0.4570 -0.6699  0.7841
   65MOL   H14315631   4.249   4.012   3.986  1.2326 -0.0581  0.2836
   65MOL   H14415632   4.320   4.018   4.140  0.0926  0.5734 -0.9000
   65MOL   H14515633   4.259   3.862   4.075 -1.2258  0.0096  0.0126
   65MOL   C14615634   3.904   3.943   4.293 -0.0006  0.0577 -0.4554
   65MOL   C14715635   3.800   3.871   4.197 -0.7912 -0.2945  0.2391
   65MOL   C14815636   3.678   3.966   4.175  0.2887  0.2806  0.1619
   65MOL   C14915637   3.600   4.017   4.297  0.2817  0.3805  0.5079
   65MOL   H15015638   3.888   4.051   4.299 -1.8679 -0.2087 -0.4063
   65MOL   H15115639   3.883   3.917   4.397  2.2124 -3.0410 -0.6979
   65MOL   H15215640   3.846   3.862   4.098 -2.1753 -0.0936 -0.4342
   65MOL   H15315641   3.617   3.913   4.101 -2.0509  1.4389  1.2064
   65MOL   H15415642   3.709   4.062   4.133 -2.7487  1.7445  1.1169
   65MOL   H15515643   3.552   3.930   4.343  0.4596 -0.7974 -1.4618
   65MOL   H15615644   3.661   4.080   4.361 -0.0700  1.6953 -0.4300
   65MOL   H15715645   3.512   4.075   4.267 -0.3585 -0.5766  0.4910
   65MOL   C15815646   3.754   3.739   4.251  0.0419  0.1326  0.7054
   65MOL   C15915647   3.702   3.637   4.153  0.4879  0.3023 -0.2492
   65MOL   C16015648   3.627   3.533   4.226 -0.4396  0.5817 -0.1616
   65MOL   C16115649   3.716   3.441   4.322  0.3982 -0.5383 -0.4120
   65MOL   H16215650   3.687   3.760   4.334 -1.0997  2.0199 -0.6631
   65MOL   H16315651   3.844   3.687   4.286  1.2234  0.3287 -1.9351
   65MOL   H16415652   3.628   3.688   4.091 -0.2903 -0.9180 -0.3258
   65MOL   H16515653   3.565   3.471   4.161 -1.3027  1.5936 -0.3279
   65MOL   H16615654   3.560   3.594   4.287  1.9946  3.0919  0.0955
   65MOL   H16715655   3.807   3.393   4.289  0.3878  0.1080 -1.4074
   65MOL   H16815656   3.742   3.499   4.410  0.1429 -0.5514 -0.3280
   65MOL   H16915657   3.659   3.358   4.363  0.9498 -0.6233  0.1776
   65MOL   C17015658   3.813   3.577   4.064 -0.1160 -1.0110 -0.0636
   65MOL   C17115659   3.783   3.454   3.973 -0.0081 -1.5448 -0.4159
   65MOL   C17215660   3.913   3.371   3.936 -0.6320 -0.2276  0.2159
   65MOL   C17315661   3.944   3.260   4.039 -0.0444  0.3936  0.4986
   65MOL   H17415662   3.903   3.555   4.122 -0.7744  0.5605  1.6029
   65MOL   H17515663   3.854   3.657   4.003  0.3538 -0.8699  0.4343
   65MOL   H17615664   3.710   3.387   4.018 -1.8220  1.7974  1.8269
   65MOL   H17715665   4.006   3.426   3.924 -1.1751  0.6620  0.0264
   65MOL   H17815666   3.900   3.328   3.837  0.7763 -0.1915  0.0115
   65MOL   H17915667   3.871   3.180   4.043  0.5821 -0.2239 -0.1835
   65MOL   H18015668   4.042   3.215   4.024  0.4729  1.1167  1.6063
   65MOL   H18115669   3.945   3.311   4.135 -0.7121  0.2135  0.5999
   65MOL   C18215670   3.729   3.507   3.837  0.3369 -0.0883 -0.1053
   65MOL   C18315671   3.651   3.396   3.753  0.1718  0.4032 -0.4920
   65MOL   C18415672   3.627   3.457   3.614  0.1159  0.7256 -0.1085
   65MOL   C18515673   3.751   3.460   3.526  0.8273 -0.3321  0.4528
   65MOL   H18615674   3.803   3.560   3.777  0.3051  0.1353  0.0506
   65MOL   H18715675   3.658   3.588   3.852  0.4053  0.0408 -0.4718
   65MOL   H18815676   3.711   3.306   3.740 -0.4936  0.1233 -1.6838
   65MOL   H18915677   3.580   3.555   3.624 -1.1825  0.0685  0.2821
   65MOL   H19015678   3.551   3.405   3.557  0.2947  0.1859  0.1469
   65MOL   H19115679   3.790   3.360   3.511  0.6649 -0.2660 -0.4467
   65MOL   H19215680   3.733   3.505   3.428  1.5316 -0.1781  0.3936
   65MOL   H19315681   3.827   3.520   3.576  2.3776 -0.5274 -1.6013
   65MOL   C19415682   3.518   3.365   3.815 -0.1784  0.4371 -0.1178
   65MOL   C19515683   3.452   3.220   3.787  0.1080  0.2619 -0.2476
   65MOL   C19615684   3.295   3.199   3.814  0.1093  0.9252 -0.1222
   65MOL   C19715685   3.204   3.277   3.716 -0.1231 -0.7328  0.5660
   65MOL   H19815686   3.438   3.437   3.797 -0.4777 -0.0678 -0.8312
   65MOL   H19915687   3.518   3.365   3.924 -1.1406  2.7703 -0.0882
   65MOL   H20015688   3.466   3.196   3.682 -1.8273  1.1875 -0.7396
   65MOL   H20115689   3.269   3.231   3.915 -4.7388 -0.0310 -0.9389
   65MOL   H20215690   3.270   3.094   3.804  2.2841  0.2084  1.5520
   65MOL   H20315691   3.224   3.258   3.610 -1.2763 -2.6289  0.6727
   65MOL   H20415692   3.106   3.234   3.735 -0.3247 -1.1749 -1.3626
   65MOL   H20515693   3.203   3.385   3.732  1.9096 -0.8673  1.7246
   65MOL   C20615694   3.528   3.125   3.879  0.1707  1.0793  0.3656
   65MOL   C20715695   3.515   2.972   3.840  0.0787  0.1267 -0.2454
   65MOL   C20815696   3.466   2.883   3.954  0.9583 -0.5101  0.0746
   65MOL   C20915697   3.556   2.863   4.077 -0.2243 -0.3448 -0.5195
   65MOL   H21015698   3.498   3.137   3.983 -1.2845 -1.1812  0.2539
   65MOL   H21115699   3.635   3.142   3.875  0.6956 -0.7821  4.1240
   65MOL   H21215700   3.441   2.952   3.762 -1.1037  1.4771  0.5038
   65MOL   H21315701   3.449   2.784   3.912 -0.7188  0.0579 -0.6265
   65MOL   H21415702   3.365   2.918   3.976  1.9017  1.5658  1.2483
   65MOL   H21515703   3.609   2.955   4.105 -1.8243  0.1457  1.0194
   65MOL   H21615704   3.491   2.841   4.162  0.9561 -0.9115  0.2387
   65MOL   H21715705   3.635   2.790   4.061 -0.1560 -0.2867 -0.4452
   65MOL   C21815706   3.650   2.910   3.790  0.0636  0.4743  0.4880
   65MOL   C21915707   3.719   2.976   3.665  0.5823  0.6633  0.2451
   65MOL   C22015708   3.633   2.953   3.535 -0.2577 -0.6508  0.3730
   65MOL   C22115709   3.693   3.030   3.408  0.0281  0.3156 -0.2434
   65MOL   H22215710   3.632   2.803   3.780 -0.1586  0.3513  2.0485
   65MOL   H22315711   3.720   2.927   3.872 -1.4254  0.8364  1.6975
   65MOL   H22415712   3.730   3.084   3.679 -0.7721  0.7576  0.6558
   65MOL   H22515713   3.534   2.991   3.562 -0.0465 -0.6201  1.0936
   65MOL   H22615714   3.620   2.846   3.522 -1.8636 -0.4646  0.3283
   65MOL   H22715715   3.791   3.000   3.370  0.0165 -0.0876  0.0430
   65MOL   H22815716   3.622   3.015   3.327  0.2019 -3.0701  0.1669
   65MOL   H22915717   3.705   3.134   3.440  1.2289 -0.4837  1.9727
   65MOL   C23015718   3.859   2.925   3.651 -0.7097 -0.9204 -0.1382
   65MOL   C23115719   3.964   3.001   3.738  0.8592 -0.4630  0.5846
   65MOL   C23215720   4.106   2.952   3.736 -1.1219  0.0121 -0.2700
   65MOL   C23315721   4.203   3.057   3.797 -0.1628 -0.4907 -0.7917
   65MOL   H23415722   3.892   2.944   3.548  2.6123 -1.2466  0.7868
   65MOL   H23515723   3.860   2.818   3.670  1.9981 -1.2143 -1.5833
   65MOL   H23615724   3.953   3.108   3.721 -2.0832 -0.3697  2.7004
   65MOL   H23715725   4.138   2.931   3.634  0.3938  1.5817 -0.1406
   65MOL   H23815726   4.122   2.855   3.783  1.2218  1.2019  1.4981
   65MOL   H23915727   4.215   3.060   3.905 -2.2311  0.4751 -0.5706
   65MOL   H24015728   4.304   3.037   3.761  0.6803  1.3668  0.4593
   65MOL   H24115729   4.172   3.157   3.768  0.7414 -0.5277 -1.9245
   65MOL   H24215730   3.929   2.984   3.839  0.1196  1.0086  0.5799
   66MOL     C115731   1.716   5.478   1.936  0.1948  0.1389 -0.0420
   66MOL     C215732   1.592   5.401   1.998 -0.1776  0.5178  0.3481
   66MOL     C315733   1.600   5.252   1.950  0.0776 -0.4209  0.2993
   66MOL     C415734   1.693   5.168   2.033 -0.2804  0.1876 -0.6281
   66MOL     H515735   1.744   5.563   1.998  0.4282  0.3071 -0.3778
   66MOL     H615736   1.804   5.414   1.946  0.5257  0.0595 -2.9400
   66MOL     H715737   1.590   5.400   2.107 -1.6204  1.9278  0.3426
   66MOL     H815738   1.642   5.237   1.851  1.3488 -0.5551  0.8521
   66MOL     H915739   1.502   5.203   1.954  0.5242 -1.2269  1.7007
   66MOL    H1015740   1.683   5.190   2.139  0.1667 -1.1877 -0.3023
   66MOL    H1115741   1.677   5.061   2.019  1.3796 -0.0148 -1.0847
   66MOL    H1215742   1.798   5.182   2.006  0.0162 -0.0662  0.3657
   66MOL    H1315743   1.711   5.519   1.835  0.6013 -0.5475 -0.3479
   66MOL    C1415744   1.453   5.473   1.966  0.2596 -0.1179 -1.2166
   66MOL    C1515745   1.441   5.620   2.007  0.3010 -0.6289 -0.2240
   66MOL    C1615746   1.433   5.654   2.161  0.5809 -0.3191  0.2418
   66MOL    C1715747   1.303   5.600   2.217  0.2102  0.3188 -0.7086
   66MOL    H1815748   1.370   5.418   2.011  0.3489  0.7931  0.0748
   66MOL    H1915749   1.431   5.462   1.859 -1.4067  0.9111 -0.9957
   66MOL    H2015750   1.533   5.669   1.975  0.9082 -1.0989  0.7696
   66MOL    H2115751   1.444   5.761   2.180 -0.0055 -0.1067 -0.5588
   66MOL    H2215752   1.513   5.609   2.220  0.6120 -0.0876  0.3785
   66MOL    H2315753   1.303   5.492   2.204 -0.2341  0.3911 -1.3115
   66MOL    H2415754   1.301   5.628   2.322 -1.5798  0.6912 -0.8391
   66MOL    H2515755   1.215   5.641   2.169 -2.4901  2.1744  5.3798
   66MOL    C2615756   1.338   5.711   1.930 -0.3752  0.7047  0.6936
   66MOL    C2715757   1.380   5.742   1.787  0.5237  0.3453  0.3005
   66MOL    C2815758   1.477   5.859   1.778  0.1279  0.2753 -0.2694
   66MOL    C2915759   1.431   6.001   1.807 -0.0425 -0.3129 -0.3707
   66MOL    H3015760   1.335   5.805   1.984 -0.9435 -0.1512  2.1758
   66MOL    H3115761   1.237   5.670   1.935  0.1452 -0.9354 -1.4698
   66MOL    H3215762   1.438   5.660   1.745  0.7724  0.8960 -0.4450
   66MOL    H3315763   1.521   5.868   1.678  1.3500 -0.7402  0.1661
   66MOL    H3415764   1.568   5.827   1.829 -1.9164 -2.2800  1.9284
   66MOL    H3515765   1.362   6.025   1.725  0.1111 -3.6036 -1.5680
   66MOL    H3615766   1.380   6.016   1.902 -2.3891 -1.3258 -1.4148
   66MOL    H3715767   1.521   6.062   1.801  0.8497 -1.5570  0.1782
   66MOL    C3815768   1.262   5.776   1.694 -0.1639 -0.2495 -0.1367
   66MOL    C3915769   1.158   5.671   1.654 -0.1640 -0.0104  0.4181
   66MOL    C4015770   1.192   5.596   1.526 -0.2409  0.9531  0.2006
   66MOL    C4115771   1.122   5.461   1.506  0.8802  0.2969 -0.4805
   66MOL    H4215772   1.303   5.818   1.602 -1.0465  0.4797 -0.2026
   66MOL    H4315773   1.202   5.858   1.733 -1.2387 -0.8134 -0.5641
   66MOL    H4415774   1.150   5.591   1.728  0.8703 -1.7390 -1.2753
   66MOL    H4515775   1.301   5.584   1.530 -0.4466 -1.3118 -0.1119
   66MOL    H4615776   1.166   5.651   1.435 -1.6612 -1.0353 -0.6424
   66MOL    H4715777   1.180   5.408   1.430  0.7370 -0.7461  0.1393
   66MOL    H4815778   1.126   5.409   1.601  2.3548  0.0816 -0.6511
   66MOL    H4915779   1.019   5.472   1.471  0.4819 -1.5334  0.0411
   66MOL    C5015780   1.016   5.737   1.635  0.1481 -0.1517 -0.2099
   66MOL    C5115781   0.949   5.785   1.772 -0.2764  0.0595  1.0907
   66MOL    C5215782   0.820   5.708   1.811  0.7925  0.2871 -0.0495
   66MOL    C5315783   0.855   5.567   1.862  0.1277 -0.1366  0.2829
   66MOL    H5415784   0.952   5.654   1.604  0.0290 -0.2450  0.2718
   66MOL    H5515785   1.004   5.813   1.558  1.2000 -2.4011 -2.6428
   66MOL    H5615786   1.019   5.768   1.854 -0.7873  0.3088  1.5810
   66MOL    H5715787   0.761   5.697   1.720  0.4563 -0.3139  0.2359
   66MOL    H5815788   0.765   5.767   1.885  0.6353  1.9495 -1.4719
   66MOL    H5915789   0.764   5.511   1.886 -0.3321  0.3028 -0.4350
   66MOL    H6015790   0.908   5.510   1.786 -0.8176 -3.0902  1.7652
   66MOL    H6115791   0.915   5.573   1.953 -0.4757  1.9384  0.5607
   66MOL    C6215792   0.924   5.936   1.769 -0.5287  0.1351  0.0188
   66MOL    C6315793   0.925   6.007   1.906  0.7900  0.3278  0.2301
   66MOL    C6415794   0.794   6.081   1.939 -0.0759  0.4635  0.1419
   66MOL    C6515795   0.774   6.218   1.866 -0.0171  0.0243  0.4589
   66MOL    H6615796   0.830   5.962   1.720 -0.4125  2.3198  0.9039
   66MOL    H6715797   1.002   5.979   1.707 -0.2085 -0.2887  0.1231
   66MOL    H6815798   0.915   5.932   1.985 -0.3468  1.6201  1.3345
   66MOL    H6915799   0.789   6.097   2.047  0.8756  0.8130  0.1366
   66MOL    H7015800   0.715   6.009   1.918  0.0571  0.8807 -1.9353
   66MOL    H7115801   0.867   6.268   1.890  0.3479  0.4993 -1.8133
   66MOL    H7215802   0.765   6.205   1.758 -1.4272 -0.6630  0.6338
   66MOL    H7315803   0.691   6.272   1.913  0.1686 -1.3296  2.3911
   66MOL    C7415804   1.061   6.093   1.924 -0.4810 -0.7202  0.3202
   66MOL    C7515805   1.090   6.147   2.064 -0.4034 -0.2227 -0.2802
   66MOL    C7615806   1.174   6.277   2.071  0.5794 -0.4527 -0.0426
   66MOL    C7715807   1.323   6.269   2.043 -0.3183 -0.3953  0.1771
   66MOL    H7815808   1.059   6.172   1.848 -0.8872 -1.2141 -0.1951
   66MOL    H7915809   1.156   6.045   1.898  0.1080  0.0637  1.0074
   66MOL    H8015810   0.998   6.182   2.109  0.9660 -0.3576  2.7558
   66MOL    H8115811   1.146   6.335   2.159 -2.2545 -1.4564 -0.2241
   66MOL    H8215812   1.141   6.348   1.995 -2.7667 -1.9102 -0.0450
   66MOL    H8315813   1.383   6.352   2.078  1.3855 -0.5388 -2.2668
   66MOL    H8415814   1.357   6.175   2.088 -0.7582  0.1531  1.7018
   66MOL    H8515815   1.340   6.246   1.938 -1.4617  0.9145 -0.3069
   66MOL    C8615816   1.143   6.027   2.153  0.3500 -0.0255  0.8226
   66MOL    C8715817   1.151   6.057   2.304  0.1798 -0.1451  0.0803
   66MOL    C8815818   1.240   5.952   2.370  0.1809 -0.8075 -0.2734
   66MOL    C8915819   1.390   5.974   2.358 -0.5330 -0.3788 -0.0503
   66MOL    H9015820   1.240   5.994   2.114  0.7173  2.8006 -0.7755
   66MOL    H9115821   1.074   5.943   2.143 -0.3873  0.6691 -0.0576
   66MOL    H9215822   1.196   6.155   2.316  0.5377  0.0631 -2.8284
   66MOL    H9315823   1.222   5.859   2.317 -0.4304 -0.5560 -0.5043
   66MOL    H9415824   1.226   5.945   2.478  1.3836  0.5823  0.0050
   66MOL    H9515825   1.410   6.071   2.405 -0.8446 -0.6880  0.7364
   66MOL    H9615826   1.447   5.901   2.415  0.7738  0.7414  0.1161
   66MOL    H9715827   1.439   5.976   2.261  3.0549  1.2220  1.6782
   66MOL    C9815828   1.014   6.058   2.375 -0.0136 -0.2087 -0.8250
   66MOL    C9915829   1.012   6.123   2.519 -0.1399  0.2382 -0.1693
   66MOL   C10015830   0.992   6.022   2.633 -0.1252 -0.1289  0.5875
   66MOL   C10115831   1.046   6.090   2.766 -0.2248  0.3374  0.3726
   66MOL   H10215832   0.969   5.959   2.375 -1.9294  0.6214  1.6893
   66MOL   H10315833   0.946   6.108   2.305 -1.1709 -0.6491 -0.0318
   66MOL   H10415834   1.108   6.174   2.533 -0.3104  0.0024  2.0489
   66MOL   H10515835   1.055   5.937   2.607  0.7930  1.6584 -3.4149
   66MOL   H10615836   0.890   5.984   2.642  0.0413 -0.8292 -0.3896
   66MOL   H10715837   1.063   6.015   2.844  0.8448 -1.8481 -1.8763
   66MOL   H10815838   1.139   6.146   2.752  0.3746 -0.8481 -0.5831
   66MOL   H10915839   0.973   6.163   2.800 -1.1691 -0.1586 -0.5798
   66MOL   C11015840   0.893   6.223   2.529  0.3497  0.7872 -0.2094
   66MOL   C11115841   0.894   6.349   2.429  0.1505  0.0366 -0.1434
   66MOL   C11215842   1.028   6.432   2.437  0.1941 -0.1662  0.4096
   66MOL   C11315843   1.048   6.507   2.569 -0.4127 -0.4200 -0.1411
   66MOL   H11415844   0.872   6.253   2.631 -0.9855 -0.1312 -0.1977
   66MOL   H11515845   0.804   6.164   2.505  1.2709 -0.5866 -0.3043
   66MOL   H11615846   0.878   6.309   2.329  0.7085 -0.7179  0.0694
   66MOL   H11715847   1.018   6.504   2.355 -0.9979 -1.7072 -0.8338
   66MOL   H11815848   1.107   6.363   2.408  0.6866  0.0271  1.2577
   66MOL   H11915849   1.052   6.431   2.648 -2.2634 -1.0338 -0.5948
   66MOL   H12015850   1.143   6.560   2.573 -0.5529 -0.1154 -0.8718
   66MOL   H12115851   0.973   6.581   2.597  0.1221  0.9526 -2.2772
   66MOL   C12215852   0.772   6.444   2.453 -0.3377 -0.3002  0.1524
   66MOL   C12315853   0.626   6.385   2.434  1.2146 -1.1652 -0.4280
   66MOL   C12415854   0.579   6.367   2.277  0.4180 -0.5467  0.0263
   66MOL   C12515855   0.446   6.293   2.254  0.3902  0.4178 -0.4851
   66MOL   H12615856   0.785   6.529   2.386  0.1936 -1.3229 -1.0583
   66MOL   H12715857   0.781   6.487   2.553 -0.1216  1.2424 -0.5126
   66MOL   H12815858   0.631   6.287   2.481  1.8502 -1.2193 -0.5991
   66MOL   H12915859   0.658   6.304   2.236  1.6271  1.6356 -1.0384
   66MOL   H13015860   0.586   6.459   2.221  0.4888  0.4193  1.5894
   66MOL   H13115861   0.447   6.200   2.312 -0.4641  1.1867  0.7867
   66MOL   H13215862   0.358   6.338   2.300 -0.9354  0.0714 -2.5694
   66MOL   H13315863   0.421   6.272   2.150 -0.3468 -0.4588 -0.1403
   66MOL   C13415864   0.526   6.483   2.503 -0.0710 -0.4228  0.3218
   66MOL   C13515865   0.526   6.466   2.657 -0.5046  0.0330  1.0629
   66MOL   C13615866   0.460   6.336   2.694 -0.7304  0.1197  0.2800
   66MOL   C13715867   0.317   6.322   2.640  0.2504  0.0135 -0.8553
   66MOL   H13815868   0.424   6.477   2.465  0.0214  1.2504 -0.2639
   66MOL   H13915869   0.547   6.589   2.489  0.1753 -0.6329 -0.9002
   66MOL   H14015870   0.630   6.460   2.689  0.1572  1.1779 -0.7656
   66MOL   H14115871   0.475   6.323   2.801 -2.9693  0.6293  0.6767
   66MOL   H14215872   0.521   6.255   2.655  0.5463  0.1381  2.1915
   66MOL   H14315873   0.246   6.402   2.660  1.4408  1.2498 -1.5310
   66MOL   H14415874   0.323   6.299   2.534  2.7824  0.3416 -0.8115
   66MOL   H14515875   0.264   6.239   2.687 -0.0219  1.9971  2.4882
   66MOL   C14615876   0.464   6.591   2.730  0.6647  0.1652 -0.4483
   66MOL   C14715877   0.572   6.707   2.753  0.4851 -0.2587  0.2321
   66MOL   C14815878   0.615   6.701   2.903 -0.1723 -0.1040  0.7905
   66MOL   C14915879   0.710   6.577   2.936  0.3947 -0.0117 -0.7953
   66MOL   H15015880   0.421   6.561   2.826 -0.0534 -1.6383 -1.3069
   66MOL   H15115881   0.382   6.614   2.663  0.1723 -0.0674  0.0774
   66MOL   H15215882   0.660   6.691   2.692 -0.7649  3.8724 -2.8509
   66MOL   H15315883   0.530   6.699   2.971 -2.3531  4.2727 -1.5823
   66MOL   H15415884   0.671   6.793   2.913  0.0116 -0.0004 -1.0804
   66MOL   H15515885   0.759   6.585   3.034  2.4865 -2.4228 -1.5973
   66MOL   H15615886   0.635   6.498   2.947  0.9267 -0.5425 -0.9415
   66MOL   H15715887   0.783   6.549   2.860 -0.2979 -0.6345 -1.2392
   66MOL   C15815888   0.504   6.843   2.716 -0.1960 -0.3931  0.7830
   66MOL   C15915889   0.497   6.864   2.568 -0.4323  0.5218 -0.3530
   66MOL   C16015890   0.633   6.881   2.498 -1.1519 -0.3201  0.3664
   66MOL   C16115891   0.705   7.016   2.531  0.4445  0.0839  0.4055
   66MOL   H16215892   0.547   6.927   2.770  2.7649 -0.3127 -1.6316
   66MOL   H16315893   0.402   6.842   2.757 -0.7629 -0.7178 -0.5946
   66MOL   H16415894   0.458   6.771   2.527 -1.6388  0.3881  1.0934
   66MOL   H16515895   0.613   6.871   2.391  0.3646 -2.1748  0.2224
   66MOL   H16615896   0.704   6.800   2.514  0.3416  0.9444  0.2403
   66MOL   H16715897   0.650   7.109   2.518  0.9310 -0.1712 -4.3011
   66MOL   H16815898   0.722   7.021   2.638 -0.5641  3.2669  0.4540
   66MOL   H16915899   0.804   7.027   2.487  0.4688 -2.8406 -0.4424
   66MOL   C17015900   0.400   6.975   2.524 -0.6091 -0.1792 -0.5555
   66MOL   C17115901   0.354   6.993   2.371 -0.2195  0.2357 -0.2758
   66MOL   C17215902   0.279   7.126   2.363 -0.4733 -0.5396  0.4233
   66MOL   C17315903   0.143   7.131   2.439 -1.0244 -0.2808 -0.1545
   66MOL   H17415904   0.453   7.066   2.552 -2.1495 -0.2841  2.9485
   66MOL   H17515905   0.311   6.985   2.587 -0.9506  3.6983 -1.4901
   66MOL   H17615906   0.445   7.004   2.313 -0.9359 -1.4483 -1.7830
   66MOL   H17715907   0.252   7.145   2.259  1.2054  0.4532  0.1568
   66MOL   H17815908   0.339   7.210   2.396 -1.0954  0.1187 -0.0898
   66MOL   H17915909   0.144   7.112   2.547 -0.4136 -0.5211 -0.1956
   66MOL   H18015910   0.105   7.231   2.421  2.3606  0.9117 -0.9995
   66MOL   H18115911   0.070   7.063   2.395  1.5624 -3.0672 -0.3448
   66MOL   C18215912   0.268   6.875   2.309 -0.6320 -0.4498 -0.2353
   66MOL   C18315913   0.354   6.770   2.237 -0.4771  0.5026 -0.3445
   66MOL   C18415914   0.411   6.825   2.110  0.0021  0.6299  0.1098
   66MOL   C18515915   0.502   6.726   2.040  0.0479  0.2326 -0.1882
   66MOL   H18615916   0.185   6.908   2.245 -0.2848  1.0054  0.0607
   66MOL   H18715917   0.213   6.832   2.393 -0.8490  0.4473  0.0844
   66MOL   H18815918   0.440   6.728   2.290 -1.9324 -1.0352  0.8233
   66MOL   H18915919   0.463   6.918   2.132 -1.7741  1.2465  1.7270
   66MOL   H19015920   0.328   6.857   2.048 -0.7599 -0.9417  0.2860
   66MOL   H19115921   0.542   6.776   1.952  0.4447 -0.4726 -0.4118
   66MOL   H19215922   0.584   6.690   2.102 -0.0765 -0.0904 -0.2047
   66MOL   H19315923   0.451   6.643   1.991  0.5816 -0.6950  0.8021
   66MOL   C19415924   0.273   6.641   2.226  0.3999  0.2547  0.2684
   66MOL   C19515925   0.172   6.622   2.105 -0.2832 -0.1280 -0.2713
   66MOL   C19615926   0.043   6.709   2.106 -0.3309  0.5918  0.0116
   66MOL   C19715927   7.680   6.711   2.249 -1.0055  0.4473  0.3589
   66MOL   H19815928   0.224   6.632   2.323 -0.4001 -1.4645 -0.2857
   66MOL   H19915929   0.335   6.552   2.217 -0.7024 -0.3785 -1.2368
   66MOL   H20015930   0.232   6.643   2.016 -1.0142  3.3941 -0.0166
   66MOL   H20115931   7.674   6.680   2.033  0.4267 -0.6423 -0.2773
   66MOL   H20215932   0.069   6.813   2.082 -0.1641  0.6547  0.4594
   66MOL   H20315933   7.572   6.701   2.236 -0.7084  0.0662 -1.8687
   66MOL   H20415934   0.006   6.632   2.317 -0.4331  1.2652  1.0592
   66MOL   H20515935   7.702   6.801   2.308  3.0373 -0.1966 -0.0410
   66MOL   C20615936   0.119   6.477   2.093 -0.5741 -0.2419  0.7919
   66MOL   C20715937   0.111   6.427   1.941  0.7610 -0.0876  0.1546
   66MOL   C20815938   7.700   6.341   1.894 -0.3744  0.0782 -0.0822
   66MOL   C20915939   7.570   6.414   1.907  0.7478 -0.1051 -0.6893
   66MOL   H21015940   0.030   6.454   2.151  0.0089 -1.8140  1.0885
   66MOL   H21115941   0.193   6.409   2.135 -0.1927 -0.3293 -0.0013
   66MOL   H21215942   0.099   6.519   1.884  3.1299 -0.4056 -0.9583
   66MOL   H21315943   0.009   6.248   1.949 -3.2538 -0.3273  0.0854
   66MOL   H21415944   0.004   6.312   1.790 -0.2900  3.7188 -1.1553
   66MOL   H21515945   7.560   6.489   1.828 -1.7944  0.3600  0.0527
   66MOL   H21615946   7.487   6.343   1.908 -1.3674  2.3040  0.3415
   66MOL   H21715947   7.552   6.477   1.993 -4.0175  0.5894 -2.0650
   66MOL   C21815948   0.254   6.383   1.902  0.2005 -0.1585 -0.2394
   66MOL   C21915949   0.284   6.369   1.751  0.2365 -0.6422 -0.5789
   66MOL   C22015950   0.403   6.276   1.720  0.1130  0.1114  0.1973
   66MOL   C22115951   0.406   6.141   1.789  0.0251  0.2914 -0.7733
   66MOL   H22215952   0.255   6.281   1.942  0.5976 -0.8369 -1.9222
   66MOL   H22315953   0.335   6.435   1.951 -0.0547 -1.2220  1.3329
   66MOL   H22415954   0.194   6.323   1.709  0.0920  0.2973 -1.3085
   66MOL   H22515955   0.495   6.323   1.753 -0.4768  1.1848  0.3458
   66MOL   H22615956   0.427   6.261   1.614 -0.1990 -2.5146  0.4523
   66MOL   H22715957   0.442   6.144   1.892 -1.6318  0.6522 -0.1936
   66MOL   H22815958   0.307   6.098   1.773  0.8845 -1.9236 -0.4187
   66MOL   H22915959   0.475   6.074   1.738  0.9738  1.2145 -0.7106
   66MOL   C23015960   0.322   6.505   1.691 -0.5961 -0.0829  0.2627
   66MOL   C23115961   0.320   6.516   1.536  0.7361 -1.1604 -0.6061
   66MOL   C23215962   0.179   6.517   1.471  0.1085  0.2016  0.0877
   66MOL   C23315963   0.189   6.519   1.320  0.4766 -0.6609  0.1529
   66MOL   H23415964   0.422   6.528   1.727 -0.7181  1.4639 -0.3492
   66MOL   H23515965   0.256   6.588   1.717  0.8674  1.2794 -0.2862
   66MOL   H23615966   0.365   6.613   1.512 -0.2213 -1.1718 -2.5495
   66MOL   H23715967   0.118   6.595   1.516 -1.2133 -0.6811 -0.1362
   66MOL   H23815968   0.132   6.423   1.499  0.6611 -0.2096 -0.3409
   66MOL   H23915969   0.199   6.621   1.284  3.5548 -1.5619 -1.7706
   66MOL   H24015970   0.275   6.463   1.282 -1.3400 -2.0993 -1.9210
   66MOL   H24115971   0.096   6.479   1.280  2.2560 -1.8613 -3.0026
   66MOL   H24215972   0.378   6.438   1.486 -0.4177 -1.3847 -1.6122
   67MOL     C115973   3.304   5.938   1.447 -0.2360  0.7751 -0.1843
   67MOL     C215974   3.259   5.808   1.509 -0.6221  0.6745 -0.0975
   67MOL     C315975   3.139   5.844   1.610  0.1936 -0.1525 -0.8673
   67MOL     C415976   3.025   5.907   1.535  0.1460  0.1041  0.4868
   67MOL     H515977   3.351   6.003   1.521 -1.3124  1.6104 -0.2215
   67MOL     H615978   3.374   5.904   1.371 -2.3867 -0.6626 -1.5771
   67MOL     H715979   3.236   5.742   1.425 -1.1151 -0.2139  0.7273
   67MOL     H815980   3.152   5.896   1.705  1.8914 -0.0181 -1.1587
   67MOL     H915981   3.092   5.753   1.646 -1.5501  1.2062  0.3819
   67MOL    H1015982   3.038   6.010   1.502 -1.4674  0.4656  0.9054
   67MOL    H1115983   2.997   5.857   1.442  3.9872 -1.8840  0.3198
   67MOL    H1215984   2.934   5.910   1.595  0.6403  2.4512  1.1771
   67MOL    H1315985   3.227   6.000   1.401 -1.2034  0.1065  0.5132
   67MOL    C1415986   3.380   5.752   1.589  0.0627  0.0148 -0.4131
   67MOL    C1515987   3.496   5.687   1.512  0.0022  0.5464 -0.2944
   67MOL    C1615988   3.438   5.581   1.414 -0.2970 -0.2449  0.0917
   67MOL    C1715989   3.547   5.518   1.326 -0.2045 -0.0201  0.1795
   67MOL    H1815990   3.338   5.676   1.656 -2.2960  2.2986  0.7839
   67MOL    H1915991   3.415   5.831   1.655  1.9363 -0.9599 -0.2051
   67MOL    H2015992   3.553   5.760   1.456  0.5326  0.6196  0.3284
   67MOL    H2115993   3.364   5.608   1.340  0.6740 -0.0386 -0.8207
   67MOL    H2215994   3.381   5.505   1.467  0.2733 -1.4429 -0.9936
   67MOL    H2315995   3.498   5.458   1.249 -1.7317  2.2192 -0.6513
   67MOL    H2415996   3.601   5.586   1.259  0.4675  1.1983  1.9364
   67MOL    H2515997   3.620   5.456   1.379 -1.4105  0.9047  2.9786
   67MOL    C2615998   3.597   5.620   1.607  0.3516 -0.2757  0.2151
   67MOL    C2715999   3.659   5.704   1.714 -0.1143  0.2516 -0.3391
   67MOL    C2816000   3.716   5.845   1.679 -0.0592  0.0411 -0.0548
   67MOL    C2916001   3.807   5.838   1.552  0.0987 -0.2632  0.1906
   67MOL    H3016002   3.676   5.599   1.536  1.1668 -1.0703  1.3362
   67MOL    H3116003   3.550   5.536   1.659  0.6817 -0.8747 -0.4350
   67MOL    H3216004   3.584   5.726   1.791 -0.5167 -2.8148  0.2040
   67MOL    H3316005   3.785   5.886   1.753  0.1200 -2.0746  0.9803
   67MOL    H3416006   3.630   5.912   1.673  0.1866  0.1674 -2.6818
   67MOL    H3516007   3.908   5.806   1.579  0.8474  1.1321 -0.8529
   67MOL    H3616008   3.762   5.774   1.477  1.0985 -0.9820  0.1996
   67MOL    H3716009   3.821   5.936   1.504 -0.3928 -0.2811  0.0090
   67MOL    C3816010   3.761   5.614   1.792 -0.1613 -0.4026  0.6545
   67MOL    C3916011   3.779   5.654   1.937 -0.3764 -0.9277  0.1621
   67MOL    C4016012   3.908   5.576   1.989 -0.7465  0.5552 -0.2226
   67MOL    C4116013   4.042   5.626   1.920  0.4212  0.6134 -0.1240
   67MOL    H4216014   3.851   5.609   1.732 -0.6185  0.0739 -0.0697
   67MOL    H4316015   3.722   5.513   1.784 -0.0775 -0.3817 -0.0482
   67MOL    H4416016   3.798   5.761   1.937 -0.5495 -0.8815 -1.7134
   67MOL    H4516017   3.894   5.469   1.973 -0.6726  0.8952 -2.7717
   67MOL    H4616018   3.929   5.596   2.094 -0.1845 -1.1016  0.0008
   67MOL    H4716019   4.026   5.677   1.825 -0.4925  0.0411 -0.2894
   67MOL    H4816020   4.082   5.700   1.988 -0.5128  0.9704  0.0392
   67MOL    H4916021   4.109   5.540   1.913  0.8597  0.9237  0.2382
   67MOL    C5016022   3.660   5.611   2.028  0.6238 -0.3682 -0.3209
   67MOL    C5116023   3.679   5.677   2.170 -0.2134 -0.6815 -0.1332
   67MOL    C5216024   3.629   5.579   2.276  0.3975  0.1723 -0.4966
   67MOL    C5316025   3.631   5.627   2.420 -0.3571  0.0503  0.3726
   67MOL    H5416026   3.652   5.503   2.033  0.3478 -0.2859  1.0613
   67MOL    H5516027   3.565   5.638   1.982  0.4264 -0.3150  0.1204
   67MOL    H5616028   3.781   5.706   2.195 -0.2716 -0.4265 -0.1919
   67MOL    H5716029   3.690   5.489   2.283  0.4052  0.3422  1.8422
   67MOL    H5816030   3.527   5.548   2.256  0.5585  0.1688 -1.3287
   67MOL    H5916031   3.542   5.680   2.455 -0.8190 -1.4360  1.4737
   67MOL    H6016032   3.630   5.536   2.480 -1.2762 -1.6202 -2.0962
   67MOL    H6116033   3.716   5.694   2.440 -0.3682 -0.6290  2.8517
   67MOL    C6216034   3.600   5.808   2.180  0.6302  0.1129 -0.5659
   67MOL    C6316035   3.637   5.925   2.088  0.4302 -0.0278 -0.4503
   67MOL    C6416036   3.780   5.975   2.120  0.2833 -0.0694 -0.0185
   67MOL    C6516037   3.840   6.071   2.017 -0.0493 -0.0839  0.4622
   67MOL    H6616038   3.609   5.849   2.280 -0.5461 -1.8456  0.3714
   67MOL    H6716039   3.494   5.789   2.166  0.7289 -0.1479 -0.9983
   67MOL    H6816040   3.643   5.890   1.985  0.3502 -0.5044 -0.2929
   67MOL    H6916041   3.854   5.895   2.122 -1.0497 -1.4852 -3.5656
   67MOL    H7016042   3.786   6.021   2.219  1.8369 -0.6736  0.1730
   67MOL    H7116043   3.930   6.118   2.058 -1.4813  3.3611 -0.1542
   67MOL    H7216044   3.874   6.014   1.931  0.5183 -0.2692  0.8077
   67MOL    H7316045   3.771   6.154   1.999 -1.3010 -0.9675  1.1478
   67MOL    C7416046   3.531   6.044   2.099  0.2220 -0.4397 -0.0710
   67MOL    C7516047   3.394   6.016   2.033 -0.0020 -0.0072 -0.0622
   67MOL    C7616048   3.409   5.981   1.885  0.2461 -0.1626 -0.3154
   67MOL    C7716049   3.476   6.100   1.802  0.3577  0.0747 -0.1862
   67MOL    H7816050   3.575   6.135   2.058 -0.0991 -0.6734 -0.9379
   67MOL    H7916051   3.508   6.077   2.201  0.0381  1.0556 -0.5797
   67MOL    H8016052   3.353   5.923   2.072 -1.1228  0.2748 -0.5525
   67MOL    H8116053   3.311   5.960   1.843 -0.1458  0.0519  0.4880
   67MOL    H8216054   3.468   5.891   1.864 -0.0266 -0.7850  1.5357
   67MOL    H8316055   3.584   6.094   1.814  0.2274 -1.1089  0.5172
   67MOL    H8416056   3.457   6.083   1.696  4.5262 -0.6723 -0.8637
   67MOL    H8516057   3.442   6.199   1.832  0.8010 -0.1477  1.0700
   67MOL    C8616058   3.290   6.129   2.068 -0.5589  0.7864  0.5792
   67MOL    C8716059   3.144   6.081   2.044 -0.0070  0.0053  0.8491
   67MOL    C8816060   3.087   6.140   1.915  0.3910  0.5478 -0.5880
   67MOL    C8916061   2.963   6.063   1.876  0.1567 -0.5666  0.3023
   67MOL    H9016062   3.308   6.218   2.007 -0.5164  1.7953  2.0368
   67MOL    H9116063   3.312   6.169   2.166 -0.2123  3.0002 -0.3680
   67MOL    H9216064   3.145   5.976   2.016 -0.2775  0.4043 -0.7165
   67MOL    H9316065   3.171   6.142   1.846  2.4302  0.0124  1.7825
   67MOL    H9416066   3.075   6.247   1.935  1.8139  0.4469  0.9636
   67MOL    H9516067   2.972   5.954   1.872 -0.5557 -0.7562  2.9886
   67MOL    H9616068   2.876   6.086   1.937  0.5924 -1.6221  1.3328
   67MOL    H9716069   2.940   6.092   1.773 -1.4486 -0.5607  0.6391
   67MOL    C9816070   3.058   6.092   2.165 -0.5199 -0.4223 -0.0278
   67MOL    C9916071   2.969   5.968   2.189  0.3826  0.3446 -0.4209
   67MOL   C10016072   2.846   6.020   2.266  0.3418  0.1105 -0.2106
   67MOL   C10116073   2.881   6.073   2.406  0.6927  0.3073  0.3332
   67MOL   H10216074   2.988   6.171   2.138 -0.7096 -0.6322 -0.1547
   67MOL   H10316075   3.112   6.127   2.254  3.5614 -2.5420 -1.5208
   67MOL   H10416076   2.932   5.924   2.097 -2.0462  1.3261  0.0430
   67MOL   H10516077   2.778   5.936   2.282 -0.2626  0.4914 -0.7872
   67MOL   H10616078   2.789   6.096   2.212 -2.2184 -1.1474  0.6390
   67MOL   H10716079   2.942   6.163   2.395  1.8546 -0.3654  1.1485
   67MOL   H10816080   2.792   6.119   2.447  0.6934  0.6014  0.0103
   67MOL   H10916081   2.928   6.012   2.483  0.5565 -0.0883  0.1085
   67MOL   C11016082   3.060   5.861   2.262 -0.1790 -0.0815  0.1716
   67MOL   C11116083   2.984   5.732   2.296 -0.1314  0.8924  0.6020
   67MOL   C11216084   3.052   5.668   2.426  0.8338  0.5613 -0.1759
   67MOL   C11316085   3.026   5.736   2.562  0.4268 -0.1364  0.4861
   67MOL   H11416086   3.099   5.912   2.350 -2.4101 -0.3150  1.3444
   67MOL   H11516087   3.151   5.837   2.207 -1.3315 -2.5417 -0.7222
   67MOL   H11616088   2.884   5.752   2.335 -0.4396  0.1667  0.1804
   67MOL   H11716089   3.160   5.666   2.420  0.7102 -0.2011 -2.6332
   67MOL   H11816090   3.021   5.564   2.435  0.8239  0.4376 -1.4623
   67MOL   H11916091   3.048   5.842   2.548 -0.4634 -0.0494 -0.2556
   67MOL   H12016092   2.919   5.727   2.581  0.5503  0.6529  1.6342
   67MOL   H12116093   3.091   5.693   2.638 -0.5383  0.1176  1.4550
   67MOL   C12216094   2.971   5.639   2.171 -0.3185 -0.1393  0.1460
   67MOL   C12316095   3.082   5.532   2.149  0.1076 -0.0543  0.2087
   67MOL   C12416096   3.225   5.600   2.132 -0.4540 -0.1355  0.2832
   67MOL   C12516097   3.248   5.661   1.990 -0.6706 -0.3786  0.2871
   67MOL   H12616098   2.957   5.716   2.095  1.6068  1.9747  1.8581
   67MOL   H12716099   2.876   5.587   2.178 -0.2497 -0.2530  0.2468
   67MOL   H12816100   3.101   5.474   2.240  5.2850  0.4031 -0.4068
   67MOL   H12916101   3.302   5.524   2.147 -1.1839 -0.9839 -0.2468
   67MOL   H13016102   3.247   5.665   2.217 -0.4262 -0.9741  0.9229
   67MOL   H13116103   3.345   5.710   1.995 -0.4555 -0.9653  2.3090
   67MOL   H13216104   3.261   5.597   1.903 -0.0082  1.1083 -0.7274
   67MOL   H13316105   3.173   5.736   1.968  0.0352  0.6972  1.4849
   67MOL   C13416106   3.037   5.433   2.047  0.3780 -0.0103 -0.1650
   67MOL   C13516107   2.931   5.336   2.080  0.3319  0.3050  0.5875
   67MOL   C13616108   2.957   5.256   2.213  0.3975  0.0322 -0.0813
   67MOL   C13716109   2.879   5.302   2.336 -0.4137 -0.1066  0.2081
   67MOL   H13816110   3.121   5.381   2.001  0.6321 -0.2199  0.5305
   67MOL   H13916111   3.003   5.499   1.968  2.8147  1.5792  0.0604
   67MOL   H14016112   2.840   5.396   2.087  0.9962  1.4285 -0.2008
   67MOL   H14116113   3.065   5.258   2.228  0.2161  0.5612  1.2211
   67MOL   H14216114   2.940   5.149   2.204  1.4798 -0.2865  1.4652
   67MOL   H14316115   2.880   5.410   2.355  0.2122 -0.7137  4.0500
   67MOL   H14416116   2.773   5.278   2.347 -0.2673 -1.7150 -1.7442
   67MOL   H14516117   2.914   5.244   2.421  0.8672 -0.1950 -0.3748
   67MOL   C14616118   2.902   5.237   1.956 -0.1227 -0.1253 -0.3645
   67MOL   C14716119   2.830   5.301   1.837  1.0035 -0.5241 -0.1729
   67MOL   C14816120   2.713   5.218   1.781  0.2862  0.8008 -0.4643
   67MOL   C14916121   2.745   5.072   1.735  0.0916  0.0445 -1.0532
   67MOL   H15016122   2.845   5.151   1.990 -1.8021  0.7557 -0.8958
   67MOL   H15116123   2.997   5.190   1.931  0.1162 -0.1812  0.6274
   67MOL   H15216124   2.786   5.394   1.872 -0.2567 -0.8991 -0.7472
   67MOL   H15316125   2.667   5.259   1.691 -0.5784 -0.1919 -0.4906
   67MOL   H15416126   2.635   5.197   1.855  3.2957 -2.2584  2.0063
   67MOL   H15516127   2.764   5.003   1.817 -2.4395 -1.1584 -1.4087
   67MOL   H15616128   2.669   5.022   1.674 -0.1216 -1.7732  0.6784
   67MOL   H15716129   2.835   5.083   1.674  1.8844  0.3575  1.5855
   67MOL   C15816130   2.927   5.350   1.722 -0.1788  0.0933 -1.2632
   67MOL   C15916131   2.862   5.441   1.605  0.1076  0.1992 -0.1821
   67MOL   C16016132   2.959   5.444   1.488  0.3060 -0.4189 -0.3196
   67MOL   C16116133   2.892   5.500   1.361  0.3414 -0.7684  0.4773
   67MOL   H16216134   2.967   5.256   1.685  0.2434  0.1664 -0.9989
   67MOL   H16316135   3.016   5.402   1.759 -1.7792  0.8332  1.7222
   67MOL   H16416136   2.767   5.397   1.577  0.3027 -1.2178  1.2880
   67MOL   H16516137   2.993   5.343   1.464 -1.1774 -0.7450 -1.0737
   67MOL   H16616138   3.048   5.504   1.506 -1.1587  1.4564  0.7668
   67MOL   H16716139   2.834   5.591   1.376  0.0740 -0.3068 -2.8897
   67MOL   H16816140   2.961   5.535   1.285  0.7717  0.8806  1.6067
   67MOL   H16916141   2.831   5.415   1.330  1.1292 -0.7072 -1.2947
   67MOL   C17016142   2.840   5.579   1.662  0.0532 -0.0706  0.1396
   67MOL   C17116143   2.699   5.613   1.725 -0.7156  1.1655 -0.6150
   67MOL   C17216144   2.598   5.675   1.625 -0.1788 -0.0136 -0.3985
   67MOL   C17316145   2.470   5.591   1.594  0.0813  0.2243  1.0182
   67MOL   H17416146   2.865   5.665   1.600  0.6504 -0.9100 -0.8055
   67MOL   H17516147   2.918   5.593   1.736  2.9303  0.8984 -2.9430
   67MOL   H17616148   2.659   5.514   1.748  1.8659 -0.0653 -1.1949
   67MOL   H17716149   2.646   5.699   1.530  0.7838 -3.1894 -0.7957
   67MOL   H17816150   2.555   5.770   1.657 -1.1371  0.0030 -1.6695
   67MOL   H17916151   2.481   5.489   1.558 -0.3609  0.7941 -0.7810
   67MOL   H18016152   2.394   5.594   1.672 -2.4472 -0.3100 -1.3593
   67MOL   H18116153   2.421   5.638   1.508  0.0237 -1.4792  0.1019
   67MOL   C18216154   2.716   5.701   1.850  0.5002  0.3657  0.1735
   67MOL   C18316155   2.588   5.717   1.935  0.3690  0.8338 -0.0937
   67MOL   C18416156   2.591   5.852   2.019  0.9579 -0.3189 -0.3843
   67MOL   C18516157   2.545   5.978   1.949 -0.5767 -0.0924 -0.3379
   67MOL   H18616158   2.748   5.798   1.812  0.5937  0.2198 -0.1213
   67MOL   H18716159   2.796   5.661   1.912 -0.5408 -0.6162  0.9108
   67MOL   H18816160   2.497   5.733   1.876  0.7631  1.9016 -0.4277
   67MOL   H18916161   2.688   5.884   2.056  1.2364 -0.8401 -0.6595
   67MOL   H19016162   2.534   5.840   2.111  1.6485  3.0831  0.5413
   67MOL   H19116163   2.588   5.996   1.851 -0.9947 -0.7142 -0.6374
   67MOL   H19216164   2.437   5.980   1.930 -0.8020  1.2391  0.9526
   67MOL   H19316165   2.552   6.068   2.010 -1.9947  0.2861 -0.7062
   67MOL   C19416166   2.583   5.597   2.033 -0.3862 -0.1279  0.3612
   67MOL   C19516167   2.446   5.575   2.104 -0.1133 -0.0470  0.0034
   67MOL   C19616168   2.461   5.492   2.238 -0.6571 -0.1141  0.5373
   67MOL   C19716169   2.544   5.567   2.341 -0.1896  0.2945 -0.5805
   67MOL   H19816170   2.666   5.616   2.101 -0.1375  0.9284 -0.2336
   67MOL   H19916171   2.609   5.507   1.978  0.7914 -0.2576  1.1147
   67MOL   H20016172   2.404   5.670   2.135 -1.1057 -0.8589  1.1905
   67MOL   H20116173   2.500   5.391   2.224 -0.9758 -0.1628 -0.0320
   67MOL   H20216174   2.361   5.470   2.275 -1.0879  1.8460  0.6107
   67MOL   H20316175   2.650   5.572   2.318 -0.0286  0.4187  0.1745
   67MOL   H20416176   2.513   5.671   2.356  0.2392  0.4500 -0.7671
   67MOL   H20516177   2.537   5.518   2.438 -3.2361  2.2090  0.2277
   67MOL   C20616178   2.352   5.503   2.004 -0.1320 -0.3885 -0.2058
   67MOL   C20716179   2.225   5.428   2.063 -0.0589 -0.1187 -0.2258
   67MOL   C20816180   2.159   5.331   1.960  0.1130 -0.8304  0.1322
   67MOL   C20916181   2.253   5.235   1.878  1.0991  0.0178 -0.4943
   67MOL   H21016182   2.415   5.425   1.961  0.2954 -0.1174 -0.0789
   67MOL   H21116183   2.319   5.559   1.917  1.1752 -1.3779 -1.3784
   67MOL   H21216184   2.259   5.353   2.134 -2.6779 -0.2556  0.9747
   67MOL   H21316185   2.086   5.381   1.896 -0.9565 -1.2536  0.9940
   67MOL   H21416186   2.100   5.261   2.020  0.3521 -1.3095 -0.1984
   67MOL   H21516187   2.185   5.179   1.814  1.3627 -2.3701  1.2455
   67MOL   H21616188   2.329   5.285   1.818  1.5090 -0.6504 -0.5366
   67MOL   H21716189   2.291   5.160   1.947  0.8260  0.2904 -0.0406
   67MOL   C21816190   2.120   5.522   2.132  0.7482  0.2165 -0.2931
   67MOL   C21916191   2.040   5.462   2.250  1.0656  0.1376  0.0462
   67MOL   C22016192   1.936   5.355   2.216  0.1806 -0.0167  0.5291
   67MOL   C22116193   1.972   5.217   2.277 -0.6622  0.2285 -0.2931
   67MOL   H22216194   2.059   5.579   2.062 -0.3221  2.4610  2.3523
   67MOL   H22316195   2.174   5.602   2.183  0.7004 -1.0243  1.7573
   67MOL   H22416196   2.105   5.416   2.325  1.0424 -0.0950 -0.0771
   67MOL   H22516197   1.929   5.341   2.108  0.6829 -0.9554  0.6086
   67MOL   H22616198   1.838   5.374   2.260 -0.6739 -1.1685 -0.8222
   67MOL   H22716199   1.987   5.218   2.385 -0.4076 -0.5515 -0.3128
   67MOL   H22816200   1.892   5.145   2.263  1.2866 -2.1223  0.2142
   67MOL   H22916201   2.061   5.177   2.227  0.5612  3.8866 -1.2257
   67MOL   C23016202   1.977   5.584   2.328  0.6418  0.0544  0.3473
   67MOL   C23116203   1.862   5.665   2.263 -0.4338  0.2875 -0.2398
   67MOL   C23216204   1.852   5.801   2.333  0.6326  0.3270  0.2228
   67MOL   C23316205   1.753   5.911   2.285  0.0726 -0.0111 -0.5181
   67MOL   H23416206   2.054   5.652   2.362  1.1541 -1.0193  1.3894
   67MOL   H23516207   1.935   5.548   2.422 -2.8981  0.5763 -0.9324
   67MOL   H23616208   1.863   5.692   2.158 -1.0703  0.9645 -0.0739
   67MOL   H23716209   1.948   5.852   2.343 -0.8318  2.7073  3.0137
   67MOL   H23816210   1.823   5.775   2.435  1.2654  0.6563  0.4928
   67MOL   H23916211   1.757   5.935   2.179 -0.6183 -0.3848 -0.6367
   67MOL   H24016212   1.647   5.887   2.296  0.0548 -0.6681 -1.9401
   67MOL   H24116213   1.767   6.007   2.333 -2.2547  1.0109 -1.7911
   67MOL   H24216214   1.765   5.616   2.268 -0.0067 -0.5768 -0.3112
   68MOL     C116215   2.764   5.097   1.021  0.8739 -0.6428  0.5223
   68MOL     C216216   2.708   5.172   1.147  0.1647 -0.2100 -0.1405
   68MOL     C316217   2.689   5.078   1.266 -0.1989 -0.0866 -0.0129
   68MOL     C416218   2.816   5.040   1.346 -0.5471 -0.8032 -0.0895
   68MOL     H516219   2.688   5.033   0.976  0.1711  1.1482 -0.9094
   68MOL     H616220   2.795   5.173   0.949 -0.1798 -1.9249 -1.3105
   68MOL     H716221   2.789   5.241   1.171 -1.1123  0.5457  2.0930
   68MOL     H816222   2.631   4.990   1.237 -0.7186  0.5031 -0.7866
   68MOL     H916223   2.622   5.128   1.336 -0.8616  0.4537 -1.0278
   68MOL    H1016224   2.799   4.966   1.425  0.0136  1.0459  1.8002
   68MOL    H1116225   2.885   5.013   1.266  0.3652  3.4538 -0.8613
   68MOL    H1216226   2.857   5.123   1.404 -0.2715 -1.0631  0.0905
   68MOL    H1316227   2.846   5.036   1.059 -0.3541 -1.6040  1.7097
   68MOL    C1416228   2.574   5.252   1.118 -0.2190 -0.2269  0.1632
   68MOL    C1516229   2.578   5.375   1.023 -0.2428 -0.5362  0.2923
   68MOL    C1616230   2.684   5.482   1.058  0.0571  0.6052  0.2636
   68MOL    C1716231   2.742   5.560   0.936  0.1002 -0.3323  0.1775
   68MOL    H1816232   2.527   5.285   1.210 -1.0479  2.1064 -1.0425
   68MOL    H1916233   2.494   5.188   1.080 -0.0918 -1.7805  2.4240
   68MOL    H2016234   2.606   5.340   0.923  0.2493  0.2677  0.1411
   68MOL    H2116235   2.771   5.433   1.103  1.3861  1.6371 -1.1249
   68MOL    H2216236   2.647   5.545   1.139 -0.6540 -0.9398  1.1677
   68MOL    H2316237   2.699   5.658   0.915 -0.5553 -0.5548  0.4658
   68MOL    H2416238   2.851   5.566   0.940  0.3545 -2.0645 -2.9775
   68MOL    H2516239   2.731   5.501   0.845 -3.0034  0.6698 -0.1446
   68MOL    C2616240   2.435   5.437   1.015  0.2832 -0.1176 -0.1390
   68MOL    C2716241   2.409   5.548   0.907 -0.5508  0.0551 -0.5476
   68MOL    C2816242   2.288   5.638   0.938 -0.1202  0.5189  0.1549
   68MOL    C2916243   2.304   5.722   1.068 -0.1458 -0.3618  0.4508
   68MOL    H3016244   2.400   5.456   1.116  2.3682 -3.8642  1.4049
   68MOL    H3116245   2.364   5.357   0.991  0.5026  0.0860 -1.5127
   68MOL    H3216246   2.499   5.609   0.902 -1.4750  1.9111  3.3992
   68MOL    H3316247   2.203   5.569   0.946  2.0017 -1.9808  1.8956
   68MOL    H3416248   2.269   5.707   0.856 -1.6489  0.8766  0.7799
   68MOL    H3516249   2.396   5.777   1.054 -2.1878  2.4687 -2.5319
   68MOL    H3616250   2.216   5.786   1.078  0.0026 -0.2539  1.0678
   68MOL    H3716251   2.319   5.664   1.159  2.9977 -1.0229 -0.4325
   68MOL    C3816252   2.393   5.485   0.772 -1.0797  0.4881 -0.0133
   68MOL    C3916253   2.396   5.582   0.647  0.3993 -0.6313 -0.2674
   68MOL    C4016254   2.368   5.489   0.523 -0.8652  0.3144  0.1409
   68MOL    C4116255   2.323   5.543   0.379  0.0999 -0.3186 -0.3071
   68MOL    H4216256   2.302   5.425   0.773 -1.1940  0.6068 -1.8349
   68MOL    H4316257   2.474   5.412   0.761 -1.8202 -0.4090  0.4206
   68MOL    H4416258   2.314   5.654   0.650  3.7758  3.4351  0.5885
   68MOL    H4516259   2.295   5.414   0.552 -0.6229  0.0920  0.1787
   68MOL    H4616260   2.457   5.430   0.503 -1.9128 -1.2138 -0.0585
   68MOL    H4716261   2.227   5.595   0.388 -1.5465 -3.5100  1.5183
   68MOL    H4816262   2.395   5.623   0.361 -1.0726  0.6740 -0.7196
   68MOL    H4916263   2.331   5.475   0.294  2.6523  0.0553 -0.3956
   68MOL    C5016264   2.524   5.666   0.624  0.4365  0.1498  0.4257
   68MOL    C5116265   2.526   5.807   0.691 -0.1061  0.2002 -0.3389
   68MOL    C5216266   2.420   5.891   0.615 -0.0280  0.3534 -0.0624
   68MOL    C5316267   2.461   5.939   0.472  0.2175  0.5154  0.3365
   68MOL    H5416268   2.543   5.679   0.517  2.2691 -0.1778  0.7072
   68MOL    H5516269   2.604   5.601   0.657 -0.1138 -0.2864  0.9172
   68MOL    H5616270   2.502   5.792   0.796 -2.3690  2.7728 -0.4469
   68MOL    H5716271   2.401   5.981   0.674  1.3191  0.9836 -0.5849
   68MOL    H5816272   2.316   5.859   0.614  0.1498 -0.1973 -1.5471
   68MOL    H5916273   2.379   5.994   0.427 -0.5018  0.7684  1.9274
   68MOL    H6016274   2.550   6.002   0.464  0.4157  0.1888 -0.0620
   68MOL    H6116275   2.480   5.850   0.412  0.9117 -0.0125  1.3205
   68MOL    C6216276   2.665   5.874   0.697 -0.8554  0.5845 -0.1347
   68MOL    C6316277   2.672   5.999   0.787  0.7053  0.2166  0.1445
   68MOL    C6416278   2.793   6.085   0.742  0.4350 -0.6764  0.7614
   68MOL    C6516279   2.750   6.184   0.634  0.3630 -0.1625  0.7517
   68MOL    H6616280   2.684   5.905   0.594 -1.0613 -0.2214 -0.4173
   68MOL    H6716281   2.751   5.814   0.726  0.5352  2.0360 -1.1448
   68MOL    H6816282   2.585   6.064   0.778 -0.0284 -0.0238  4.4240
   68MOL    H6916283   2.878   6.028   0.705  1.8762  2.2386 -0.5458
   68MOL    H7016284   2.832   6.156   0.816  3.6823 -1.1843 -0.4011
   68MOL    H7116285   2.711   6.128   0.549  0.6473 -0.8563  1.0727
   68MOL    H7216286   2.670   6.244   0.678  0.2507 -2.4045  3.7598
   68MOL    H7316287   2.831   6.249   0.603  1.4605 -1.9484 -0.1963
   68MOL    C7416288   2.681   5.957   0.937 -0.0780  0.8354  0.0575
   68MOL    C7516289   2.699   6.072   1.034 -0.1787 -0.3375 -0.9762
   68MOL    C7616290   2.687   6.012   1.179  0.7202  0.0462 -0.2643
   68MOL    C7716291   2.792   5.905   1.219  0.2348  0.1386  0.2291
   68MOL    H7816292   2.768   5.893   0.954 -0.5939  0.4352  1.2494
   68MOL    H7916293   2.591   5.902   0.964 -0.3986  1.3242 -0.0233
   68MOL    H8016294   2.802   6.108   1.031  0.3635 -1.5999  1.1900
   68MOL    H8116295   2.589   5.966   1.186  0.0576  1.2593 -1.3844
   68MOL    H8216296   2.700   6.082   1.261 -0.8034  0.9173 -0.7351
   68MOL    H8316297   2.895   5.934   1.198  0.4369  1.1227  2.4366
   68MOL    H8416298   2.777   5.881   1.324  1.8483 -1.6546  0.0776
   68MOL    H8516299   2.778   5.812   1.164 -0.9405  0.5200 -0.1298
   68MOL    C8616300   2.591   6.184   1.007  0.2070  0.1724  0.3357
   68MOL    C8716301   2.595   6.313   1.097  0.3656  0.1170 -0.8099
   68MOL    C8816302   2.485   6.425   1.061 -0.3924 -0.3605 -0.7221
   68MOL    C8916303   2.337   6.372   1.076 -0.0427 -0.4766  0.0530
   68MOL    H9016304   2.495   6.138   1.028 -1.2076  2.7024 -0.3922
   68MOL    H9116305   2.595   6.208   0.901  0.5953 -3.0268 -0.4315
   68MOL    H9216306   2.564   6.269   1.192 -2.4633 -1.6882 -2.4991
   68MOL    H9316307   2.509   6.460   0.961  3.0361  0.1826  0.2463
   68MOL    H9416308   2.489   6.512   1.126  0.6891 -2.1679  1.6928
   68MOL    H9516309   2.317   6.278   1.025 -0.1276 -0.6406  0.3848
   68MOL    H9616310   2.307   6.355   1.180 -2.0257 -1.0423 -0.5907
   68MOL    H9716311   2.265   6.443   1.035 -0.9774 -0.9498  0.8478
   68MOL    C9816312   2.734   6.387   1.104  0.6483  0.1452  0.0332
   68MOL    C9916313   2.789   6.434   1.236 -0.1124  0.2767  0.1885
   68MOL   C10016314   2.704   6.552   1.296  0.1680  0.0822 -0.0903
   68MOL   C10116315   2.704   6.687   1.213  0.0922 -0.2029  0.4751
   68MOL   H10216316   2.715   6.473   1.040 -2.1836 -0.0105  0.6049
   68MOL   H10316317   2.806   6.317   1.062  0.1114 -0.6771  0.4656
   68MOL   H10416318   2.782   6.346   1.299 -1.5692  0.3759  0.1944
   68MOL   H10516319   2.731   6.567   1.401  0.5294 -0.4769 -0.1008
   68MOL   H10616320   2.603   6.510   1.305  0.6521 -0.7693  1.6097
   68MOL   H10716321   2.624   6.746   1.258  0.8333 -0.2258  1.8268
   68MOL   H10816322   2.799   6.739   1.222  0.2507 -0.0754 -1.6605
   68MOL   H10916323   2.684   6.694   1.106  0.1174  0.9747  0.5421
   68MOL   C11016324   2.934   6.492   1.228  0.0636 -0.2116  0.4291
   68MOL   C11116325   3.048   6.386   1.209 -0.8484 -0.4053  0.2664
   68MOL   C11216326   3.072   6.287   1.330 -0.0957 -0.4470 -0.1187
   68MOL   C11316327   3.077   6.352   1.466  0.1978 -0.0985 -0.3888
   68MOL   H11416328   2.961   6.559   1.310  0.4101  0.3606 -0.1510
   68MOL   H11516329   2.940   6.557   1.141 -1.7908  0.7898  1.0301
   68MOL   H11616330   3.020   6.322   1.126 -1.0885 -0.3350  0.2911
   68MOL   H11716331   3.164   6.230   1.325 -0.8654 -1.7581  0.3829
   68MOL   H11816332   2.990   6.215   1.337 -0.5126 -0.1553 -1.7975
   68MOL   H11916333   3.080   6.279   1.548  1.3011  1.1270  0.6918
   68MOL   H12016334   3.172   6.405   1.475  0.8043 -1.3792  1.1696
   68MOL   H12116335   2.996   6.417   1.499  2.4589  2.2607  0.7347
   68MOL   C12216336   3.179   6.464   1.176  0.1017 -0.5059  0.2276
   68MOL   C12316337   3.288   6.374   1.118 -0.5296 -0.4416  0.9080
   68MOL   C12416338   3.416   6.384   1.202  0.2896  0.2297  0.1880
   68MOL   C12516339   3.526   6.284   1.171  0.1225 -0.6136 -0.0585
   68MOL   H12616340   3.217   6.536   1.250  0.7072  1.1283 -1.6362
   68MOL   H12716341   3.158   6.536   1.097 -0.5624 -0.9382  0.0069
   68MOL   H12816342   3.251   6.271   1.113  1.3881 -1.0476 -2.3596
   68MOL   H12916343   3.395   6.364   1.308 -0.4987 -3.4804 -0.5727
   68MOL   H13016344   3.465   6.481   1.209 -0.0965  0.4087  0.4258
   68MOL   H13116345   3.479   6.188   1.155 -1.2499 -0.3436  2.2102
   68MOL   H13216346   3.586   6.300   1.081 -0.0308  0.5898  0.0338
   68MOL   H13316347   3.596   6.273   1.254  1.0469  1.4416 -0.5213
   68MOL   C13416348   3.320   6.400   0.971 -0.1807  0.7412 -0.2307
   68MOL   C13516349   3.195   6.369   0.873 -0.0065  0.6758  0.5001
   68MOL   C13616350   3.206   6.222   0.814 -0.3055 -0.2425 -0.9476
   68MOL   C13716351   3.182   6.108   0.911 -0.4287  0.5724 -0.2127
   68MOL   H13816352   3.411   6.347   0.942 -0.5183  1.0981 -1.9689
   68MOL   H13916353   3.351   6.505   0.969 -2.0159  1.3571  1.3325
   68MOL   H14016354   3.103   6.375   0.930  0.6222  2.3283  1.3746
   68MOL   H14116355   3.301   6.212   0.762 -0.5137  2.5171 -1.9122
   68MOL   H14216356   3.139   6.215   0.729  0.4582 -0.2525 -1.5599
   68MOL   H14316357   3.276   6.080   0.959 -0.1450  0.4942 -0.8146
   68MOL   H14416358   3.093   6.133   0.969 -0.1661 -1.4927  1.1376
   68MOL   H14516359   3.155   6.021   0.852  1.3798  0.6520 -1.1830
   68MOL   C14616360   3.195   6.473   0.759 -0.7055  0.6586  0.4737
   68MOL   C14716361   3.071   6.485   0.665  0.4065 -0.0323  0.3048
   68MOL   C14816362   3.091   6.419   0.531 -0.7799 -0.4560  0.2074
   68MOL   C14916363   3.198   6.492   0.437  0.4301  0.1321 -0.2480
   68MOL   H15016364   3.287   6.470   0.701  0.5833  0.7214  2.4459
   68MOL   H15116365   3.210   6.567   0.811  1.8911  0.5683 -0.0661
   68MOL   H15216366   2.984   6.438   0.713 -1.5208  1.0103 -2.0411
   68MOL   H15316367   2.999   6.393   0.479 -2.4750  2.2706  1.6887
   68MOL   H15416368   3.134   6.320   0.545  0.2282 -0.1599 -0.7245
   68MOL   H15516369   3.197   6.460   0.333  0.3592  1.8072 -0.7831
   68MOL   H15616370   3.165   6.595   0.424  1.4083  0.4741 -0.0321
   68MOL   H15716371   3.300   6.502   0.474 -0.0015  2.1356  0.4483
   68MOL   C15816372   3.013   6.620   0.652 -0.1654 -0.2530 -1.0394
   68MOL   C15916373   2.921   6.669   0.776  0.3390 -0.5263  0.1241
   68MOL   C16016374   2.784   6.602   0.776 -0.9055 -0.2726 -0.8083
   68MOL   C16116375   2.706   6.609   0.653 -0.0620 -0.2258  0.4222
   68MOL   H16216376   2.958   6.633   0.559  1.2523  0.5396 -1.7779
   68MOL   H16316377   3.096   6.688   0.633 -1.4483  2.1789  1.6111
   68MOL   H16416378   2.961   6.629   0.869 -0.6213 -0.4629  0.5723
   68MOL   H16516379   2.726   6.636   0.861  0.1335  1.5324 -0.8028
   68MOL   H16616380   2.785   6.495   0.798 -2.3121 -0.6688 -2.5784
   68MOL   H16716381   2.757   6.550   0.576  1.8289  1.1484  0.5777
   68MOL   H16816382   2.604   6.572   0.664 -0.0846 -0.6141 -0.9715
   68MOL   H16916383   2.702   6.714   0.626 -0.0138 -0.2915  0.1502
   68MOL   C17016384   2.913   6.822   0.802 -0.2138  0.1380  0.4849
   68MOL   C17116385   3.050   6.881   0.840 -0.2563 -0.1339 -0.3760
   68MOL   C17216386   3.110   6.836   0.981 -0.5254 -0.1380  0.0307
   68MOL   C17316387   3.261   6.855   0.993 -0.4107 -0.4083 -0.0096
   68MOL   H17416388   2.852   6.841   0.891  0.6225  0.1130  1.0743
   68MOL   H17516389   2.866   6.883   0.725 -0.8371 -1.4377 -0.3847
   68MOL   H17616390   3.123   6.865   0.760  0.7755 -0.0577  0.5408
   68MOL   H17716391   3.088   6.731   0.998 -2.0629  0.2895  0.7372
   68MOL   H17816392   3.061   6.886   1.064 -0.4533  0.1889 -0.1194
   68MOL   H17916393   3.313   6.794   0.918  0.1344  1.0159 -0.7960
   68MOL   H18016394   3.310   6.952   0.996  2.1917 -1.6536 -0.6667
   68MOL   H18116395   3.284   6.811   1.090  0.5822  0.4811  0.1671
   68MOL   C18216396   3.042   7.038   0.835 -0.7941  0.8494  0.2146
   68MOL   C18316397   3.027   7.100   0.698 -0.1768  0.0924  0.5556
   68MOL   C18416398   3.156   7.110   0.625 -0.0436  0.7791  0.3727
   68MOL   C18516399   3.141   7.170   0.486  0.0101  0.3276 -0.7029
   68MOL   H18616400   3.132   7.076   0.884 -0.5467 -2.2362  2.2280
   68MOL   H18716401   2.956   7.069   0.894 -1.6457  1.2041 -1.1794
   68MOL   H18816402   2.962   7.042   0.633 -0.0658  1.2750 -0.6394
   68MOL   H18916403   3.187   7.007   0.605 -2.6058  0.0875 -0.2609
   68MOL   H19016404   3.235   7.156   0.684 -0.3514  0.3517  1.1291
   68MOL   H19116405   3.128   7.278   0.493 -1.6739  0.0815  0.4154
   68MOL   H19216406   3.240   7.170   0.441  0.0603  1.8326 -0.6128
   68MOL   H19316407   3.070   7.118   0.421 -0.6869  0.8428 -0.3669
   68MOL   C19416408   2.972   7.250   0.720 -0.3434  0.7014 -0.2611
   68MOL   C19516409   2.816   7.254   0.756 -0.5204  0.3065  0.1215
   68MOL   C19616410   2.727   7.258   0.630  0.3389 -0.6580 -0.0959
   68MOL   C19716411   2.717   7.131   0.542 -0.0517  0.1295  0.4886
   68MOL   H19816412   2.982   7.309   0.629  2.4723  1.0873  0.2454
   68MOL   H19916413   3.040   7.295   0.794  2.5599  0.7525 -2.8546
   68MOL   H20016414   2.785   7.164   0.809  2.8118 -0.6680  0.5516
   68MOL   H20116415   2.748   7.342   0.563 -0.6632 -2.2630 -2.5079
   68MOL   H20216416   2.626   7.272   0.669  0.7006 -2.2737  1.5066
   68MOL   H20316417   2.629   7.140   0.478  0.3964  3.3775  0.2302
   68MOL   H20416418   2.805   7.126   0.478  0.5595  2.0407  1.1317
   68MOL   H20516419   2.727   7.052   0.616  1.1085  0.0666  0.2715
   68MOL   C20616420   2.782   7.373   0.851 -0.2089  0.2751  0.2809
   68MOL   C20716421   2.635   7.402   0.889 -0.3871 -0.2168 -0.5477
   68MOL   C20816422   2.633   7.526   0.985  0.0417  0.1191 -0.1037
   68MOL   C20916423   2.682   7.655   0.918 -0.4824  0.0148 -0.3839
   68MOL   H21016424   2.841   7.461   0.826  0.2679  0.2559  1.3147
   68MOL   H21116425   2.825   7.330   0.941 -1.5953 -1.5218  0.1054
   68MOL   H21216426   2.578   7.427   0.800 -1.3377  0.0965  0.1409
   68MOL   H21316427   2.680   7.501   1.080  0.4596  0.7446 -0.1383
   68MOL   H21416428   2.533   7.549   1.019 -0.6128  0.4072 -2.1337
   68MOL   H21516429   2.707   0.029   0.987 -0.0042 -1.2615  0.9568
   68MOL   H21616430   2.772   7.646   0.857  0.2561 -0.5026  0.7648
   68MOL   H21716431   2.603   7.699   0.857 -0.6668 -1.1212 -0.9769
   68MOL   C21816432   2.565   7.288   0.963  0.4088 -0.0031  0.2565
   68MOL   C21916433   2.412   7.282   0.971 -0.1289 -0.8506 -0.4750
   68MOL   C22016434   2.368   7.168   1.066  0.3691  0.0116 -0.5282
   68MOL   C22116435   2.252   7.219   1.150  0.1288  0.2648  0.4219
   68MOL   H22216436   2.625   7.277   1.054  0.1457  2.5532  0.7781
   68MOL   H22316437   2.583   7.201   0.900 -2.5264  0.1813 -0.8941
   68MOL   H22416438   2.397   7.373   1.028 -2.6163 -0.6210 -1.4457
   68MOL   H22516439   2.453   7.155   1.134 -1.0754 -1.7917  1.0063
   68MOL   H22616440   2.352   7.081   1.002 -0.8813 -0.8328  0.9027
   68MOL   H22716441   2.300   7.296   1.209 -0.8843  0.5912  0.8303
   68MOL   H22816442   2.171   7.268   1.095  1.0368  0.9736 -0.3029
   68MOL   H22916443   2.224   7.141   1.221  1.5950 -0.8628 -0.2052
   68MOL   C23016444   2.339   7.283   0.825  0.2832 -0.0373  0.1929
   68MOL   C23116445   2.192   7.326   0.835 -0.1661  0.2221  0.1224
   68MOL   C23216446   2.138   7.355   0.690  0.4900 -0.9305  0.2540
   68MOL   C23316447   2.149   7.509   0.647 -0.6114 -0.0510  0.4196
   68MOL   H23416448   2.352   7.193   0.766  2.4443  0.9595 -0.9181
   68MOL   H23516449   2.385   7.360   0.762 -0.2193 -2.3612 -3.1383
   68MOL   H23616450   2.144   7.247   0.891  2.0418 -0.6044  0.9277
   68MOL   H23716451   2.033   7.326   0.678  0.2040 -0.0760  0.6829
   68MOL   H23816452   2.177   7.285   0.616  1.5530 -0.9404  0.8092
   68MOL   H23916453   2.105   7.547   0.555  0.4537  0.9820  0.3160
   68MOL   H24016454   2.110   7.576   0.724 -0.2428  0.0076  0.5591
   68MOL   H24116455   2.258   7.519   0.638 -0.7955  1.6720 -0.1509
   68MOL   H24216456   2.187   7.417   0.896  0.6293 -0.8404  1.8099
   69MOL     C116457   0.874   5.328   6.999  0.5579  0.1877  0.2135
   69MOL     C216458   0.843   5.407   7.132 -1.2514  0.1629  0.2808
   69MOL     C316459   0.958   5.389   7.232  0.3273 -0.0018  0.6829
   69MOL     C416460   1.089   5.443   7.175 -0.1494 -0.0293 -0.1739
   69MOL     H516461   0.913   5.231   7.029 -1.4639 -0.3047  1.3673
   69MOL     H616462   0.784   5.322   6.938  0.7250  2.8411 -0.3773
   69MOL     H716463   0.831   5.510   7.097 -0.8413 -0.2658 -1.1836
   69MOL     H816464   0.959   5.281   7.248  1.0620 -0.0291  0.4685
   69MOL     H916465   0.918   5.427   7.326 -1.6922 -1.6711  0.5283
   69MOL    H1016466   1.159   5.424   7.257  2.4051  1.5542 -1.9232
   69MOL    H1116467   1.130   5.394   7.087  0.6158 -1.5768  1.0200
   69MOL    H1216468   1.080   5.551   7.159 -1.2696 -0.2822 -1.2863
   69MOL    H1316469   0.955   5.370   6.939  0.4046 -2.0701 -1.6045
   69MOL    C1416470   0.708   5.375   7.194 -0.0274  0.4348 -0.7356
   69MOL    C1516471   0.648   5.461   7.315 -0.9898 -0.3315  0.8348
   69MOL    C1616472   0.512   5.399   7.371  0.0100  0.7733  0.1645
   69MOL    C1716473   0.541   5.266   7.448  0.2116  0.8176 -1.0046
   69MOL    H1816474   0.712   5.271   7.226  1.9461  0.6185 -0.3157
   69MOL    H1916475   0.634   5.368   7.114  0.2064  0.5932 -0.9624
   69MOL    H2016476   0.725   5.465   7.392 -0.4056  1.8547  0.1765
   69MOL    H2116477   0.434   5.390   7.296  1.0807  1.0595 -1.0009
   69MOL    H2216478   0.470   5.468   7.444  0.0732  3.0193 -1.8773
   69MOL    H2316479   0.445   5.215   7.455  1.1564 -0.7905  0.8826
   69MOL    H2416480   0.591   5.193   7.384  0.4839 -0.1159  0.2412
   69MOL    H2516481   0.593   5.283   7.542  1.6879 -0.2760 -1.6031
   69MOL    C2616482   0.629   5.610   7.271  0.6534  0.7174  0.3026
   69MOL    C2716483   0.612   5.711   7.389  0.1274  0.3885  0.0892
   69MOL    C2816484   0.565   5.847   7.337  0.0516 -0.5395 -0.1830
   69MOL    C2916485   0.411   5.860   7.318 -0.1209 -0.5997  0.1059
   69MOL    H3016486   0.542   5.609   7.206  1.2989  0.1619 -0.5573
   69MOL    H3116487   0.710   5.656   7.214  1.6268  1.7337  2.4482
   69MOL    H3216488   0.539   5.662   7.453  1.9858  0.0020  1.9604
   69MOL    H3316489   0.617   5.883   7.248  2.5282  0.8671  1.7572
   69MOL    H3416490   0.594   5.924   7.408 -1.7823  0.0910 -0.0924
   69MOL    H3516491   0.386   5.965   7.304  0.0770 -0.7444 -1.4621
   69MOL    H3616492   0.371   5.803   7.233 -0.0289  1.1880 -1.1584
   69MOL    H3716493   0.365   5.825   7.410  0.1301 -0.3184  0.3382
   69MOL    C3816494   0.741   5.715   7.472  0.1880 -0.3541 -0.2001
   69MOL    C3916495   0.726   5.798   7.610 -0.3956 -1.0847  0.6174
   69MOL    C4016496   0.857   5.861   7.651  0.1066 -0.2192 -0.2140
   69MOL    C4116497   0.918   5.963   7.556  0.5348 -0.7395  0.4558
   69MOL    H4216498   0.830   5.736   7.411  1.1121 -2.5532  0.3243
   69MOL    H4316499   0.787   5.624   7.510  0.9716  0.5086  0.9450
   69MOL    H4416500   0.662   5.880   7.577  0.6482 -0.1490  0.8692
   69MOL    H4516501   0.926   5.780   7.676  3.0176  1.8436 -1.2634
   69MOL    H4616502   0.844   5.919   0.036 -1.2495  1.0590 -1.2026
   69MOL    H4716503   0.855   6.050   7.536  0.8759 -0.7010 -0.5026
   69MOL    H4816504   1.009   6.004   7.600  0.3874  1.1918 -0.9789
   69MOL    H4916505   0.953   5.934   7.457 -2.2426  3.9028 -2.0843
   69MOL    C5016506   0.650   5.719   0.011  0.0876 -0.0866 -0.8937
   69MOL    C5116507   0.529   5.793   0.059  0.4814 -0.2305 -0.5429
   69MOL    C5216508   0.560   5.936   0.119 -0.0390 -0.4585 -0.0455
   69MOL    C5316509   0.435   6.034   0.116  0.5372 -0.6897  0.0957
   69MOL    H5416510   0.717   5.689   0.092 -3.2601 -3.1357  0.8885
   69MOL    H5516511   0.621   5.619   7.685 -0.5414 -0.2946  0.2947
   69MOL    H5616512   0.473   5.812   7.674 -0.3190 -1.6764 -0.3486
   69MOL    H5716513   0.634   5.985   0.056 -0.0212 -0.9985 -0.4474
   69MOL    H5816514   0.610   5.921   0.216  0.9822 -1.3610 -0.6925
   69MOL    H5916515   0.352   6.008   0.181 -2.3661  1.5738 -2.5290
   69MOL    H6016516   0.451   6.137   0.147 -0.5827 -0.2062 -0.8977
   69MOL    H6116517   0.404   6.050   0.012  1.6939 -1.6719 -0.4148
   69MOL    C6216518   0.442   5.719   0.154  0.3242  0.7214  0.2637
   69MOL    C6316519   0.341   5.611   0.096 -0.7216 -0.9316  0.0749
   69MOL    C6416520   0.247   5.665   7.698  0.7345 -0.2213 -0.8359
   69MOL    C6516521   0.174   5.801   0.023 -0.3204  0.1664  0.0548
   69MOL    H6616522   0.382   5.781   0.221 -0.6051 -1.4433  1.4746
   69MOL    H6716523   0.500   5.664   0.227  0.8099  0.2900 -0.4385
   69MOL    H6816524   0.406   5.533   0.057 -2.5282 -2.9793  1.0457
   69MOL    H6916525   0.183   5.580   7.674  1.4359 -0.7294 -0.9282
   69MOL    H7016526   0.298   5.673   7.601 -1.5393  1.8481 -1.9131
   69MOL    H7116527   0.238   5.873   7.677  0.5934  0.4146  1.4814
   69MOL    H7216528   0.071   5.803   7.695  0.5479 -1.7412 -2.9075
   69MOL    H7316529   0.167   5.817   0.130  2.9113 -0.3890  0.4056
   69MOL    C7416530   0.261   5.550   0.223 -0.0034 -0.5185 -0.7781
   69MOL    C7516531   0.148   5.441   0.208 -1.2262 -0.0514 -0.0835
   69MOL    C7616532   0.099   5.399   0.350 -0.4134  0.0269 -0.0456
   69MOL    C7716533   7.705   5.494   0.409 -0.2726 -0.1179 -0.7491
   69MOL    H7816534   0.210   5.629   0.278 -2.1519  0.2306 -3.7023
   69MOL    H7916535   0.337   5.518   0.294 -0.9403  0.3377  0.6382
   69MOL    H8016536   0.072   5.494   0.152 -0.8643  0.8421  0.2612
   69MOL    H8116537   0.187   5.388   0.413  0.4009  1.3230 -0.9138
   69MOL    H8216538   0.059   5.298   0.343 -2.0844  0.7704 -1.4633
   69MOL    H8316539   7.655   5.448   0.493  0.0368 -0.9946 -1.0392
   69MOL    H8416540   0.027   5.589   0.454  0.0472 -0.0487 -1.0869
   69MOL    H8516541   7.627   5.517   0.337  0.7532  0.1173 -1.8108
   69MOL    C8616542   0.199   5.322   0.127 -0.7455  0.0378 -0.7756
   69MOL    C8716543   0.091   5.225   0.091 -0.2169  0.6883 -0.7902
   69MOL    C8816544   0.140   5.079   0.124  0.0310 -0.0254 -0.1114
   69MOL    C8916545   0.250   5.028   0.035 -0.2338  0.0657  0.0478
   69MOL    H9016546   0.259   5.273   0.204  0.0912  0.5239 -1.1115
   69MOL    H9116547   0.254   5.347   0.036  0.1340 -0.7942 -0.4812
   69MOL    H9216548   0.009   5.222   0.164 -0.9499  0.5193 -1.6123
   69MOL    H9316549   0.051   5.016   0.127  0.1885 -0.3234 -1.4591
   69MOL    H9416550   0.171   5.072   0.229 -1.2021  0.5547  0.3106
   69MOL    H9516551   0.331   5.098   0.017  0.3880 -0.4972  0.6006
   69MOL    H9616552   0.293   4.939   0.082  0.6261  0.1495 -0.5614
   69MOL    H9716553   0.204   4.993   7.649 -0.3401  0.3961 -0.0243
   69MOL    C9816554   0.034   5.244   7.651 -0.2147 -0.2471  0.3252
   69MOL    C9916555   7.658   5.369   7.623  0.4615 -0.8043  0.0119
   69MOL   C10016556   7.535   5.385   0.008 -0.5541 -0.3592  0.2588
   69MOL   C10116557   7.456   5.519   7.704 -0.4087  0.2057 -0.2003
   69MOL   H10216558   7.671   5.164   7.624  0.6758 -0.5891 -0.9724
   69MOL   H10316559   0.118   5.228   7.584  0.3628  0.2164  0.9336
   69MOL   H10416560   0.020   5.453   7.636 -0.5891  0.0194  0.2244
   69MOL   H10516561   7.571   5.384   0.111  2.0150 -1.1256 -0.6061
   69MOL   H10616562   7.473   5.296   7.704  0.5256 -1.2575  1.2694
   69MOL   H10716563   7.380   5.523   0.076  1.2723  2.0354  1.3841
   69MOL   H10816564   7.535   5.593   0.010 -0.7107  0.9015 -2.1898
   69MOL   H10916565   7.396   5.542   7.616 -2.1439  1.8156  1.3616
   69MOL   C11016566   7.616   5.360   7.472  0.2084  0.1155 -0.5381
   69MOL   C11116567   0.015   5.369   7.360  0.3388  0.0514  0.1736
   69MOL   C11216568   0.109   5.486   7.376  0.2765  0.5879  0.1213
   69MOL   C11316569   0.049   5.620   7.387  0.4337  0.0649  0.1952
   69MOL   H11416570   7.550   5.446   7.460  0.7748  1.0348  2.4954
   69MOL   H11516571   7.537   5.286   7.461  0.1384  0.0475  0.4520
   69MOL   H11616572   0.075   5.278   7.367  0.0114 -0.1193  0.8094
   69MOL   H11716573   0.178   5.485   7.292  1.0058  2.5057  0.6626
   69MOL   H11816574   0.179   5.463   7.456 -2.2052 -0.6544  2.0004
   69MOL   H11916575   7.705   5.647   7.294 -0.8965 -0.5755  0.7151
   69MOL   H12016576   7.686   5.633   7.471 -1.1056  2.5591 -1.3799
   69MOL   H12116577   0.129   5.687   7.416  0.1047  0.6443 -0.2221
   69MOL   C12216578   7.661   5.352   7.211 -0.0282 -0.4193 -0.1220
   69MOL   C12316579   0.051   5.341   7.094  0.4913 -0.6835 -0.3853
   69MOL   C12416580   7.683   5.351   6.961 -0.0804  0.2451  0.0145
   69MOL   C12516581   7.624   5.492   6.934  0.2449  0.6153 -0.0637
   69MOL   H12616582   7.586   5.431   7.215  1.8566  1.4631 -1.1404
   69MOL   H12716583   7.592   5.267   7.208 -2.4925  1.5644 -0.5553
   69MOL   H12816584   0.109   5.433   7.081  1.7652 -1.3472  0.5009
   69MOL   H12916585   7.603   5.280   6.943  0.9127 -0.5573 -1.2838
   69MOL   H13016586   0.046   5.336   6.877 -0.3043 -2.1331  0.2238
   69MOL   H13116587   7.610   5.493   6.826  0.2321 -0.3789 -0.0750
   69MOL   H13216588   7.530   5.500   6.988 -0.6865 -0.6836 -1.4641
   69MOL   H13316589   7.684   5.580   6.955  0.8150 -0.0094  0.9854
   69MOL   C13416590   0.161   5.224   7.108 -0.0203 -0.1816  0.0296
   69MOL   C13516591   0.122   5.078   7.156 -0.0128  0.4012 -0.9185
   69MOL   C13616592   0.251   4.989   7.155 -0.3651 -0.3882  0.3994
   69MOL   C13716593   0.323   4.964   7.020  1.0333  0.1248 -0.0336
   69MOL   H13816594   0.240   5.245   7.180  0.5210 -3.9487  0.6360
   69MOL   H13916595   0.217   5.217   7.015  1.0709  0.5714  0.6119
   69MOL   H14016596   0.092   5.084   7.260 -0.0131  0.5930 -0.9303
   69MOL   H14116597   0.228   4.886   7.182 -0.3619 -0.6083 -0.4073
   69MOL   H14216598   0.317   5.016   7.237 -0.0954  0.7411 -0.1880
   69MOL   H14316599   0.400   4.890   7.044  0.1928 -0.3113  1.3769
   69MOL   H14416600   0.257   4.922   6.944  0.1161  1.6788 -0.1144
   69MOL   H14516601   0.376   5.050   6.978  1.9764  0.6615  2.1861
   69MOL   C14616602   0.005   5.008   7.082  0.6474  0.0730  0.1882
   69MOL   C14716603   7.641   4.896   7.167 -0.0952  0.8257 -0.6621
   69MOL   C14816604   7.559   4.804   7.078  0.0420 -0.1029 -0.8727
   69MOL   C14916605   7.623   4.714   6.964  1.1929 -0.1637  0.0238
   69MOL   H15016606   0.032   4.964   6.986 -0.7121 -0.0253 -0.1616
   69MOL   H15116607   7.631   5.077   7.057 -0.9479 -1.8604 -0.2121
   69MOL   H15216608   0.014   4.835   7.210  0.7490  3.3222  1.4680
   69MOL   H15316609   7.483   4.866   7.031 -0.7187 -0.6818 -0.4208
   69MOL   H15416610   7.505   4.727   7.134 -0.3749  1.7306  1.3269
   69MOL   H15516611   7.665   4.779   6.887 -0.1110  1.7189  0.8686
   69MOL   H15616612   7.701   4.651   7.006  0.6247 -0.2651  0.9435
   69MOL   H15716613   7.546   4.654   6.916  0.4316  0.8230 -0.0052
   69MOL   C15816614   7.551   4.948   7.283 -0.3314 -0.5254 -0.0990
   69MOL   C15916615   7.536   4.858   7.405  0.9356  0.8746 -0.3164
   69MOL   C16016616   7.413   4.917   7.487  0.4193 -0.2619 -0.1832
   69MOL   C16116617   7.281   4.882   7.422 -0.2138 -0.3072  0.0800
   69MOL   H16216618   7.460   4.969   7.227 -0.7741 -1.2978  0.3221
   69MOL   H16316619   7.582   5.050   7.306 -0.1880 -0.1459 -1.9131
   69MOL   H16416620   7.513   4.760   7.363  0.0332  0.7385  0.4740
   69MOL   H16516621   7.420   5.026   7.494  0.9752 -0.1894 -1.6146
   69MOL   H16616622   7.406   4.880   7.589  0.9715  1.6928  0.5810
   69MOL   H16716623   7.204   4.941   7.472  1.2968  0.7539  1.2216
   69MOL   H16816624   7.273   4.898   7.315 -0.4392  0.4872  0.2122
   69MOL   H16916625   7.253   4.779   7.444  0.2040 -0.5357 -0.4606
   69MOL   C17016626   7.663   4.855   7.496  0.6046  0.0248  0.4292
   69MOL   C17116627   7.672   4.723   7.584  0.6789 -0.2764 -0.2991
   69MOL   C17216628   7.644   4.761   0.026  0.0565  0.2302 -0.3976
   69MOL   C17316629   7.616   4.637   0.115 -0.6182  0.4694 -0.1584
   69MOL   H17416630   7.660   4.947   7.555  1.3687  0.9375 -0.9378
   69MOL   H17516631   0.035   4.855   7.420 -1.8546  0.1626 -2.1354
   69MOL   H17616632   7.604   4.642   7.557 -1.5969  2.2200 -2.3540
   69MOL   H17716633   7.546   4.807   0.039 -0.7345 -1.5308  0.1001
   69MOL   H17816634   0.019   4.820   0.067 -0.2571 -0.5507  1.4002
   69MOL   H17916635   7.538   4.573   0.074 -0.9676 -0.5821  2.0528
   69MOL   H18016636   0.004   4.584   0.128 -0.7509  0.0003 -1.1012
   69MOL   H18116637   7.588   4.677   0.213  1.3912  1.8832 -0.1370
   69MOL   C18216638   0.115   4.668   7.585 -0.0883 -0.4484 -0.6009
   69MOL   C18316639   0.166   4.621   7.450  0.1839 -0.0411  0.5226
   69MOL   C18416640   0.071   4.511   7.388  0.0412  0.0871  0.7497
   69MOL   C18516641   0.094   4.486   7.237  0.7537  0.2042 -0.0785
   69MOL   H18616642   0.134   4.585   7.653  3.2376  0.1655 -0.6909
   69MOL   H18716643   0.181   4.747   7.621 -0.3575 -0.5547  0.1224
   69MOL   H18816644   0.170   4.711   7.389 -1.2933 -0.4691 -0.2232
   69MOL   H18916645   7.678   4.558   7.393  0.1857  0.3726  1.0276
   69MOL   H19016646   0.073   4.416   7.440 -0.1431 -0.2592  0.1249
   69MOL   H19116647   0.079   4.580   7.185 -3.3859  0.7195  1.8001
   69MOL   H19216648   0.195   4.452   7.215  0.6587  0.2256 -0.5629
   69MOL   H19316649   0.026   4.412   7.193  0.4702  1.2984 -1.5087
   69MOL   C19416650   0.311   4.569   7.447 -0.5538  0.4026 -0.3186
   69MOL   C19516651   0.421   4.637   7.536 -0.1710 -0.0512  0.5188
   69MOL   C19616652   0.431   4.782   7.501  0.4052  0.1929  0.6395
   69MOL   C19716653   0.511   4.878   7.584  0.0859  0.1023 -0.0559
   69MOL   H19816654   0.349   4.564   7.345  0.0320  0.5309 -0.1072
   69MOL   H19916655   0.292   4.467   7.480 -1.1972  0.9712  1.1051
   69MOL   H20016656   0.395   4.620   7.640 -1.7913 -0.1084  0.1197
   69MOL   H20116657   0.331   4.824   7.506 -0.0615 -1.1446  2.9718
   69MOL   H20216658   0.458   4.788   7.396  0.5238  1.5919  0.7338
   69MOL   H20316659   0.614   4.865   7.549 -0.1394 -0.3290 -0.5501
   69MOL   H20416660   0.481   4.979   7.558 -2.0593 -1.0277 -2.0817
   69MOL   H20516661   0.496   4.858   7.691 -1.9640  0.5370 -0.2465
   69MOL   C20616662   0.569   4.589   7.510  0.3150  0.1911 -0.4674
   69MOL   C20716663   0.585   4.436   7.535  0.0188 -0.9449 -0.1914
   69MOL   C20816664   0.591   4.415   7.692  0.6223  0.8585  0.1649
   69MOL   C20916665   0.613   4.268   0.017 -0.0380  0.3463 -0.2439
   69MOL   H21016666   0.636   4.645   7.575 -0.4483  0.3253  0.2170
   69MOL   H21116667   0.591   4.616   7.407 -0.1939  2.1277 -0.0881
   69MOL   H21216668   0.508   4.370   7.494 -0.0541 -0.2625 -1.1704
   69MOL   H21316669   0.492   4.445   0.018  0.4413 -1.1991  1.5868
   69MOL   H21416670   0.665   4.480   0.034  0.2214  2.4367 -1.3028
   69MOL   H21516671   0.539   4.205   7.674 -0.3779 -0.5251  1.3598
   69MOL   H21616672   0.711   4.232   7.691 -0.7617 -1.7384 -0.1667
   69MOL   H21716673   0.604   4.237   0.121  0.4194  1.6960  0.2209
   69MOL   C21816674   0.713   4.388   7.465  0.4321 -0.0437  0.8266
   69MOL   C21916675   0.701   4.372   7.306  0.4580 -0.0429  0.3168
   69MOL   C22016676   0.596   4.262   7.279 -0.4964 -0.4656  0.2175
   69MOL   C22116677   0.575   4.203   7.138 -0.2778  0.0724 -0.1285
   69MOL   H22216678   0.750   4.289   7.490  0.0198 -0.5462 -0.4763
   69MOL   H22316679   0.798   4.450   7.494 -0.2197  1.0750  0.3678
   69MOL   H22416680   0.672   4.471   7.271 -0.7597 -0.9711 -1.3406
   69MOL   H22516681   0.499   4.307   7.303 -0.1950  0.4829 -0.3089
   69MOL   H22616682   0.602   4.184   7.355 -0.6562  1.5968  2.4238
   69MOL   H22716683   0.559   4.282   7.064  1.1076  0.7584  0.2751
   69MOL   H22816684   0.658   4.144   7.100 -0.4740 -0.1653 -0.1875
   69MOL   H22916685   0.484   4.144   7.141 -0.5476  0.4295 -1.0186
   69MOL   C23016686   0.841   4.345   7.241 -0.3063 -0.7155 -0.0119
   69MOL   C23116687   0.936   4.466   7.249 -0.0543 -0.3142  0.0109
   69MOL   C23216688   1.077   4.434   7.188  0.1714 -0.7534  0.2392
   69MOL   C23316689   1.167   4.563   7.162  0.1077  0.5979 -0.3125
   69MOL   H23416690   0.829   4.314   7.137 -2.3959 -1.9370  0.5480
   69MOL   H23516691   0.897   4.261   7.282  0.0238 -0.2147  0.5672
   69MOL   H23616692   0.894   4.555   7.201  1.0753  0.6852  0.8195
   69MOL   H23716693   1.070   4.386   7.091  0.6181 -1.6194  0.6269
   69MOL   H23816694   1.129   4.362   7.251  0.9239  0.6100  1.1974
   69MOL   H23916695   1.177   4.631   7.247  1.5746  0.4024 -0.3249
   69MOL   H24016696   1.267   4.534   7.131 -0.4450 -1.0281 -0.5977
   69MOL   H24116697   1.128   4.620   7.078  0.6741 -0.1495 -1.0917
   69MOL   H24216698   0.957   4.494   7.352  1.0290 -1.1732  0.0280
   70MOL     C116699   1.824   4.388   6.810 -0.4236  0.2689 -0.1712
   70MOL     C216700   1.861   4.250   6.749  0.0103  0.1809 -0.7673
   70MOL     C316701   1.958   4.247   6.634  0.0144 -0.2120 -0.6754
   70MOL     C416702   1.943   4.349   6.515 -0.8820  0.3788 -0.1042
   70MOL     H516703   1.761   4.452   6.748 -2.3820 -2.0246 -0.6455
   70MOL     H616704   1.773   4.373   6.905  0.6171  1.7851  0.6481
   70MOL     H716705   1.898   4.185   6.828 -1.6162  1.5834  1.1870
   70MOL     H816706   1.964   4.144   6.598 -2.6191 -1.0460  1.0905
   70MOL     H916707   2.054   4.255   6.685 -0.6527 -0.1681  0.5987
   70MOL    H1016708   2.028   4.352   6.447 -0.2175 -2.6962  0.5214
   70MOL    H1116709   1.862   4.328   6.445 -0.9710 -0.2854  0.1977
   70MOL    H1216710   1.925   4.450   6.552 -1.0929  0.2249  0.2185
   70MOL    H1316711   1.918   4.438   6.835  0.3350  0.5327 -3.3428
   70MOL    C1416712   1.731   4.183   6.701  1.3264  0.4480 -0.0445
   70MOL    C1516713   1.644   4.127   6.819  1.1354  0.6454 -0.1254
   70MOL    C1616714   1.670   3.972   6.850 -0.1680 -0.6468  0.1420
   70MOL    C1716715   1.603   3.922   6.980  0.1079 -0.5973  0.9852
   70MOL    H1816716   1.758   4.096   6.640 -0.2665 -0.8418  1.0596
   70MOL    H1916717   1.674   4.245   6.631 -0.0845 -0.1767  0.5282
   70MOL    H2016718   1.670   4.176   6.913 -0.7937  1.3532  0.0817
   70MOL    H2116719   1.778   3.959   6.865 -0.0623  1.7022  1.6398
   70MOL    H2216720   1.634   3.915   6.765  2.6981 -1.4965 -0.5705
   70MOL    H2316721   1.494   3.923   6.983  0.1097 -0.5203  1.0317
   70MOL    H2416722   1.644   3.826   7.008  0.4879 -1.1267 -1.2341
   70MOL    H2516723   1.629   3.984   7.066 -0.1703 -0.2137  0.7991
   70MOL    C2616724   1.497   4.150   6.793  0.1185  0.1717 -0.2514
   70MOL    C2716725   1.441   4.290   6.814 -0.0905 -0.1000 -0.3313
   70MOL    C2816726   1.356   4.299   6.942  0.2742 -0.0494 -0.3599
   70MOL    C2916727   1.437   4.282   7.070  0.2055  0.0789 -0.7150
   70MOL    H3016728   1.445   4.081   6.860 -1.9289 -0.1728 -2.1424
   70MOL    H3116729   1.475   4.114   6.692 -1.5351  0.6285 -0.0770
   70MOL    H3216730   1.528   4.353   6.833  0.1244 -0.6708  0.6490
   70MOL    H3316731   1.278   4.223   6.935 -0.1723  0.5350 -1.8565
   70MOL    H3416732   1.301   4.390   6.960  0.7347  0.0193  0.7246
   70MOL    H3516733   1.484   4.184   7.073 -1.1344 -0.5420 -0.1163
   70MOL    H3616734   1.518   4.356   7.078  1.8484 -1.7647  0.1232
   70MOL    H3716735   1.385   4.309   7.162  0.9712 -0.7973 -0.0151
   70MOL    C3816736   1.357   4.323   6.682 -1.0550  0.1481  0.4180
   70MOL    C3916737   1.296   4.471   6.677 -1.4133  0.9095 -0.2849
   70MOL    C4016738   1.180   4.481   6.576  0.8630  0.3485  0.0691
   70MOL    C4116739   1.118   4.619   6.567 -0.7955  0.3638 -0.6275
   70MOL    H4216740   1.273   4.254   6.679 -1.3532  0.3104  3.8100
   70MOL    H4316741   1.418   4.291   6.597 -1.9898 -2.9270  0.8485
   70MOL    H4416742   1.255   4.493   6.775  0.7767 -2.7101  1.5563
   70MOL    H4516743   1.103   4.406   6.593  0.3648  0.4201 -1.7588
   70MOL    H4616744   1.224   4.469   6.477 -0.7536 -0.6489 -0.5630
   70MOL    H4716745   1.193   4.696   6.549 -0.9891  1.0150  1.2317
   70MOL    H4816746   1.047   4.607   6.485 -0.2062  0.4256 -1.1471
   70MOL    H4916747   1.067   4.651   6.658  0.5254 -1.2512  0.6886
   70MOL    C5016748   1.412   4.573   6.649 -0.1265  0.2580  1.2379
   70MOL    C5116749   1.411   4.693   6.737  0.1405 -0.7100 -0.3022
   70MOL    C5216750   1.496   4.807   6.658  0.2543  0.7254 -0.3298
   70MOL    C5316751   1.429   4.861   6.524  0.8894 -0.4076  0.3062
   70MOL    H5416752   1.398   4.598   6.544 -1.3626 -1.9046  0.8476
   70MOL    H5516753   1.511   4.529   6.656 -0.9009 -2.0848 -1.4039
   70MOL    H5616754   1.312   4.739   6.739  0.1582 -0.6592 -0.5394
   70MOL    H5716755   1.601   4.783   6.643  0.5253  0.6261  1.5754
   70MOL    H5816756   1.508   4.892   6.725 -0.7688  0.7382 -0.1538
   70MOL    H5916757   1.442   4.817   6.425 -1.0483  2.8587 -1.4917
   70MOL    H6016758   1.320   4.864   6.530  0.8641  0.2035 -0.2696
   70MOL    H6116759   1.459   4.966   6.513  0.6264 -0.5968 -2.9241
   70MOL    C6216760   1.455   4.666   6.886 -0.4347 -0.1080 -0.1250
   70MOL    C6316761   1.431   4.778   6.984  0.1901  0.1297  0.7771
   70MOL    C6416762   1.498   4.732   7.118 -0.9029 -0.0225  0.2229
   70MOL    C6516763   1.649   4.768   7.139 -0.3626  0.3861 -0.0183
   70MOL    H6616764   1.564   4.660   6.885 -0.4452 -0.3200 -0.0691
   70MOL    H6716765   1.420   4.577   6.939  0.0593  0.4039  1.0825
   70MOL    H6816766   1.486   4.866   6.951  1.0359 -0.9709 -0.8340
   70MOL    H6916767   1.490   4.624   7.132  0.8335 -0.1631  0.2280
   70MOL    H7016768   1.437   4.778   7.196 -1.0786 -0.1682  0.1709
   70MOL    H7116769   1.707   4.750   7.048  1.6009 -0.6770  1.3961
   70MOL    H7216770   1.663   4.876   7.138  3.2967 -0.0006  0.8405
   70MOL    H7316771   1.693   4.732   7.232  1.7598  1.6920 -0.4826
   70MOL    C7416772   1.288   4.828   6.998 -0.1971 -0.2468  0.4662
   70MOL    C7516773   1.270   4.977   6.962 -0.3045 -1.2245  0.5688
   70MOL    C7616774   1.328   5.072   7.064  0.2364  0.3095  0.0198
   70MOL    C7716775   1.369   5.202   7.012  0.7192 -0.0989  0.0764
   70MOL    H7816776   1.260   4.813   7.103  0.2455  0.1810  0.6473
   70MOL    H7916777   1.223   4.768   6.934 -0.9132  1.3451 -0.3326
   70MOL    H8016778   1.325   4.978   6.869  0.0350 -0.0103  0.7761
   70MOL    H8116779   1.411   5.027   7.118  0.2200 -0.0639 -0.2654
   70MOL    H8216780   1.266   5.090   7.152 -1.2567  0.0484 -0.9429
   70MOL    H8316781   1.443   5.198   6.932  0.1354 -0.7550 -0.4329
   70MOL    H8416782   1.293   5.274   6.983  0.4665 -0.1632  0.5671
   70MOL    H8516783   1.410   5.258   7.096 -0.5082 -0.5961  1.0245
   70MOL    C8616784   1.123   5.010   6.932  0.0339 -0.4392 -0.5718
   70MOL    C8716785   1.080   5.018   6.781  0.3442 -0.6755 -0.1246
   70MOL    C8816786   1.158   5.127   6.699 -0.6307  0.5980 -0.5856
   70MOL    C8916787   1.110   5.269   6.737 -0.3619  0.4094  0.7110
   70MOL    H9016788   1.094   5.104   6.979  1.1821  0.0443 -0.8089
   70MOL    H9116789   1.066   4.937   6.988  0.2221 -0.6191 -0.6141
   70MOL    H9216790   1.119   4.923   6.744 -0.6619 -0.8486 -0.7625
   70MOL    H9316791   1.147   5.100   6.594  1.7590  2.3804 -1.3711
   70MOL    H9416792   1.266   5.111   6.706 -0.8258 -0.9672 -1.0345
   70MOL    H9516793   1.119   5.279   6.845 -1.8898 -1.0860  0.9972
   70MOL    H9616794   1.162   5.339   6.671 -0.9521 -0.3156 -0.5526
   70MOL    H9716795   1.003   5.280   6.717 -0.2423  1.3404  0.5581
   70MOL    C9816796   0.926   5.028   6.780 -0.2159  0.5541 -0.6817
   70MOL    C9916797   0.854   5.017   6.646 -0.1166  0.1090  0.2555
   70MOL   C10016798   0.705   5.062   6.666  0.0676  0.3141 -0.0047
   70MOL   C10116799   0.618   4.975   6.757 -0.7626  0.5789 -0.5134
   70MOL   H10216800   0.900   5.123   6.826  2.2265  0.8402  0.1945
   70MOL   H10316801   0.887   4.957   6.853 -0.2903  0.4915 -0.7825
   70MOL   H10416802   0.892   5.089   6.574 -0.0787  0.1409  0.3077
   70MOL   H10516803   0.649   5.074   6.573  0.0593  2.3923  0.2426
   70MOL   H10616804   0.708   5.164   6.704  1.4042 -0.6494  2.5771
   70MOL   H10716805   0.517   5.012   6.736 -0.8300  0.5168 -0.3022
   70MOL   H10816806   0.618   4.869   6.731  1.9041 -0.1277  2.1064
   70MOL   H10916807   0.640   4.984   6.864 -2.2510  0.3032 -0.1682
   70MOL   C11016808   0.867   4.869   6.594 -0.2769  0.0963 -0.9062
   70MOL   C11116809   0.821   4.831   6.446  0.3586  0.0268 -0.1305
   70MOL   C11216810   0.882   4.934   6.341 -0.1556  0.7382  0.5344
   70MOL   C11316811   1.034   4.913   6.319  0.2084  0.1763 -0.3111
   70MOL   H11416812   0.830   4.800   6.669 -2.9665 -0.6946 -2.8859
   70MOL   H11516813   0.974   4.850   6.585 -0.4536 -1.4684  0.1211
   70MOL   H11616814   0.876   4.738   6.431 -0.4099 -0.0880 -2.3881
   70MOL   H11716815   0.865   5.040   6.359  2.4319  1.2166  0.3382
   70MOL   H11816816   0.828   4.922   6.248 -0.5936  2.6400  0.5199
   70MOL   H11916817   1.065   4.809   6.315 -0.1901  0.1091 -1.9059
   70MOL   H12016818   1.074   4.946   6.222  2.4850  0.4563  0.6755
   70MOL   H12116819   1.089   4.964   6.398 -1.2661  1.8445 -0.3303
   70MOL   C12216820   0.672   4.805   6.432 -0.7171  0.1934 -0.0960
   70MOL   C12316821   0.634   4.712   6.321  0.3452  0.0410 -0.7527
   70MOL   C12416822   0.522   4.767   6.235  0.2405 -0.1614  0.0399
   70MOL   C12516823   0.557   4.877   6.145 -0.1538 -0.3561  0.3376
   70MOL   H12616824   0.618   4.900   6.431 -2.1539 -0.5850  0.9884
   70MOL   H12716825   0.635   4.760   6.524  2.0440 -1.8132  0.1045
   70MOL   H12816826   0.719   4.705   6.252 -1.1043  1.1505 -2.7043
   70MOL   H12916827   0.449   4.803   6.308  0.2007  0.5393 -0.3343
   70MOL   H13016828   0.476   4.686   6.179  0.0721 -0.7029  0.9606
   70MOL   H13116829   0.606   4.965   6.188 -1.2198  0.7540 -0.6711
   70MOL   H13216830   0.625   4.839   6.069  0.2361 -0.1950  0.5994
   70MOL   H13316831   0.463   4.908   6.100 -0.2605 -0.8355  0.2306
   70MOL   C13416832   0.605   4.569   6.370  0.1270 -0.1165 -0.4945
   70MOL   C13516833   0.727   4.482   6.418  0.7794 -0.3070  0.2997
   70MOL   C13616834   0.793   4.416   6.289 -0.1686 -1.0595  0.3569
   70MOL   C13716835   0.923   4.344   6.300 -0.2455  0.7271  0.1639
   70MOL   H13816836   0.555   4.519   6.287  1.3625 -2.4038  0.0833
   70MOL   H13916837   0.535   4.568   6.453 -2.0871  0.3272 -2.3165
   70MOL   H14016838   0.802   4.542   6.470  0.1302  1.0799 -0.3265
   70MOL   H14116839   0.802   4.498   6.218  3.6626 -1.5888  0.1204
   70MOL   H14216840   0.723   4.347   6.243  0.9652 -1.9933  0.0226
   70MOL   H14316841   0.996   4.421   6.325  0.0446  0.5974 -0.2672
   70MOL   H14416842   0.926   4.258   6.366  0.5945 -1.6559 -2.8602
   70MOL   H14516843   0.938   4.298   6.202  2.0162 -0.8678  1.2065
   70MOL   C14616844   0.683   4.369   6.522  0.0219 -0.1471 -0.7377
   70MOL   C14716845   0.667   4.417   6.668 -0.0777 -0.0547 -0.4581
   70MOL   C14816846   0.801   4.400   6.750  0.0739 -0.2127 -1.1545
   70MOL   C14916847   0.806   4.488   6.875 -0.3631 -0.0955 -0.0573
   70MOL   H15016848   0.752   4.284   6.521  0.0942 -0.0875 -3.6360
   70MOL   H15116849   0.587   4.334   6.484  0.4760 -1.6165 -0.5646
   70MOL   H15216850   0.646   4.524   6.664  1.5057  0.2101 -2.4402
   70MOL   H15316851   0.890   4.424   6.693 -0.4175  1.7993 -1.1156
   70MOL   H15416852   0.809   4.296   6.780 -0.0897  0.1083  0.0334
   70MOL   H15516853   0.770   4.430   6.960 -2.4154 -0.4741 -1.1404
   70MOL   H15616854   0.912   4.511   6.889  0.0984 -1.2676 -1.4502
   70MOL   H15716855   0.750   4.582   6.873  1.4211  0.9887 -1.3911
   70MOL   C15816856   0.558   4.334   6.741  0.7840  0.8883  0.3489
   70MOL   C15916857   0.410   4.371   6.709  0.5860 -0.0843 -0.6468
   70MOL   C16016858   0.378   4.508   6.769  0.1045  0.5149  0.3759
   70MOL   C16116859   0.368   4.509   6.922  0.4797 -0.2296  0.4721
   70MOL   H16216860   0.580   4.330   6.847  0.8240 -1.4513  0.2719
   70MOL   H16316861   0.570   4.231   6.707 -1.8814  1.0322 -1.2023
   70MOL   H16416862   0.394   4.386   6.602 -0.3864 -1.2989 -0.6777
   70MOL   H16516863   0.276   4.536   6.742  0.3999 -1.0931 -2.4883
   70MOL   H16616864   0.443   4.584   6.725 -0.8078  0.8438 -0.4087
   70MOL   H16716865   0.459   4.494   6.981  0.3764  0.5644  0.8454
   70MOL   H16816866   0.334   4.609   6.950  1.6089 -0.0750  1.3297
   70MOL   H16916867   0.306   4.426   6.955 -0.5752  1.3988  2.7631
   70MOL   C17016868   0.319   4.248   6.758  0.5035 -0.8176 -0.1685
   70MOL   C17116869   0.164   4.272   6.747 -0.5624  0.0141 -0.3315
   70MOL   C17216870   0.068   4.175   6.820 -0.2367 -0.0333 -0.1352
   70MOL   C17316871   0.048   4.195   6.972  0.8422  0.4395 -0.3651
   70MOL   H17416872   0.335   4.229   6.864 -1.8787 -3.2161 -0.1641
   70MOL   H17516873   0.354   4.165   6.697  4.3610  0.1576  0.6361
   70MOL   H17616874   0.143   4.371   6.787 -1.3511 -0.3589  0.1932
   70MOL   H17716875   0.111   4.076   6.804  0.2956  0.1560  0.0816
   70MOL   H17816876   7.675   4.172   6.776  0.5716 -0.1648 -1.9668
   70MOL   H17916877   0.139   4.215   7.030  0.0306 -0.3895  1.2139
   70MOL   H18016878   7.692   4.283   6.989  1.2392  0.6115  0.2038
   70MOL   H18116879   7.698   4.110   7.009  0.6607  0.5894 -0.2907
   70MOL   C18216880   0.128   4.262   6.593 -0.1447 -0.0139  0.1459
   70MOL   C18316881   0.060   4.381   6.528 -0.3937  0.3031  0.5637
   70MOL   C18416882   7.633   4.412   6.600 -0.6305  0.8628 -0.1236
   70MOL   C18516883   7.597   4.556   6.590  0.7560 -0.3983 -0.4289
   70MOL   H18616884   0.053   4.184   6.579 -1.4610  1.0086  1.3154
   70MOL   H18716885   0.213   4.232   6.532  0.3570  1.2069  0.2276
   70MOL   H18816886   0.126   4.463   6.555  0.3869  0.3930 -1.5068
   70MOL   H18916887   7.636   4.391   6.707 -1.4452 -1.0640 -0.4479
   70MOL   H19016888   7.553   4.349   6.562 -0.2263  0.0843  0.2987
   70MOL   H19116889   7.489   4.567   6.599  0.5528 -3.0879  0.7006
   70MOL   H19216890   7.633   4.622   6.669 -0.0805 -0.8939  0.3821
   70MOL   H19316891   7.635   4.609   6.503  0.6918  0.4010  0.0197
   70MOL   C19416892   0.058   4.377   6.377 -0.5934 -0.5438  0.2546
   70MOL   C19516893   0.184   4.450   6.307 -0.5581  0.0808  0.2064
   70MOL   C19616894   0.178   4.604   6.286 -0.4860  0.4542  0.2786
   70MOL   C19716895   0.065   4.647   6.202  0.0129 -0.0274 -0.0254
   70MOL   H19816896   7.675   4.429   6.341  0.1406  1.9128  1.8703
   70MOL   H19916897   0.061   4.273   6.342 -0.8370  0.6228 -3.4915
   70MOL   H20016898   0.271   4.446   6.372 -0.4250 -1.1963 -0.0323
   70MOL   H20116899   0.274   4.642   6.252  0.9090 -0.3217  3.2306
   70MOL   H20216900   0.157   4.650   6.383 -1.5688  0.8446 -0.1344
   70MOL   H20316901   0.049   4.580   6.118  1.7275  1.2824 -1.4259
   70MOL   H20416902   7.681   4.638   6.263  1.1996  0.7630  1.8874
   70MOL   H20516903   0.078   4.751   6.172  0.5190 -0.2591 -0.6091
   70MOL   C20616904   0.237   4.393   6.172  0.3011  0.2252 -0.0799
   70MOL   C20716905   0.290   4.240   6.197 -0.8280  0.1278  0.2656
   70MOL   C20816906   0.418   4.227   6.279  0.4485 -0.0178  0.1936
   70MOL   C20916907   0.427   4.093   6.357  0.2778  0.1494  0.9776
   70MOL   H21016908   0.323   4.442   6.125 -0.7478  0.2653 -2.0250
   70MOL   H21116909   0.167   4.400   6.088  0.4098 -0.5176 -0.2423
   70MOL   H21216910   0.218   4.177   6.250 -1.4171  1.5292  1.1498
   70MOL   H21316911   0.425   4.313   6.346  1.0701  0.4149 -0.4169
   70MOL   H21416912   0.503   4.240   6.212 -0.6994 -2.5142 -1.8246
   70MOL   H21516913   0.354   4.080   6.437 -0.9884 -2.1229 -0.4834
   70MOL   H21616914   0.404   4.011   6.288  1.0846 -0.2303  1.1518
   70MOL   H21716915   0.531   4.084   6.390  0.4461 -0.6184  0.2589
   70MOL   C21816916   0.309   4.163   6.064 -0.8501  0.3443  0.0486
   70MOL   C21916917   0.179   4.108   6.008  0.2359 -0.6279 -0.4546
   70MOL   C22016918   0.137   3.966   6.060 -0.1241  0.2361 -0.3174
   70MOL   C22116919   0.243   3.864   6.006 -0.1971  0.4374 -0.2613
   70MOL   H22216920   0.388   4.088   6.074 -2.1928 -1.1798 -0.5408
   70MOL   H22316921   0.359   4.238   6.002  1.4811 -1.3570 -0.2375
   70MOL   H22416922   0.099   4.173   6.045  0.8017  0.4586 -1.1308
   70MOL   H22516923   0.042   3.938   6.015  0.2074  0.9117 -1.4456
   70MOL   H22616924   0.129   3.966   6.169 -2.2649 -2.1179 -0.4179
   70MOL   H22716925   0.328   3.875   6.073 -0.5075 -1.2358  0.4218
   70MOL   H22816926   0.184   3.773   6.006 -0.5393  0.6543  0.0113
   70MOL   H22916927   0.274   3.898   5.908 -0.3618  0.5664 -0.2709
   70MOL   C23016928   0.183   4.116   5.854 -0.1454 -0.1579  0.9055
   70MOL   C23116929   0.186   4.262   5.803  0.1112  0.3105 -0.0323
   70MOL   C23216930   0.208   4.266   5.643  0.3452 -0.7837  0.5112
   70MOL   C23316931   0.190   4.416   5.593 -0.5028 -0.2443  0.1809
   70MOL   H23416932   0.099   4.058   5.818 -0.4459 -0.0633  1.4459
   70MOL   H23516933   0.261   4.062   5.801  1.6430  1.8698  1.3818
   70MOL   H23616934   0.105   4.321   5.846 -2.3463 -2.6680 -0.3996
   70MOL   H23716935   0.146   4.193   5.590 -0.5047 -0.8995  1.6454
   70MOL   H23816936   0.305   4.231   5.608 -1.0042 -2.7149 -1.4521
   70MOL   H23916937   0.214   4.420   5.487 -1.0328 -0.4197  0.0506
   70MOL   H24016938   0.089   4.446   5.620  0.5060  2.5126  1.0918
   70MOL   H24116939   0.256   4.482   5.649  0.2132 -1.5710  0.9167
   70MOL   H24216940   0.277   4.313   5.835  1.4624 -0.9275 -1.7323
   71MOL     C116941   2.981   4.636   1.402 -0.2016 -0.0926  0.1144
   71MOL     C216942   2.899   4.513   1.443 -0.0334 -0.0224  0.0996
   71MOL     C316943   2.813   4.463   1.332  0.1079  0.0704 -0.4077
   71MOL     C416944   2.714   4.567   1.268  0.2944  1.3309 -0.6120
   71MOL     H516945   3.081   4.637   1.445  0.6021  1.8046 -1.6958
   71MOL     H616946   3.008   4.641   1.296  0.0877 -1.5775  0.1020
   71MOL     H716947   2.965   4.430   1.469 -0.0837  0.2984  1.2977
   71MOL     H816948   2.756   4.382   1.377 -0.4836  1.7427  2.0153
   71MOL     H916949   2.879   4.425   1.255  1.4791  1.8382 -0.1440
   71MOL    H1016950   2.681   4.531   1.171  1.3948  0.7914 -0.7979
   71MOL    H1116951   2.625   4.564   1.330 -0.1694  3.5121 -1.1145
   71MOL    H1216952   2.746   4.672   1.267  1.8856  0.8863  0.6928
   71MOL    H1316953   2.927   4.729   1.420 -0.4697 -0.4732  1.3056
   71MOL    C1416954   2.826   4.535   1.580  0.0612 -0.3802 -0.8949
   71MOL    C1516955   2.921   4.558   1.699  0.2448 -0.0211 -0.7146
   71MOL    C1616956   2.892   4.455   1.814 -0.1643 -0.4225  0.2137
   71MOL    C1716957   2.925   4.300   1.795  0.8559  0.2247 -0.3614
   71MOL    H1816958   2.760   4.449   1.594  0.4602 -0.5543 -0.0596
   71MOL    H1916959   2.758   4.620   1.575 -0.9953 -1.1775 -0.3013
   71MOL    H2016960   3.024   4.532   1.673  0.4489 -1.5330  1.4534
   71MOL    H2116961   2.786   4.457   1.840 -0.9843 -0.4559 -2.9506
   71MOL    H2216962   2.949   4.485   1.902  1.0802  1.2424 -1.1316
   71MOL    H2316963   3.020   4.291   1.742 -0.0838 -0.2404 -1.9899
   71MOL    H2416964   2.934   4.259   1.896  0.7556 -1.1375 -0.8917
   71MOL    H2516965   2.845   4.246   1.744 -0.1905  3.1973 -1.9629
   71MOL    C2616966   2.910   4.701   1.751  0.6166 -0.1962  0.3852
   71MOL    C2716967   3.029   4.737   1.833 -1.0107  0.2789  0.1574
   71MOL    C2816968   3.004   4.851   1.935 -0.6143  0.2213  0.6148
   71MOL    C2916969   2.910   4.824   2.051  0.1092  0.2046 -0.6034
   71MOL    H3016970   2.815   4.718   1.803  0.3456 -2.5186  0.6822
   71MOL    H3116971   2.913   4.773   1.670  0.6579 -0.0604  0.5065
   71MOL    H3216972   3.059   4.656   1.898  2.2783 -0.4229 -2.0655
   71MOL    H3316973   2.964   4.934   1.876  0.2878 -1.1462 -1.9637
   71MOL    H3416974   3.096   4.899   1.968 -0.5098  1.5785 -1.5290
   71MOL    H3516975   2.818   4.779   2.014 -0.4976  1.2178 -0.3467
   71MOL    H3616976   2.946   4.756   2.129  2.1500  2.2918  0.3401
   71MOL    H3716977   2.889   4.914   2.109  2.3166  1.4853 -1.6834
   71MOL    C3816978   3.151   4.777   1.747 -0.0763  0.2229  0.9170
   71MOL    C3916979   3.298   4.730   1.787 -1.2114 -0.1288 -0.5329
   71MOL    C4016980   3.320   4.795   1.928  0.2106  1.0377 -0.3716
   71MOL    C4116981   3.454   4.777   1.991 -0.7714  0.0087 -1.4805
   71MOL    H4216982   3.156   4.884   1.728 -0.3004 -0.0110 -0.5281
   71MOL    H4316983   3.143   4.742   1.644  0.8866  0.1184  0.8773
   71MOL    H4416984   3.296   4.622   1.799 -1.9648 -0.1054 -0.4125
   71MOL    H4516985   3.249   4.763   2.004 -0.3391 -0.2840 -1.4217
   71MOL    H4616986   3.300   4.902   1.923  1.4743  1.3427  0.8579
   71MOL    H4716987   3.475   4.679   2.033 -3.3580 -0.3634 -0.9654
   71MOL    H4816988   3.536   4.816   1.931 -1.0146  0.7088 -1.3691
   71MOL    H4916989   3.448   4.838   2.082 -1.2740  1.1482 -2.2644
   71MOL    C5016990   3.408   4.781   1.697 -0.8464 -0.6962 -0.0871
   71MOL    C5116991   3.412   4.727   1.555  0.3008  0.5363  0.3696
   71MOL    C5216992   3.398   4.571   1.544 -0.1640  0.4958 -0.2354
   71MOL    C5316993   3.513   4.488   1.602  0.1544 -0.2576  0.0142
   71MOL    H5416994   3.509   4.788   1.738 -0.8816 -1.8095  0.2025
   71MOL    H5516995   3.388   4.886   1.677  1.3668 -0.0746  0.8484
   71MOL    H5616996   3.323   4.768   1.508  0.4067  0.0985 -0.2319
   71MOL    H5716997   3.396   4.546   1.438  5.1013  1.5252 -0.6846
   71MOL    H5816998   3.303   4.550   1.593  0.3086 -2.2641 -0.4266
   71MOL    H5916999   3.543   4.519   1.702  0.2268 -0.7342  0.1374
   71MOL    H6017000   3.481   4.386   1.618 -0.5636  0.0535  0.5644
   71MOL    H6117001   3.604   4.500   1.542  0.1017  0.7222  0.1184
   71MOL    C6217002   3.536   4.789   1.479  0.0516  0.2259  0.5863
   71MOL    C6317003   3.551   4.763   1.327 -0.0483 -0.4247 -0.0799
   71MOL    C6417004   3.690   4.806   1.281 -0.0409 -0.0725 -0.0723
   71MOL    C6517005   3.797   4.708   1.330  0.1383  0.4057 -0.1673
   71MOL    H6617006   3.624   4.758   1.536  0.1646 -1.5028 -0.4794
   71MOL    H6717007   3.532   4.897   1.492  0.5692 -0.0101  2.8865
   71MOL    H6817008   3.558   4.654   1.323 -0.2238 -0.4325 -0.1456
   71MOL    H6917009   3.726   4.901   1.320  2.4971 -1.0417 -0.0222
   71MOL    H7017010   3.695   4.808   1.172 -0.3983  2.1591 -0.0733
   71MOL    H7117011   3.783   4.605   1.298 -2.1456  0.9298 -0.9890
   71MOL    H7217012   3.889   4.747   1.286  0.4051  2.0245  1.7515
   71MOL    H7317013   3.828   4.693   1.433  1.3167  0.5658 -0.4868
   71MOL    C7417014   3.439   4.826   1.242 -0.6611  0.4163 -0.3510
   71MOL    C7517015   3.412   4.977   1.252 -0.0999 -0.3977 -0.5189
   71MOL    C7617016   3.280   5.003   1.332  0.7700  0.0975  0.4008
   71MOL    C7717017   3.303   5.117   1.436 -0.6233  0.0741 -0.5856
   71MOL    H7817018   3.349   4.764   1.240 -1.2050  1.1030  1.9439
   71MOL    H7917019   3.479   4.810   1.142 -0.6327  0.4894 -0.3513
   71MOL    H8017020   3.497   5.022   1.303 -0.6464 -1.0131  0.9593
   71MOL    H8117021   3.242   4.918   1.388 -0.3589  2.0843  2.7831
   71MOL    H8217022   3.199   5.023   1.263 -0.9729 -2.2984  1.6829
   71MOL    H8317023   3.330   5.207   1.381  0.7664 -1.2171 -2.1073
   71MOL    H8417024   3.212   5.137   1.493 -0.1523  2.0624 -0.4935
   71MOL    H8517025   3.387   5.104   1.505 -1.2314 -0.2854  0.0833
   71MOL    C8617026   3.408   5.042   1.109 -0.2023  0.0741 -0.4235
   71MOL    C8717027   3.544   5.094   1.060 -0.0081  0.1511  0.4788
   71MOL    C8817028   3.594   5.227   1.121 -0.4998  0.2410  0.4103
   71MOL    C8917029   3.741   5.263   1.099  0.0304 -0.1172 -0.6214
   71MOL    H9017030   3.340   5.127   1.108 -0.6330 -0.2656 -0.1508
   71MOL    H9117031   3.367   4.975   1.033  1.8169 -0.7998 -0.7868
   71MOL    H9217032   3.614   5.013   1.083  0.0687  0.4752  1.4113
   71MOL    H9317033   3.574   5.227   1.229  1.4489  0.5505  0.7954
   71MOL    H9417034   3.544   5.317   1.085  1.5940  0.7150 -1.4058
   71MOL    H9517035   3.748   5.314   1.003 -0.2672 -0.1992 -0.6865
   71MOL    H9617036   3.773   5.334   1.176  1.4205 -0.2060 -1.0995
   71MOL    H9717037   3.816   5.184   1.094  0.2099 -0.1316  1.5856
   71MOL    C9817038   3.528   5.120   0.908 -0.2357 -0.7762  0.2230
   71MOL    C9917039   3.657   5.098   0.824 -0.1915  0.0581  0.5698
   71MOL   C10017040   3.642   5.161   0.686 -1.0280 -0.0392  0.9027
   71MOL   C10117041   3.623   5.311   0.692  0.3877  0.1378  0.4977
   71MOL   H10217042   3.500   5.224   0.892 -0.2965 -0.7567  0.4601
   71MOL   H10317043   3.447   5.066   0.857  1.2305 -0.4389 -2.5692
   71MOL   H10417044   3.743   5.136   0.880  0.9499 -0.8388 -0.5456
   71MOL   H10517045   3.564   5.117   0.624 -0.9994  2.1523 -0.7603
   71MOL   H10617046   3.743   5.149   0.646 -0.8526 -0.2489  1.4097
   71MOL   H10717047   3.635   5.363   0.597  0.3431 -2.0055 -0.7038
   71MOL   H10817048   3.522   5.336   0.725 -0.0766 -1.2058  0.1468
   71MOL   H10917049   3.693   5.354   0.763  1.2936  0.6779 -0.7095
   71MOL   C11017050   3.664   4.953   0.809  0.6731 -0.0138  0.5717
   71MOL   C11117051   3.807   4.902   0.767  0.1939  0.1577 -0.0441
   71MOL   C11217052   3.808   4.746   0.752  0.2961 -0.2417 -0.5515
   71MOL   C11317053   3.798   4.665   0.883  0.2873  0.3310 -0.4865
   71MOL   H11417054   3.586   4.920   0.741  0.7433  2.1973 -0.6171
   71MOL   H11517055   3.635   4.897   0.898 -2.4960  1.8090  0.7550
   71MOL   H11617056   3.834   4.937   0.668  1.7705 -1.6665 -0.2829
   71MOL   H11717057   3.890   4.705   0.694  0.8276  0.0375  0.0034
   71MOL   H11817058   3.723   4.711   0.692  0.3975  0.9182 -1.3944
   71MOL   H11917059   3.694   4.677   0.913  0.1619 -0.5184 -0.5465
   71MOL   H12017060   3.811   4.557   0.875 -2.7790 -0.2644  1.5515
   71MOL   H12117061   3.862   4.711   0.958  0.3162  0.2105 -0.4362
   71MOL   C12217062   3.925   4.960   0.861  0.6009  0.1742  0.0358
   71MOL   C12317063   4.062   4.906   0.840 -0.4919  0.9538 -0.5131
   71MOL   C12417064   4.144   4.937   0.970 -0.3055 -0.6801 -1.1177
   71MOL   C12517065   4.164   5.083   1.012 -0.2491  0.2175 -0.2646
   71MOL   H12617066   3.899   4.927   0.961 -2.4455  0.4413 -0.6086
   71MOL   H12717067   3.940   5.067   0.863 -2.3467  0.6314  0.3582
   71MOL   H12817068   4.060   4.799   0.824 -0.7141  0.8313  0.2790
   71MOL   H12917069   4.244   4.896   0.965  0.1694  0.3997 -0.6322
   71MOL   H13017070   4.103   4.896   1.063 -0.4433 -1.1904 -1.4008
   71MOL   H13117071   4.074   5.133   1.049  0.9446  0.3076  2.7094
   71MOL   H13217072   4.245   5.091   1.085 -0.3630 -0.7161 -0.0385
   71MOL   H13317073   4.212   5.144   0.936  2.2633 -0.0776  1.0051
   71MOL   C13417074   4.127   4.960   0.711 -0.0423  0.7302 -0.0670
   71MOL   C13517075   4.281   4.951   0.696  0.0621 -0.6331 -0.7050
   71MOL   C13617076   4.324   5.027   0.570  0.2845 -0.0425  0.5719
   71MOL   C13717077   4.249   4.978   0.441 -0.3972  0.0986 -1.0161
   71MOL   H13817078   4.087   5.060   0.692  0.0909  0.7614 -0.1757
   71MOL   H13917079   4.086   4.907   0.625 -0.0659 -0.6154  0.7706
   71MOL   H14017080   4.322   5.005   0.781 -1.4011  0.7959 -0.8995
   71MOL   H14117081   4.431   5.027   0.549  0.4615  1.1221  1.4094
   71MOL   H14217082   4.300   5.133   0.581 -2.6486 -0.7952  1.7759
   71MOL   H14317083   4.298   5.009   0.348  3.4372 -0.5771  0.7027
   71MOL   H14417084   4.248   4.869   0.433  0.8630 -0.0078  0.2140
   71MOL   H14517085   4.148   5.018   0.433 -0.7860 -0.7873 -0.4774
   71MOL   C14617086   4.333   4.801   0.698 -0.6561  0.4442  0.1572
   71MOL   C14717087   4.487   4.786   0.690  0.4001 -0.0282 -0.2760
   71MOL   C14817088   4.521   4.638   0.713  0.0704 -0.1488  0.2150
   71MOL   C14917089   4.453   4.540   0.612 -0.1195  0.3413  0.7065
   71MOL   H15017090   4.282   4.743   0.621  1.3045 -1.9271  0.5729
   71MOL   H15117091   4.307   4.758   0.795  0.6092  1.5280  1.0001
   71MOL   H15217092   4.521   4.813   0.590 -1.5483 -2.3941 -1.6128
   71MOL   H15317093   4.491   4.613   0.814 -0.5720 -0.2919 -0.0046
   71MOL   H15417094   4.627   4.618   0.702 -0.0228 -1.5109  1.6363
   71MOL   H15517095   4.352   4.519   0.648  0.3653 -0.5624  1.5667
   71MOL   H15617096   4.442   4.587   0.514 -0.7562  1.1152  1.1467
   71MOL   H15717097   4.516   4.451   0.603 -1.3844 -0.5559  0.5959
   71MOL   C15817098   4.557   4.869   0.804  0.2346 -0.3326 -0.2041
   71MOL   C15917099   4.707   4.875   0.816 -0.2788  0.1792 -0.4686
   71MOL   C16017100   4.774   4.756   0.904  0.1496 -0.3537  0.2835
   71MOL   C16117101   4.905   4.709   0.852  0.4245  0.2753  0.2235
   71MOL   H16217102   4.512   4.839   0.899  0.5532  0.4395  0.1975
   71MOL   H16317103   4.522   4.971   0.791  0.0848 -0.5343 -1.4071
   71MOL   H16417104   4.751   4.865   0.717 -2.2039  1.0019 -1.4269
   71MOL   H16517105   4.707   4.670   0.893 -1.1745  0.5564  1.0304
   71MOL   H16617106   4.772   4.776   1.011 -0.7538  0.8681  0.0486
   71MOL   H16717107   4.904   4.692   0.744  0.2502  2.5121 -0.1481
   71MOL   H16817108   4.979   4.784   0.880  1.4350  0.0856 -1.8416
   71MOL   H16917109   4.912   4.616   0.910  2.4863  1.7326  2.4056
   71MOL   C17017110   4.759   5.005   0.883 -0.3112 -0.3369 -0.0899
   71MOL   C17117111   4.756   5.127   0.792 -0.3404 -0.0849  0.3149
   71MOL   C17217112   4.875   5.140   0.699 -1.2741  0.5688  0.2452
   71MOL   C17317113   4.874   5.051   0.574 -0.2619 -0.7777 -0.5602
   71MOL   H17417114   4.863   4.989   0.914  0.5268  2.4521 -1.3184
   71MOL   H17517115   4.704   5.024   0.975 -3.2102 -1.0347 -1.6044
   71MOL   H17617116   4.674   5.120   0.720 -1.2482 -2.9888  1.5633
   71MOL   H17717117   4.959   5.134   0.767 -3.0720 -0.8710  2.4110
   71MOL   H17817118   4.880   5.241   0.658 -2.9858  1.4779  2.1816
   71MOL   H17917119   4.769   5.029   0.553 -0.4703 -0.3322  0.0260
   71MOL   H18017120   4.927   5.107   0.497  0.1879 -0.7859 -0.2600
   71MOL   H18117121   4.934   4.963   0.599  0.8222 -0.7450 -2.8728
   71MOL   C18217122   4.739   5.257   0.880 -1.0089 -0.2357  0.1861
   71MOL   C18317123   4.596   5.281   0.934  0.0987 -0.6727 -0.4008
   71MOL   C18417124   4.518   5.375   0.845  0.1078 -0.1020  0.1764
   71MOL   C18517125   4.521   5.361   0.695 -0.1587 -0.6985  0.5855
   71MOL   H18617126   4.773   5.342   0.821  0.7834 -2.3532 -1.9271
   71MOL   H18717127   4.815   5.248   0.957 -0.1675 -0.7351 -0.6906
   71MOL   H18817128   4.553   5.182   0.928  0.7924 -1.0237  0.3033
   71MOL   H18917129   4.535   5.483   0.853  0.4896 -0.0665 -0.9571
   71MOL   H19017130   4.414   5.360   0.875  0.5612 -1.9397  0.9135
   71MOL   H19117131   4.447   5.422   0.643 -1.5902 -0.8255  2.4232
   71MOL   H19217132   4.625   5.368   0.663  0.6123 -2.2374  2.6565
   71MOL   H19317133   4.493   5.259   0.666 -2.0812  0.6463 -2.5952
   71MOL   C19417134   4.588   5.336   1.076  0.5846 -0.8829 -0.1792
   71MOL   C19517135   4.646   5.249   1.189 -0.0763 -0.7426  0.0785
   71MOL   C19617136   4.552   5.121   1.211 -0.2875 -0.4998 -0.0111
   71MOL   C19717137   4.604   5.031   1.322  0.0992  0.9529  0.4169
   71MOL   H19817138   4.481   5.347   1.096  0.6059  1.4544 -1.0877
   71MOL   H19917139   4.635   5.434   1.071 -0.5752 -0.3941 -2.0389
   71MOL   H20017140   4.746   5.223   1.153 -0.0731 -1.5589  0.6671
   71MOL   H20117141   4.560   5.057   1.123 -0.8480  2.7174 -2.4964
   71MOL   H20217142   4.450   5.153   1.231 -0.1718 -1.4488  2.3130
   71MOL   H20317143   4.702   4.998   1.287 -0.1893  1.1755 -0.6290
   71MOL   H20417144   4.617   5.077   1.419  4.1702 -0.5461  0.6979
   71MOL   H20517145   4.548   4.938   1.327  1.1734  0.2272 -0.6972
   71MOL   C20617146   4.656   5.332   1.324 -0.9859 -0.0862  0.4341
   71MOL   C20717147   4.785   5.309   1.409  0.5629  0.8487  0.5432
   71MOL   C20817148   4.798   5.371   1.546 -0.5430  1.0263  0.7164
   71MOL   C20917149   4.665   5.381   1.622  0.4633 -0.0977  0.0533
   71MOL   H21017150   4.565   5.311   1.379 -3.0334  3.0923 -1.6147
   71MOL   H21117151   4.641   5.437   1.300 -4.0866 -0.2530  1.5340
   71MOL   H21217152   4.788   5.202   1.430  1.7051  1.0026  1.1864
   71MOL   H21317153   4.831   5.475   1.542  0.4954  0.7738  2.4169
   71MOL   H21417154   4.878   5.340   1.613 -0.9879  1.1994  1.3369
   71MOL   H21517155   4.610   5.471   1.595  0.0868 -0.2167  0.4226
   71MOL   H21617156   4.604   5.291   1.616 -0.7903  0.7174  0.4132
   71MOL   H21717157   4.699   5.394   1.725  2.8696  1.4503 -0.8967
   71MOL   C21817158   4.918   5.344   1.331  0.1354 -0.3343 -0.1635
   71MOL   C21917159   5.055   5.280   1.381  0.5878 -0.5785  0.0280
   71MOL   C22017160   5.164   5.387   1.350  0.0583 -0.4137  0.3291
   71MOL   C22117161   5.177   5.503   1.457  0.5225 -0.0289  0.1564
   71MOL   H22217162   4.926   5.452   1.322 -1.0884  0.1053  3.2000
   71MOL   H22317163   4.906   5.302   1.231  1.0158  1.3514 -0.9871
   71MOL   H22417164   5.055   5.268   1.490 -0.9476 -1.8255 -0.1018
   71MOL   H22517165   5.145   5.429   1.251 -0.0780 -0.0157  0.5233
   71MOL   H22617166   5.261   5.338   1.343  0.8134  1.2635 -1.3753
   71MOL   H22717167   5.213   5.598   1.418  1.2341 -0.2916  0.1721
   71MOL   H22817168   5.077   5.524   1.495  0.2992  0.7920 -0.8571
   71MOL   H22917169   5.229   5.477   1.550 -0.5927  0.7525  1.0106
   71MOL   C23017170   5.078   5.142   1.308 -0.8734 -0.1090 -0.1054
   71MOL   C23117171   5.108   5.142   1.152 -0.3931 -0.2499  0.2943
   71MOL   C23217172   5.163   5.003   1.104  0.3089 -0.5319 -0.8138
   71MOL   C23317173   5.212   5.009   0.953  0.1501  0.0679  0.0942
   71MOL   H23417174   4.992   5.076   1.320 -3.0233  2.7449  0.5322
   71MOL   H23517175   5.160   5.098   1.366 -1.5317  0.2993  1.1380
   71MOL   H23617176   5.018   5.160   1.094 -0.9053 -0.8467  0.9016
   71MOL   H23717177   5.079   4.933   1.098  0.2229 -0.3970 -1.1691
   71MOL   H23817178   5.230   4.958   1.177  0.7048  0.2231 -0.7115
   71MOL   H23917179   5.160   5.078   0.888 -0.7608  0.3294  1.0844
   71MOL   H24017180   5.317   5.036   0.941  0.5417 -1.3676  0.1648
   71MOL   H24117181   5.205   4.910   0.907  0.5312 -0.5975  1.4458
   71MOL   H24217182   5.187   5.212   1.123  0.8942 -1.8483 -0.1496
   72MOL     C117183   2.346   7.406   1.548  0.2296 -0.2111  0.4975
   72MOL     C217184   2.251   7.329   1.640  0.4479  0.2073 -0.2578
   72MOL     C317185   2.271   7.371   1.785 -1.0068 -0.5317 -0.3062
   72MOL     C417186   2.414   7.359   1.843 -0.2901  0.0312  0.3862
   72MOL     H517187   2.339   7.512   1.570  2.3892 -0.0644  0.5897
   72MOL     H617188   2.453   7.391   1.558  0.2468 -0.4629 -0.0608
   72MOL     H717189   2.152   7.358   1.606 -0.4854 -3.2130 -0.7012
   72MOL     H817190   2.208   7.309   1.850  0.2481 -2.0674 -0.5338
   72MOL     H917191   2.239   7.474   1.798 -0.7933 -0.4284 -0.6053
   72MOL    H1017192   2.454   7.260   1.821  1.6938  0.6364  1.0917
   72MOL    H1117193   2.464   7.443   1.794 -1.3482  1.1691  1.2346
   72MOL    H1217194   2.411   7.375   1.950  0.1459 -2.2508  0.7607
   72MOL    H1317195   2.320   7.395   1.443  0.8977  0.5787  0.2510
   72MOL    C1417196   2.248   7.176   1.610  0.5866 -0.3666 -0.1784
   72MOL    C1517197   2.163   7.082   1.696 -0.2442 -0.1468  0.8936
   72MOL    C1617198   2.236   7.024   1.819  0.3137  0.1461 -0.4701
   72MOL    C1717199   2.131   6.980   1.924 -0.3446  0.1483  0.2379
   72MOL    H1817200   2.346   7.131   1.622 -0.1623 -1.7089  1.0443
   72MOL    H1917201   2.224   7.166   1.504 -1.2775 -1.5270  0.3335
   72MOL    H2017202   2.081   7.145   1.730 -0.6128  0.4020 -0.9766
   72MOL    H2117203   2.300   7.099   1.864 -1.4647  3.1978 -2.8475
   72MOL    H2217204   2.289   6.932   1.793  1.1043 -0.0080  1.5744
   72MOL    H2317205   2.042   6.942   1.874  0.1788 -1.1052  0.2458
   72MOL    H2417206   2.160   6.901   1.993  1.2358 -0.3600 -0.9945
   72MOL    H2517207   2.100   7.065   1.985  2.1607  1.6898 -0.5451
   72MOL    C2617208   2.093   6.971   1.608  0.1001 -0.5645 -0.3634
   72MOL    C2717209   1.961   7.006   1.528 -0.0124  0.1924 -0.2670
   72MOL    C2817210   1.842   7.038   1.625 -0.1904 -0.1768  0.0367
   72MOL    C2917211   1.762   7.147   1.559  0.3144 -0.1552  0.0805
   72MOL    H3017212   2.072   6.880   1.664 -0.4693 -0.8638 -1.0481
   72MOL    H3117213   2.173   6.936   1.542  1.9700 -0.1989  1.6634
   72MOL    H3217214   1.978   7.096   1.469 -0.1538 -0.1561 -0.8523
   72MOL    H3317215   1.876   7.086   1.717 -0.5579 -1.2976  0.7630
   72MOL    H3417216   1.792   6.947   1.656 -1.1901  0.0923 -0.7800
   72MOL    H3517217   1.744   7.109   1.459  2.5237 -2.4856  0.5071
   72MOL    H3617218   1.663   7.160   1.604  0.5032  0.3721  0.3502
   72MOL    H3717219   1.809   7.245   1.558  0.3512 -0.0757  3.0276
   72MOL    C3817220   1.907   6.890   1.430  0.1630  0.2269  0.8152
   72MOL    C3917221   1.964   6.879   1.286 -0.2002 -0.9592 -0.5944
   72MOL    C4017222   1.877   6.964   1.194  0.5799  1.5010 -0.6167
   72MOL    C4117223   1.756   6.888   1.147  0.1225 -0.8487  0.2414
   72MOL    H4217224   1.798   6.889   1.427  0.1844  0.1013 -0.3080
   72MOL    H4317225   1.927   6.794   1.476  2.9196  0.4051  0.0420
   72MOL    H4417226   2.057   6.934   1.275 -1.0016  0.1931 -1.8947
   72MOL    H4517227   1.936   6.991   1.106  1.3810 -1.4469 -1.0423
   72MOL    H4617228   1.842   7.053   1.245 -1.3666  1.3750 -1.6638
   72MOL    H4717229   1.688   6.849   1.223  0.3712 -0.5753  0.6110
   72MOL    H4817230   1.703   6.953   1.078 -0.5678 -1.7480 -0.0751
   72MOL    H4917231   1.799   6.803   1.095  2.2463 -0.2008  0.8741
   72MOL    C5017232   2.005   6.739   1.237 -0.1337  0.2525 -0.3729
   72MOL    C5117233   2.125   6.681   1.314  0.3468  0.3835  0.3462
   72MOL    C5217234   2.248   6.688   1.224  0.4246  0.2681 -0.4389
   72MOL    C5317235   2.304   6.835   1.212  0.2996  0.0744 -0.1264
   72MOL    H5417236   2.026   6.747   1.131  0.2797 -1.6797 -0.4526
   72MOL    H5517237   1.913   6.680   1.244 -1.4674  2.5785  3.2058
   72MOL    H5617238   2.153   6.742   1.399  2.5262 -0.3709  0.1955
   72MOL    H5717239   2.237   6.650   1.123  0.5470 -1.2152  0.0925
   72MOL    H5817240   2.334   6.636   1.266  2.9072  3.4347 -1.4482
   72MOL    H5917241   2.310   6.880   1.311 -0.6519  2.3041 -1.0457
   72MOL    H6017242   2.405   6.838   1.171  0.2216  3.2753 -0.2533
   72MOL    H6117243   2.235   6.898   1.156  1.9934  0.7612 -1.4881
   72MOL    C6217244   2.108   6.530   1.349 -0.4411  0.7205  0.2907
   72MOL    C6317245   2.021   6.483   1.470 -0.7103  0.2800  0.2603
   72MOL    C6417246   2.078   6.536   1.599 -0.7522  0.5704  0.1944
   72MOL    C6517247   1.971   6.553   1.705  0.3811  0.4957 -0.7831
   72MOL    H6617248   2.205   6.495   1.384 -1.6965  0.1229  3.3899
   72MOL    H6717249   2.090   6.475   1.257  0.0799  1.2390 -0.1263
   72MOL    H6817250   1.931   6.541   1.448 -0.7841  0.6306  1.4325
   72MOL    H6917251   2.120   6.636   1.593  1.6306 -0.4394 -0.7478
   72MOL    H7017252   2.168   6.478   1.618 -0.2479  0.8778 -1.2321
   72MOL    H7117253   1.890   6.616   1.667 -0.0740 -0.1258 -0.8416
   72MOL    H7217254   1.923   6.460   1.732 -0.0417  0.5925 -1.1962
   72MOL    H7317255   2.011   6.611   1.788 -0.1940  0.7019 -0.6486
   72MOL    C7417256   2.002   6.334   1.469 -0.2935  0.3318  0.1454
   72MOL    C7517257   1.888   6.269   1.381 -0.1008 -0.4585 -0.3805
   72MOL    C7617258   1.748   6.300   1.434 -0.7742 -0.5712  0.0923
   72MOL    C7717259   1.713   6.251   1.577 -0.4670  0.6810  0.7304
   72MOL    H7817260   1.990   6.301   1.573  0.4019 -0.7017 -0.0880
   72MOL    H7917261   2.099   6.291   1.445  0.2896  0.1210  2.6741
   72MOL    H8017262   1.904   6.301   1.278 -0.7251  0.5539 -0.1602
   72MOL    H8117263   1.666   6.246   1.387 -1.9238  2.0901 -1.0780
   72MOL    H8217264   1.722   6.406   1.434  0.9997 -0.1139 -0.1634
   72MOL    H8317265   1.607   6.263   1.597 -0.2306 -0.5921  2.8279
   72MOL    H8417266   1.737   6.145   1.582  2.6093  1.3796  2.0504
   72MOL    H8517267   1.773   6.317   1.640 -0.3834 -2.1584  3.7329
   72MOL    C8617268   1.913   6.120   1.373  0.2886  0.0012  0.5415
   72MOL    C8717269   2.034   6.064   1.298 -0.3910 -0.1741 -0.7021
   72MOL    C8817270   1.992   6.020   1.154 -0.6337 -0.0946  0.0274
   72MOL    C8917271   2.091   6.070   1.048 -0.3219 -0.1968  0.4725
   72MOL    H9017272   1.816   6.082   1.340 -0.8239 -0.2678  4.0117
   72MOL    H9117273   1.930   6.086   1.475  1.4438 -1.6916 -0.1975
   72MOL    H9217274   2.107   6.145   1.295 -2.0809  1.4071  0.0864
   72MOL    H9317275   1.899   6.068   1.123  0.4833  1.3241 -1.2067
   72MOL    H9417276   1.993   5.911   1.150  0.7015 -0.1255  0.8901
   72MOL    H9517277   2.193   6.087   1.082 -0.2677 -2.7913  1.7713
   72MOL    H9617278   2.096   5.993   0.971 -0.4887  0.3883 -0.1242
   72MOL    H9717279   2.048   6.165   1.018 -2.6707 -2.0514 -2.3974
   72MOL    C9817280   2.097   5.949   1.376  0.1221  0.1560  0.2849
   72MOL    C9917281   2.189   5.996   1.494  0.3088 -0.7701 -0.4735
   72MOL   C10017282   2.330   6.038   1.457  0.1794  0.2698  0.3587
   72MOL   C10117283   2.392   6.118   1.570 -0.3614  0.1620 -0.6763
   72MOL   H10217284   2.158   5.885   1.313  1.8943  2.1465 -0.1010
   72MOL   H10317285   2.010   5.893   1.411  1.3391 -0.1225  3.0160
   72MOL   H10417286   2.148   6.083   1.546  1.2775  0.5807 -1.9327
   72MOL   H10517287   2.340   6.098   1.367 -0.8027  0.1032  0.1340
   72MOL   H10617288   2.394   5.950   1.448 -1.8420 -1.4209  2.0779
   72MOL   H10717289   2.324   6.200   1.596  0.1945  0.3610  0.1470
   72MOL   H10817290   2.410   6.066   1.663 -0.0691 -0.6897 -1.2048
   72MOL   H10917291   2.492   6.150   1.542  0.5433 -1.5797  0.5692
   72MOL   C11017292   2.184   5.882   1.605  0.6767  0.4550 -0.3688
   72MOL   C11117293   2.056   5.877   1.702  0.2742 -0.6280  0.5131
   72MOL   C11217294   2.102   5.938   1.834 -0.3791  0.2436  0.1926
   72MOL   C11317295   1.990   5.999   1.923 -0.9305  0.7217  0.5802
   72MOL   H11417296   2.270   5.881   1.671 -0.0370 -2.0442  0.5586
   72MOL   H11517297   2.191   5.790   1.549  2.0810 -1.2188  2.4525
   72MOL   H11617298   1.983   5.946   1.661  2.3215  1.0267 -0.4424
   72MOL   H11717299   2.173   6.020   1.828 -1.4291  1.1295 -0.3848
   72MOL   H11817300   2.161   5.867   1.891 -0.0494  0.8142  0.5626
   72MOL   H11917301   1.924   5.914   1.935 -0.7429  0.4511 -0.3474
   72MOL   H12017302   2.037   6.032   2.016 -1.0921  0.4301  0.7676
   72MOL   H12117303   1.936   6.080   1.874  1.1964  1.7240 -0.1641
   72MOL   C12217304   2.009   5.738   1.723  0.0275 -0.2514  0.2807
   72MOL   C12317305   1.927   5.685   1.601 -0.0831  0.8143  0.5932
   72MOL   C12417306   1.787   5.754   1.586  0.0167  0.1082  0.1751
   72MOL   C12517307   1.693   5.686   1.469  0.7941 -0.8086 -0.6011
   72MOL   H12617308   1.956   5.720   1.817 -2.7767 -1.3302 -1.4707
   72MOL   H12717309   2.102   5.681   1.723  0.7305  0.8199 -3.2269
   72MOL   H12817310   1.987   5.692   1.510 -0.0994 -0.3988  0.4791
   72MOL   H12917311   1.794   5.857   1.550 -2.2928 -0.3909 -1.9036
   72MOL   H13017312   1.745   5.751   1.686  2.5892 -0.2458  1.2692
   72MOL   H13117313   1.729   5.704   1.368 -0.7741 -0.0344 -1.0420
   72MOL   H13217314   1.662   5.585   1.495  0.8946 -0.2989  1.6079
   72MOL   H13317315   1.596   5.736   1.471  0.5267 -1.2014 -2.4560
   72MOL   C13417316   1.922   5.533   1.614 -0.9764  0.5811  0.3367
   72MOL   C13517317   1.957   5.438   1.492  0.0792 -0.2911  0.5093
   72MOL   C13617318   1.901   5.295   1.524 -0.2796 -0.5841  0.1467
   72MOL   C13717319   1.968   5.213   1.629 -0.6688  0.1752  0.6445
   72MOL   H13817320   1.816   5.516   1.636 -0.8422  1.0275  1.3557
   72MOL   H13917321   1.976   5.495   1.700 -0.4377 -1.2734 -0.7911
   72MOL   H14017322   1.892   5.472   1.411 -0.7343 -2.3981  0.2611
   72MOL   H14117323   1.878   5.244   1.431 -0.2757 -1.2695  0.5173
   72MOL   H14217324   1.797   5.313   1.552 -0.3436  1.1054 -1.1136
   72MOL   H14317325   1.950   5.245   1.731 -0.3730  1.5089  0.2796
   72MOL   H14417326   1.923   5.113   1.631  0.9399 -0.6345 -1.3426
   72MOL   H14517327   2.076   5.207   1.620 -0.7667 -3.3964  0.7884
   72MOL   C14617328   2.104   5.433   1.448  0.6333  0.0529 -0.0705
   72MOL   C14717329   2.127   5.337   1.321  0.6097 -0.1977 -0.7105
   72MOL   C14817330   2.275   5.281   1.326  0.3151  0.2278 -0.0046
   72MOL   C14917331   2.314   5.208   1.455  0.6900 -0.1887  0.9297
   72MOL   H15017332   2.160   5.411   1.539  1.2742  0.5064 -0.3538
   72MOL   H15117333   2.135   5.533   1.419  0.9827  0.1220  0.5254
   72MOL   H15217334   2.063   5.250   1.329  2.5864 -1.4652  2.3250
   72MOL   H15317335   2.338   5.368   1.310  0.4286  0.3264  0.9624
   72MOL   H15417336   2.288   5.214   1.241 -1.6085 -2.1871  1.5323
   72MOL   H15517337   2.236   5.140   1.491 -0.0244 -0.3862 -0.9244
   72MOL   H15617338   2.403   5.150   1.431  0.6171  0.2136 -0.3035
   72MOL   H15717339   2.347   5.276   1.533  1.6664  0.9220 -0.4277
   72MOL   C15817340   2.095   5.416   1.190 -0.2473  1.0632  0.3571
   72MOL   C15917341   2.000   5.363   1.078 -0.3235 -0.0294 -0.8077
   72MOL   C16017342   1.856   5.347   1.131 -0.4394 -0.2171  0.5812
   72MOL   C16117343   1.791   5.487   1.155 -0.0272  0.5161  0.7686
   72MOL   H16217344   2.193   5.438   1.150  1.5294 -1.1706  3.2383
   72MOL   H16317345   2.060   5.514   1.221  1.0379  1.4281  0.6844
   72MOL   H16417346   2.002   5.432   0.994 -0.4501 -1.4349 -1.9820
   72MOL   H16517347   1.865   5.287   1.221  0.2399  0.8058  1.2101
   72MOL   H16617348   1.792   5.299   1.057  0.7273  0.9496 -1.2192
   72MOL   H16717349   1.841   5.558   1.220  0.0863 -0.4045  1.6998
   72MOL   H16817350   1.777   5.542   1.062 -2.2494 -2.4215 -0.7375
   72MOL   H16917351   1.694   5.466   1.199 -0.3521  2.7382  1.1647
   72MOL   C17017352   2.060   5.234   1.024 -0.8858 -0.9388  0.7265
   72MOL   C17117353   1.987   5.156   0.917  0.6281 -0.1017 -0.6930
   72MOL   C17217354   2.076   5.027   0.878  0.6321 -0.2103 -0.6914
   72MOL   C17317355   2.100   4.921   0.990 -0.1692 -0.1026 -0.0196
   72MOL   H17417356   2.072   5.164   1.107 -2.9055 -0.0342  1.8413
   72MOL   H17517357   2.162   5.246   0.987 -1.1120 -0.9610  0.0893
   72MOL   H17617358   1.893   5.122   0.959  0.7612  1.3621  0.8278
   72MOL   H17717359   2.171   5.065   0.838  0.2420  0.3974 -1.0448
   72MOL   H17817360   2.043   4.977   0.788  2.8080  0.6604 -2.0210
   72MOL   H17917361   2.113   4.963   1.090 -1.5848  1.7276 -0.5704
   72MOL   H18017362   2.015   4.853   0.995  0.1822 -0.6325 -1.1573
   72MOL   H18117363   2.186   4.860   0.963  1.0623  2.1519 -1.2852
   72MOL   C18217364   1.976   5.230   0.777 -0.5298 -0.1903  0.4568
   72MOL   C18317365   1.887   5.166   0.668  0.0392  0.7902  0.1863
   72MOL   C18417366   1.931   5.216   0.533  0.6088  1.0342  0.3020
   72MOL   C18517367   1.893   5.358   0.509  0.5922  0.6681  0.2906
   72MOL   H18617368   2.078   5.222   0.737 -0.6430 -0.2824  0.1850
   72MOL   H18717369   1.970   5.338   0.786  0.8122 -0.0005 -0.6355
   72MOL   H18817370   1.910   5.059   0.662 -1.7174  0.4056  0.0838
   72MOL   H18917371   1.895   5.159   0.448 -1.8766 -0.6312  2.4061
   72MOL   H19017372   2.040   5.220   0.532  0.7404 -1.5327 -0.8108
   72MOL   H19117373   1.951   5.396   0.426  3.4310 -0.5679  1.6376
   72MOL   H19217374   1.789   5.375   0.481  0.1846 -0.7574  0.8714
   72MOL   H19317375   1.911   5.415   0.600 -3.1005  0.6532  1.1188
   72MOL   C19417376   1.737   5.171   0.702 -0.3963 -0.4157  0.2516
   72MOL   C19517377   1.639   5.116   0.596  0.1371 -0.1941  0.5360
   72MOL   C19617378   1.496   5.193   0.606  0.0811  0.6802 -0.0444
   72MOL   C19717379   1.389   5.128   0.689 -0.8565 -0.0985 -0.0396
   72MOL   H19817380   1.701   5.269   0.734  1.5790  0.2521  0.4971
   72MOL   H19917381   1.718   5.115   0.794  0.2536  0.2727  0.8158
   72MOL   H20017382   1.673   5.142   0.495 -1.5458  1.7070  0.4201
   72MOL   H20117383   1.459   5.188   0.503  1.7779  1.6337 -0.7270
   72MOL   H20217384   1.503   5.301   0.620  0.9922  0.6828 -0.4547
   72MOL   H20317385   1.352   5.049   0.624 -1.0772  0.2012 -0.2778
   72MOL   H20417386   1.422   5.082   0.782 -1.1770  1.4636  0.8728
   72MOL   H20517387   1.309   5.200   0.709  0.7542  1.8108 -0.2580
   72MOL   C20617388   1.624   4.965   0.598 -0.1200 -0.9560  0.7402
   72MOL   C20717389   1.718   4.894   0.492  0.5950  0.4563  0.9179
   72MOL   C20817390   1.698   4.932   0.344  0.0027  0.3390  0.1195
   72MOL   C20917391   1.553   4.951   0.299 -0.4031 -0.1689  0.0898
   72MOL   H21017392   1.522   4.936   0.573  0.2324 -1.3989 -0.2262
   72MOL   H21117393   1.624   4.925   0.699  1.2845 -1.3183  0.6050
   72MOL   H21217394   1.823   4.921   0.504  0.5687  1.2051 -0.4122
   72MOL   H21317395   1.753   4.863   0.279  0.8410  1.2559 -0.1614
   72MOL   H21417396   1.758   5.021   0.326 -0.2637  0.5439  0.2538
   72MOL   H21517397   1.505   5.023   0.365  1.0722 -1.0783  2.2257
   72MOL   H21617398   1.541   5.002   0.203  0.7702 -1.4450 -0.7498
   72MOL   H21717399   1.505   4.854   0.288 -1.7172  0.2245  2.2490
   72MOL   C21817400   1.708   4.743   0.517 -0.1348  0.1966  0.0156
   72MOL   C21917401   1.817   4.673   0.606  0.1154 -0.1223  0.0919
   72MOL   C22017402   1.779   4.695   0.754 -0.3661 -0.0576  0.4331
   72MOL   C22117403   1.862   4.602   0.851  0.0284 -0.4184  0.5003
   72MOL   H22217404   1.709   4.694   0.419 -0.5169  0.2352 -0.0087
   72MOL   H22317405   1.606   4.713   0.541  0.9322 -3.4115  0.3470
   72MOL   H22417406   1.803   4.566   0.591 -1.5659  0.0567  0.3338
   72MOL   H22517407   1.677   4.656   0.762 -0.2256 -0.5672 -0.2369
   72MOL   H22617408   1.771   4.801   0.779  0.2870 -0.0048  0.4173
   72MOL   H22717409   1.797   4.585   0.937  1.5758 -0.4737  1.6688
   72MOL   H22817410   1.876   4.500   0.815 -0.3572 -0.3908  0.2751
   72MOL   H22917411   1.958   4.644   0.882 -1.2939  1.4144  2.2425
   72MOL   C23017412   1.969   4.701   0.576 -0.2698 -0.4346  0.4880
   72MOL   C23117413   2.017   4.677   0.432 -0.4254  0.3080  0.0195
   72MOL   C23217414   2.162   4.727   0.413 -0.8193  0.3466 -0.2887
   72MOL   C23317415   2.267   4.631   0.467 -0.5459  0.4533 -1.0845
   72MOL   H23417416   2.034   4.643   0.642 -1.4142 -1.3236  0.8548
   72MOL   H23517417   1.992   4.801   0.610  0.1592  0.1050 -1.3263
   72MOL   H23617418   2.018   4.570   0.411 -0.6309 -0.1993  2.4058
   72MOL   H23717419   2.176   4.831   0.441 -0.8212  0.3159 -0.1753
   72MOL   H23817420   2.181   4.725   0.305 -2.8760 -0.9294 -0.6542
   72MOL   H23917421   2.362   4.676   0.441  0.2034 -1.8728 -2.5219
   72MOL   H24017422   2.265   4.629   0.576 -0.2963 -0.0306 -1.0862
   72MOL   H24117423   2.262   4.527   0.433 -1.1587 -0.5418  1.8240
   72MOL   H24217424   1.951   4.733   0.366 -0.1421  1.1551  0.4497
   73MOL     C117425   5.468   1.540   4.851 -0.2913 -0.7632  0.6377
   73MOL     C217426   5.336   1.502   4.915  0.0815  0.1984 -0.2904
   73MOL     C317427   5.265   1.411   4.818  1.0396  0.4095 -0.3648
   73MOL     C417428   5.130   1.376   4.885 -0.1802 -0.3430  0.3468
   73MOL     H517429   5.522   1.605   4.920 -1.1342 -0.9302  1.4634
   73MOL     H617430   5.540   1.461   4.829 -0.0204 -0.7842  1.5743
   73MOL     H717431   5.365   1.441   5.000  0.7942 -0.3378 -0.9165
   73MOL     H817432   5.320   1.319   4.797  1.9030  0.1879  2.6277
   73MOL     H917433   5.240   1.467   4.728 -1.5510  0.1773  0.1683
   73MOL    H1017434   5.050   1.450   4.874 -1.0350 -1.2868  0.0863
   73MOL    H1117435   5.082   1.289   4.840  1.1933 -0.1342 -1.5564
   73MOL    H1217436   5.135   1.347   4.990 -3.5465 -1.0370  0.3815
   73MOL    H1317437   5.461   1.596   4.758  0.9917  0.2594  1.1411
   73MOL    C1417438   5.246   1.630   4.952  0.0335 -0.5508 -0.1967
   73MOL    C1517439   5.301   1.754   5.032 -0.8028 -0.1273  0.0466
   73MOL    C1617440   5.373   1.711   5.161  0.4590 -0.0909  0.2037
   73MOL    C1717441   5.458   1.822   5.223  0.2835  0.1040 -0.5386
   73MOL    H1817442   5.163   1.593   5.012 -0.3555  1.8668  0.7872
   73MOL    H1917443   5.208   1.671   4.859 -0.4763  1.8167  1.0275
   73MOL    H2017444   5.374   1.792   4.961  0.0556 -1.5746  0.1203
   73MOL    H2117445   5.438   1.628   5.136  1.8078  1.0868 -0.2627
   73MOL    H2217446   5.290   1.679   5.225  0.5249  1.0175  0.8605
   73MOL    H2317447   5.552   1.839   5.172  0.6711  0.6854  0.3557
   73MOL    H2417448   5.401   1.915   5.226 -0.2812 -0.2722  0.6359
   73MOL    H2517449   5.460   1.795   5.329 -2.2523  0.0211 -0.4839
   73MOL    C2617450   5.187   1.859   5.052 -0.2337 -0.0354  0.1295
   73MOL    C2717451   5.175   1.979   4.949  0.2866 -0.2347  0.4743
   73MOL    C2817452   5.151   1.931   4.803 -0.3069  0.1172 -0.1163
   73MOL    C2917453   5.020   1.867   4.778  0.1180  0.1086  0.0374
   73MOL    H3017454   5.204   1.912   5.145 -0.1504 -0.2567  0.2401
   73MOL    H3117455   5.094   1.804   5.066 -0.6370  0.6644  0.2381
   73MOL    H3217456   5.093   2.042   4.983  0.5014 -0.4508  1.4093
   73MOL    H3317457   5.240   1.875   4.772 -1.5008 -0.8613 -1.8334
   73MOL    H3417458   5.149   2.018   4.737  0.0614 -0.0420 -0.3419
   73MOL    H3517459   5.002   1.775   4.833  0.9901  0.3942  0.8154
   73MOL    H3617460   4.938   1.934   4.805 -0.2936 -0.6940  0.7927
   73MOL    H3717461   4.987   1.846   4.676  1.0336 -0.4676 -0.1424
   73MOL    C3817462   5.295   2.078   4.962  0.3038 -0.7432 -0.5890
   73MOL    C3917463   5.278   2.221   4.911 -0.0779  0.3569 -0.1650
   73MOL    C4017464   5.413   2.290   4.901  0.6184 -0.8847  0.3971
   73MOL    C4117465   5.473   2.331   5.031 -0.5367  0.0248 -0.2302
   73MOL    H4217466   5.379   2.044   4.901 -0.1722  0.6131 -2.0513
   73MOL    H4317467   5.330   2.081   5.066  1.0708 -2.6589 -0.7758
   73MOL    H4417468   5.246   2.202   4.808  0.6145 -0.2228 -0.2769
   73MOL    H4517469   5.409   2.379   4.838 -0.3044 -0.4750  1.0168
   73MOL    H4617470   5.479   2.230   4.838 -1.0636 -1.7182 -0.6275
   73MOL    H4717471   5.569   2.380   5.013 -0.8081  1.0796  1.1138
   73MOL    H4817472   5.407   2.407   5.073  0.4563  1.7220 -1.6556
   73MOL    H4917473   5.475   2.253   5.108  2.5241 -1.7718 -2.0156
   73MOL    C5017474   5.164   2.302   4.976 -0.3950 -0.8623  0.6272
   73MOL    C5117475   5.096   2.401   4.878 -0.0442  0.3010 -0.4481
   73MOL    C5217476   5.024   2.516   4.949  0.3108 -0.3494  0.3732
   73MOL    C5317477   5.114   2.617   5.016 -0.4845 -0.2010  0.2716
   73MOL    H5417478   5.216   2.356   5.056  1.8423 -0.2467 -1.1705
   73MOL    H5517479   5.079   2.254   5.024 -0.8411  0.3608  1.1111
   73MOL    H5617480   5.178   2.439   4.818  0.9818 -2.9780 -1.2575
   73MOL    H5717481   4.948   2.475   5.015  0.2823 -0.2113  0.4262
   73MOL    H5817482   4.960   2.576   4.883  2.3349  2.2310  0.7063
   73MOL    H5917483   5.170   2.578   5.101  0.6960  0.0702 -0.3716
   73MOL    H6017484   5.189   2.653   4.945 -0.4422 -2.5207 -0.9022
   73MOL    H6117485   5.047   2.698   5.045 -2.5622 -0.5003 -3.4522
   73MOL    C6217486   4.995   2.328   4.793 -0.3922 -0.2018 -0.6884
   73MOL    C6317487   4.981   2.401   4.661  0.6519  0.5264  0.7991
   73MOL    C6417488   4.839   2.395   4.600  0.1672  0.0234 -0.4030
   73MOL    C6517489   4.750   2.511   4.639  0.1594 -0.3277  0.4144
   73MOL    H6617490   4.898   2.321   4.842 -1.9570 -0.6004 -3.7358
   73MOL    H6717491   5.023   2.222   4.789  0.5667 -0.0269  0.8427
   73MOL    H6817492   5.009   2.505   4.673  2.1100 -0.0250  2.4341
   73MOL    H6917493   4.800   2.296   4.623  1.5405  0.2478  3.1813
   73MOL    H7017494   4.847   2.398   4.492  0.7949 -2.1754 -0.4333
   73MOL    H7117495   4.777   2.609   4.601 -0.6190  0.0168  0.7557
   73MOL    H7217496   4.648   2.485   4.611  0.5730 -1.1670 -0.3448
   73MOL    H7317497   4.744   2.513   4.747  1.3839  0.0973  0.4787
   73MOL    C7417498   5.081   2.341   4.561  0.1463 -0.4182  0.2641
   73MOL    C7517499   5.144   2.443   4.460  0.6441  0.1670  0.1484
   73MOL    C7617500   5.246   2.545   4.523  0.0598 -0.5313  0.2710
   73MOL    C7717501   5.333   2.609   4.415  0.4434  0.2991 -0.5880
   73MOL    H7817502   5.045   2.254   4.507  0.1594 -0.0786 -0.2919
   73MOL    H7917503   5.172   2.312   4.615 -0.5325 -2.3913  0.3657
   73MOL    H8017504   5.206   2.371   4.407  1.3777  0.1356  1.0540
   73MOL    H8117505   5.310   2.506   4.602  0.4319  2.0817  1.3037
   73MOL    H8217506   5.181   2.617   4.573 -0.9815 -3.3190  3.0759
   73MOL    H8317507   5.427   2.639   4.461  1.1138  0.1931 -1.8665
   73MOL    H8417508   5.364   2.532   4.345 -2.0304 -0.7415 -0.6056
   73MOL    H8517509   5.275   2.691   4.372  3.7781  1.7142 -2.6295
   73MOL    C8617510   5.046   2.495   4.348  0.2359  0.0279 -0.3445
   73MOL    C8717511   4.975   2.379   4.266 -0.7930 -0.2945  0.2878
   73MOL    C8817512   5.074   2.311   4.166  0.4859 -0.4952 -0.4914
   73MOL    C8917513   5.139   2.394   4.056  0.4598  0.6797 -0.1565
   73MOL    H9017514   5.103   2.547   4.271  0.4484 -0.4511 -0.5171
   73MOL    H9117515   4.974   2.563   4.391 -2.7575 -3.4171  0.2994
   73MOL    H9217516   4.938   2.304   4.336  0.7544 -1.2893  0.0556
   73MOL    H9317517   5.017   2.230   4.121 -0.9644  0.0395  0.3593
   73MOL    H9417518   5.154   2.280   4.233 -0.0303  1.3505  1.0432
   73MOL    H9517519   5.076   2.427   3.974 -0.6712 -0.4009  0.2589
   73MOL    H9617520   5.194   2.481   4.091  1.9295 -0.5824  0.7585
   73MOL    H9717521   5.215   2.322   4.027 -0.0288  0.9298 -2.1537
   73MOL    C9817522   4.866   2.452   4.185  0.1731  0.2118 -0.1150
   73MOL    C9917523   4.774   2.353   4.102 -0.2748 -0.3812  0.4236
   73MOL   C10017524   4.711   2.433   3.979  0.2552 -0.2261 -0.4220
   73MOL   C10117525   4.604   2.542   4.017  0.0730 -0.1582 -0.4180
   73MOL   H10217526   4.913   2.532   4.128 -2.0919 -0.5448 -3.1673
   73MOL   H10317527   4.796   2.499   4.254 -1.9633 -0.8661 -1.4763
   73MOL   H10417528   4.833   2.283   4.043  0.5903 -0.1219  0.9753
   73MOL   H10517529   4.664   2.372   3.902  2.5531 -0.6765 -1.5135
   73MOL   H10617530   4.792   2.485   3.927 -2.2931  2.3369 -1.9554
   73MOL   H10717531   4.511   2.493   4.047  0.9081 -1.8467 -0.5243
   73MOL   H10817532   4.642   2.609   4.094 -0.1599 -0.7002  0.1752
   73MOL   H10917533   4.584   2.605   3.931 -3.7040 -0.8980 -0.1621
   73MOL   C11017534   4.672   2.277   4.198 -0.1362 -0.1328  0.8351
   73MOL   C11117535   4.602   2.163   4.132  0.9435  0.3187 -0.1296
   73MOL   C11217536   4.454   2.152   4.190  0.2484  0.6853 -0.3867
   73MOL   C11317537   4.364   2.272   4.158  0.5203  0.6140  0.0468
   73MOL   H11417538   4.602   2.348   4.243 -1.8811 -1.7297  0.6870
   73MOL   H11517539   4.728   2.239   4.283 -0.4278 -0.6191  0.8094
   73MOL   H11617540   4.594   2.161   4.023 -1.1497  1.4698 -0.0173
   73MOL   H11717541   4.460   2.133   4.297 -0.4027 -1.3369 -0.6806
   73MOL   H11817542   4.407   2.072   4.132  1.2457  0.1579 -0.4814
   73MOL   H11917543   4.396   2.360   4.215  1.4491 -0.3749  1.0706
   73MOL   H12017544   4.372   2.295   4.052 -0.9959 -0.3236 -0.2711
   73MOL   H12117545   4.260   2.247   4.180  1.3474 -4.3718 -1.2997
   73MOL   C12217546   4.681   2.029   4.173 -0.3765 -0.0167  0.2085
   73MOL   C12317547   4.636   1.898   4.100 -0.3783  0.0908  0.0274
   73MOL   C12417548   4.559   1.808   4.201  0.3731 -0.0318  0.5417
   73MOL   C12517549   4.467   1.702   4.132 -0.3279 -0.4330 -0.7561
   73MOL   H12617550   4.678   2.018   4.282 -3.3662 -1.2845  0.0646
   73MOL   H12717551   4.787   2.043   4.154 -0.7221  3.3632  0.5107
   73MOL   H12817552   4.570   1.923   4.017  0.3182  1.1475 -0.2083
   73MOL   H12917553   4.492   1.859   4.270  2.3163  0.4489  2.0865
   73MOL   H13017554   4.627   1.756   4.268  0.8135 -0.7641 -0.4544
   73MOL   H13117555   4.423   1.647   4.214  0.0813  0.8129  0.3143
   73MOL   H13217556   4.390   1.750   4.071  0.1937 -0.9389 -1.8181
   73MOL   H13317557   4.517   1.630   4.067 -3.4415 -2.9956 -0.4119
   73MOL   C13417558   4.753   1.831   4.025 -0.7007 -0.0615  0.2636
   73MOL   C13517559   4.807   1.899   3.892 -0.2901  0.2303  0.1900
   73MOL   C13617560   4.695   1.911   3.787  0.2496 -0.5057 -0.6145
   73MOL   C13717561   4.609   1.790   3.753 -0.8063  0.0965  0.2187
   73MOL   H13817562   4.723   1.735   3.982 -0.9672  0.8312 -1.5920
   73MOL   H13917563   4.841   1.814   4.088 -1.6879 -1.9067  1.1827
   73MOL   H14017564   4.836   2.001   3.915 -0.4591  0.3281 -0.0336
   73MOL   H14117565   4.733   1.954   3.695 -0.6604  0.9397 -0.3461
   73MOL   H14217566   4.631   1.992   3.822  0.9135 -0.6300  0.9551
   73MOL   H14317567   4.529   1.815   3.683 -2.9130 -1.6605  1.8795
   73MOL   H14417568   4.668   1.710   3.709  0.3485  0.8019  0.4893
   73MOL   H14517569   4.554   1.744   3.836 -1.9367  2.0077  0.5539
   73MOL   C14617570   4.925   1.829   3.839 -0.2201 -0.1444 -0.3260
   73MOL   C14717571   5.058   1.847   3.919 -0.8620 -0.4372 -0.8127
   73MOL   C14817572   5.139   1.972   3.879 -0.2155 -0.0735 -0.1356
   73MOL   C14917573   5.248   2.017   3.989  0.3216  0.1871  1.2717
   73MOL   H15017574   4.936   1.884   3.745 -1.7494  0.6974 -0.0276
   73MOL   H15117575   4.905   1.726   3.809  1.2335 -1.1359  2.0027
   73MOL   H15217576   5.046   1.861   4.027  1.0109  0.3766 -0.6862
   73MOL   H15317577   5.060   2.045   3.863  3.2853  3.6574 -1.2843
   73MOL   H15417578   5.189   1.953   3.784 -1.4389 -2.5252 -0.3474
   73MOL   H15517579   5.290   1.936   4.048 -0.4805 -0.3121  1.1688
   73MOL   H15617580   5.338   2.063   3.947 -1.3282  3.1501  0.8586
   73MOL   H15717581   5.198   2.087   4.057  1.3617  2.0172  0.2104
   73MOL   C15817582   5.149   1.714   3.926 -0.1941  0.3065 -0.8369
   73MOL   C15917583   5.095   1.600   4.008  0.8752 -0.0215  0.0286
   73MOL   C16017584   5.117   1.601   4.161  0.0754  0.3139  0.9649
   73MOL   C16117585   5.038   1.498   4.237  0.6493  0.1575 -0.0516
   73MOL   H16217586   5.248   1.743   3.959 -0.0713 -0.4057 -0.5706
   73MOL   H16317587   5.153   1.675   3.824 -1.8759 -1.5029 -0.2507
   73MOL   H16417588   4.991   1.592   3.977  1.6047 -0.4469 -2.4321
   73MOL   H16517589   5.083   1.694   4.206  1.2295  2.3315 -2.1417
   73MOL   H16617590   5.223   1.597   4.189  0.6297 -0.8902 -1.1621
   73MOL   H16717591   4.931   1.511   4.221  0.8545  0.1836 -1.4511
   73MOL   H16817592   5.080   1.398   4.225  1.0477  0.3112  0.0504
   73MOL   H16917593   5.053   1.525   4.341 -0.0630  0.0660  0.0791
   73MOL   C17017594   5.155   1.471   3.944 -0.1717  0.2117 -1.1880
   73MOL   C17117595   5.085   1.434   3.811  0.0848  0.0643 -0.0538
   73MOL   C17217596   4.985   1.310   3.838 -0.0900 -0.3057 -0.6207
   73MOL   C17317597   4.867   1.317   3.941 -0.0321  0.3499  0.1372
   73MOL   H17417598   5.159   1.385   4.010  2.4834  1.2913  0.1619
   73MOL   H17517599   5.262   1.476   3.922  0.6092 -1.7195  1.8582
   73MOL   H17617600   5.027   1.520   3.780  0.5018  0.5744  0.5594
   73MOL   H17717601   5.045   1.223   3.865 -2.4979 -1.6158  0.7518
   73MOL   H17817602   4.953   1.272   3.741 -0.0995 -1.5136 -0.1577
   73MOL   H17917603   4.782   1.375   3.906  0.8519  1.6898  0.1551
   73MOL   H18017604   4.826   1.219   3.964 -3.0594  1.3226 -0.9226
   73MOL   H18117605   4.903   1.353   4.038  0.8239 -0.0581 -0.0220
   73MOL   C18217606   5.187   1.388   3.703 -0.5657 -0.2383  0.1500
   73MOL   C18317607   5.149   1.379   3.557 -0.2011 -0.1423  0.0086
   73MOL   C18417608   5.262   1.321   3.477 -0.2454 -0.4401 -0.2887
   73MOL   C18517609   5.227   1.299   3.328  0.4935 -0.3452 -0.0813
   73MOL   H18617610   5.219   1.290   3.737 -1.7240  0.6469  4.0249
   73MOL   H18717611   5.273   1.455   3.716 -1.9581  1.2539  1.9712
   73MOL   H18817612   5.067   1.308   3.545  1.1535 -1.8902  0.9638
   73MOL   H18917613   5.299   1.229   3.522  1.5063  0.2896 -0.1754
   73MOL   H19017614   5.354   1.379   3.490 -1.1232  0.6718  1.0620
   73MOL   H19117615   5.231   1.395   3.277 -0.2889 -0.3146 -0.0906
   73MOL   H19217616   5.301   1.239   3.276 -1.1395 -1.3869 -1.2627
   73MOL   H19317617   5.125   1.265   3.311  0.1901  0.6838 -0.3651
   73MOL   C19417618   5.107   1.514   3.500  0.3578 -0.7571 -0.0295
   73MOL   C19517619   4.959   1.516   3.446 -0.6279  0.2366  0.0463
   73MOL   C19617620   4.943   1.630   3.351  0.1663  0.0345 -0.9435
   73MOL   C19717621   4.985   1.615   3.199  0.0913 -0.1057 -0.5532
   73MOL   H19817622   5.168   1.540   3.414 -0.7132  1.5922 -0.1198
   73MOL   H19917623   5.127   1.595   3.571  3.3430  0.0302 -1.6761
   73MOL   H20017624   4.948   1.428   3.384  1.2500  0.7030 -1.0057
   73MOL   H20117625   4.987   1.721   3.390  1.5921 -1.4411  0.9588
   73MOL   H20217626   4.839   1.663   3.353  0.1658 -0.0371  0.4582
   73MOL   H20317627   5.088   1.646   3.179  0.6939 -2.2539 -0.9355
   73MOL   H20417628   4.981   1.508   3.180 -5.4852 -0.0258 -0.7206
   73MOL   H20517629   4.919   1.663   3.127 -2.0061 -1.9407  0.1086
   73MOL   C20617630   4.848   1.496   3.554  0.2685 -0.3562 -0.3444
   73MOL   C20717631   4.730   1.403   3.519  0.2697 -0.2123 -0.4903
   73MOL   C20817632   4.649   1.470   3.404 -0.1808  0.3610 -0.4361
   73MOL   C20917633   4.586   1.609   3.445  0.2834 -0.2078  0.0263
   73MOL   H21017634   4.815   1.587   3.604  0.8053 -1.3335  1.8414
   73MOL   H21117635   4.901   1.434   3.627  1.1374 -1.0104 -1.5227
   73MOL   H21217636   4.777   1.309   3.487  0.1866 -1.0542  1.7406
   73MOL   H21317637   4.565   1.412   3.366 -0.7869  1.1696 -0.3589
   73MOL   H21417638   4.708   1.484   3.314  0.3970  1.3462  0.0879
   73MOL   H21517639   4.539   1.649   3.355 -0.6357 -0.5969  0.3281
   73MOL   H21617640   4.515   1.588   3.525 -0.4450 -2.3388 -1.1142
   73MOL   H21717641   4.665   1.673   3.482  1.4285 -1.4794 -0.1890
   73MOL   C21817642   4.639   1.383   3.641 -0.3579  0.2094  0.3395
   73MOL   C21917643   4.496   1.314   3.619 -0.1471 -0.2305  0.6915
   73MOL   C22017644   4.418   1.294   3.751  0.3461  0.4250  0.2615
   73MOL   C22117645   4.392   1.428   3.819  0.1941  0.3770 -0.7325
   73MOL   H22217646   4.622   1.476   3.696 -2.4000 -0.9961  1.7888
   73MOL   H22317647   4.697   1.308   3.696 -2.5391 -2.1737 -0.5156
   73MOL   H22417648   4.440   1.377   3.550  1.9878  0.1424 -0.7416
   73MOL   H22517649   4.477   1.240   3.825 -1.0209 -1.9887 -0.3651
   73MOL   H22617650   4.321   1.247   3.732 -0.0509  2.2283 -2.4652
   73MOL   H22717651   4.313   1.410   3.891  0.9804  3.6596  1.0229
   73MOL   H22817652   4.473   1.484   3.866  0.5784 -0.7322 -0.0460
   73MOL   H22917653   4.350   1.496   3.745 -2.7634 -0.1637  0.3968
   73MOL   C23017654   4.510   1.171   3.547  0.8172 -0.2111  0.8390
   73MOL   C23117655   4.385   1.081   3.531  0.5974 -0.0794 -0.2833
   73MOL   C23217656   4.260   1.137   3.460  0.1734 -0.1970  0.3187
   73MOL   C23317657   4.141   1.048   3.457  0.2504  0.1165  0.5122
   73MOL   H23417658   4.579   1.118   3.613  0.4459 -1.4080  0.2698
   73MOL   H23517659   4.558   1.181   3.449  1.3660  2.4439  1.3232
   73MOL   H23617660   4.417   0.988   3.485  0.0853 -0.3416 -0.1190
   73MOL   H23717661   4.294   1.166   3.360 -1.6894  2.9231  0.5034
   73MOL   H23817662   4.241   1.229   3.516 -0.7435 -1.3260  1.9067
   73MOL   H23917663   4.059   1.094   3.401  0.1069 -0.2811  0.3985
   73MOL   H24017664   4.165   0.956   3.404 -2.2623 -1.1041  1.4362
   73MOL   H24117665   4.100   1.021   3.554  2.9021  0.0787  1.6565
   73MOL   H24217666   4.359   1.058   3.634  1.3927  2.2835  0.4886
   74MOL     C117667   2.256   7.247   7.091  0.5026 -0.0808  0.2586
   74MOL     C217668   2.287   7.381   7.021 -0.0842  0.7662  0.4370
   74MOL     C317669   2.366   7.473   7.110 -0.1985 -0.1540 -0.2677
   74MOL     C417670   2.433   7.578   7.024  0.0302 -0.5212  0.3205
   74MOL     H517671   2.181   7.191   7.035 -0.9341  0.5252  1.5144
   74MOL     H617672   2.346   7.192   7.118  0.0223  0.0100  2.1103
   74MOL     H717673   2.341   7.354   6.930  0.1852 -2.6231  1.5378
   74MOL     H817674   2.450   7.424   7.160 -0.0553  1.9398  1.5935
   74MOL     H917675   2.308   7.519   7.189 -2.1928 -0.4553 -1.5210
   74MOL    H1017676   2.502   7.525   6.958 -1.0641 -0.9275 -0.5287
   74MOL    H1117677   2.365   7.637   6.962 -0.1762 -0.6193  0.4510
   74MOL    H1217678   2.490   7.643   7.089 -0.4194  1.3405 -1.0785
   74MOL    H1317679   2.207   7.270   7.186  1.1888  1.3777  0.2733
   74MOL    C1417680   2.154   7.443   6.973  0.2059  0.5303 -0.6450
   74MOL    C1517681   2.127   7.412   6.815 -0.8065 -0.4755 -0.2792
   74MOL    C1617682   2.210   7.516   6.731 -0.3598 -0.4206 -0.1210
   74MOL    C1717683   2.194   7.509   6.578  0.2291 -0.0398 -0.4135
   74MOL    H1817684   2.147   7.549   6.996 -0.0815  0.0894  1.3250
   74MOL    H1917685   2.080   7.394   7.035  1.1741 -0.9439 -0.6219
   74MOL    H2017686   2.161   7.313   6.786 -3.6332 -1.4648 -0.3750
   74MOL    H2117687   2.313   7.488   6.754  0.1421  1.3769 -0.1416
   74MOL    H2217688   2.197   7.616   6.772  3.2648  1.2943 -2.8612
   74MOL    H2317689   2.272   7.568   6.530 -0.5623  0.9798 -0.4632
   74MOL    H2417690   2.194   7.407   6.538  0.5079 -0.5088  0.7711
   74MOL    H2517691   2.098   7.556   6.555  0.2775  0.2532 -0.0084
   74MOL    C2617692   1.977   7.412   6.776  0.1791 -0.0826 -0.6756
   74MOL    C2717693   1.882   7.318   6.860  0.5966 -0.2787 -0.0408
   74MOL    C2817694   1.905   7.167   6.827 -0.3058 -0.4644 -0.3811
   74MOL    C2917695   1.880   7.119   6.679 -0.6442 -0.4021 -0.1544
   74MOL    H3017696   1.965   7.387   6.671 -1.1140 -0.5679 -0.4212
   74MOL    H3117697   1.940   7.512   6.798  0.0163 -0.3367  0.2216
   74MOL    H3217698   1.892   7.340   6.966 -1.3080 -0.1546  0.1397
   74MOL    H3317699   1.851   7.099   6.891 -0.7912 -0.5923 -0.9218
   74MOL    H3417700   2.010   7.155   6.853 -0.5403  0.1864  0.8749
   74MOL    H3517701   1.780   7.133   6.640 -0.6610 -0.5218 -0.1533
   74MOL    H3617702   1.949   7.171   6.613  0.5686  0.8806  2.0287
   74MOL    H3717703   1.913   7.021   6.645  1.0971  0.1346 -0.0681
   74MOL    C3817704   1.738   7.350   6.827  0.0311  0.1070  0.2068
   74MOL    C3917705   1.682   7.493   6.866 -0.4604  0.3891 -0.6795
   74MOL    C4017706   1.657   7.500   7.019 -0.4653  0.0957 -0.4668
   74MOL    C4117707   1.658   7.645   7.072  0.3818 -0.0358  0.2680
   74MOL    H4217708   1.677   7.271   6.872 -2.3827  2.4290  1.1470
   74MOL    H4317709   1.728   7.329   6.720 -0.8115  1.4428  0.0124
   74MOL    H4417710   1.754   7.569   6.834 -0.6381  0.9897  0.3500
   74MOL    H4517711   1.732   7.443   7.074 -1.1848 -0.4180 -0.0233
   74MOL    H4617712   1.561   7.459   7.048  0.5002 -0.6450  1.7739
   74MOL    H4717713   1.603   7.645   7.167  0.5338  1.0348  0.3607
   74MOL    H4817714   1.759   7.679   7.092  0.5926 -1.9846  2.7983
   74MOL    H4917715   1.607   0.013   7.011  1.4609  1.6129  1.3042
   74MOL    C5017716   1.554   7.540   6.792  0.1082 -0.5840  0.3617
   74MOL    C5117717   1.580   7.580   6.643  0.3605  0.6839 -0.3128
   74MOL    C5217718   1.673   7.705   6.632 -0.3681 -0.6023 -0.3779
   74MOL    C5317719   1.625   0.123   6.706 -0.8066  0.1935  0.1704
   74MOL    H5417720   1.503   7.624   6.839 -1.6248  0.3004 -2.9423
   74MOL    H5517721   1.484   7.458   6.798 -0.5637 -0.1053 -0.8164
   74MOL    H5617722   1.625   7.489   6.602  0.9017  0.0358  1.6901
   74MOL    H5717723   1.696   0.024   6.528  2.7397 -4.7376 -0.8210
   74MOL    H5817724   1.776   7.696   6.666 -0.7404 -0.5834  0.7557
   74MOL    H5917725   1.530   0.172   6.685 -1.0894 -0.2561  0.3961
   74MOL    H6017726   1.621   0.102   6.813 -1.8278 -2.9752 -0.4242
   74MOL    H6117727   1.696   0.201   6.682  0.0265 -1.2203 -2.1341
   74MOL    C6217728   1.451   7.614   6.563  0.5573 -0.4737 -0.0587
   74MOL    C6317729   1.361   7.489   6.537  0.8285 -0.0093  0.0243
   74MOL    C6417730   1.394   7.406   6.413 -0.8373  0.5451 -0.1056
   74MOL    C6517731   1.482   7.279   6.436  1.0079  0.0736  0.2645
   74MOL    H6617732   1.472   7.671   6.472 -1.3304  1.5313  0.7091
   74MOL    H6717733   1.395   7.677   6.632  0.4391 -2.0888  1.3631
   74MOL    H6817734   1.369   7.420   6.621  1.3965  1.0483  0.8483
   74MOL    H6917735   1.456   7.470   6.351 -0.9990  0.6226 -0.1883
   74MOL    H7017736   1.315   7.361   6.352 -0.5677  1.7978 -1.4126
   74MOL    H7117737   1.487   7.226   6.341 -2.0281  3.6070 -2.0533
   74MOL    H7217738   1.587   7.308   6.443  0.4735  2.0699  0.3480
   74MOL    H7317739   1.451   7.209   6.513 -1.8280  0.9267 -0.0362
   74MOL    C7417740   1.210   7.535   6.508  0.2122 -0.3736  0.2483
   74MOL    C7517741   1.111   7.437   6.562 -0.1470 -0.0792 -0.0872
   74MOL    C7617742   0.972   7.476   6.503  0.0465  0.3711  0.0812
   74MOL    C7717743   0.861   7.377   6.533 -0.4071  0.3778  0.0057
   74MOL    H7817744   1.188   7.565   6.405 -0.1821  0.7001  0.6405
   74MOL    H7917745   1.176   7.624   6.561 -1.5620  0.2848 -1.9021
   74MOL    H8017746   1.144   7.343   6.517 -2.0769 -0.3143 -1.0925
   74MOL    H8117747   0.984   7.495   6.397 -2.0451  0.5415 -0.1562
   74MOL    H8217748   0.943   7.575   6.539 -0.2998  0.7455 -1.2043
   74MOL    H8317749   0.875   7.288   6.472  0.1070  0.8906 -0.6350
   74MOL    H8417750   0.859   7.347   6.638  2.2453 -0.3984 -0.1462
   74MOL    H8517751   0.764   7.418   6.503 -0.8647 -0.3727  0.4357
   74MOL    C8617752   1.110   7.433   6.721  1.3493 -0.1251  0.4033
   74MOL    C8717753   1.102   7.299   6.789 -0.1429  0.9094  0.3989
   74MOL    C8817754   1.048   7.307   6.939 -0.1163 -0.2240  0.3770
   74MOL    C8917755   0.905   7.345   6.953 -0.8633  0.3910 -0.2230
   74MOL    H9017756   1.023   7.493   6.749  1.5654  0.4178 -0.0852
   74MOL    H9117757   1.190   7.493   6.763 -0.9929  0.9947  3.4530
   74MOL    H9217758   1.022   7.240   6.743  0.2898 -1.0280  2.0540
   74MOL    H9317759   1.110   7.378   6.993  1.3185 -0.6342 -0.7080
   74MOL    H9417760   1.060   7.216   6.999 -0.7128  0.3436  1.3742
   74MOL    H9517761   0.834   7.263   6.940 -0.6568  0.2557 -0.5156
   74MOL    H9617762   0.887   7.369   7.057  1.6023 -2.8377  1.0281
   74MOL    H9717763   0.872   7.434   6.900  0.0376  1.0310  0.2827
   74MOL    C9817764   1.236   7.219   6.775  0.1807 -0.4035  0.1706
   74MOL    C9917765   1.239   7.073   6.827  0.1846  0.6800 -0.1351
   74MOL   C10017766   1.379   7.037   6.899 -0.7474 -0.1959  0.3142
   74MOL   C10117767   1.414   7.117   7.022 -0.7287 -0.5326 -0.5532
   74MOL   H10217768   1.323   7.275   6.812  0.4533 -1.2702  0.8387
   74MOL   H10317769   1.268   7.218   6.671 -0.9116 -0.1194 -0.1712
   74MOL   H10417770   1.168   7.062   6.909  0.2091  0.3726 -0.1526
   74MOL   H10517771   1.459   7.059   6.828 -0.4047 -0.2343  0.6838
   74MOL   H10617772   1.393   6.931   6.919  0.7678  0.2351  1.6416
   74MOL   H10717773   1.415   7.224   7.000 -1.8207 -0.6034 -0.9836
   74MOL   H10817774   1.336   7.115   7.099 -0.0695 -0.3827  0.1249
   74MOL   H10917775   1.505   7.090   7.076 -0.0806  2.3820 -0.1111
   74MOL   C11017776   1.211   6.967   6.719 -0.1600 -0.2483  0.8611
   74MOL   C11117777   1.072   6.968   6.662 -0.4532  0.5966 -1.0284
   74MOL   C11217778   0.950   6.956   6.772 -0.1486 -0.0177 -0.1772
   74MOL   C11317779   0.806   6.990   6.727 -0.2926 -0.1792  0.2695
   74MOL   H11417780   1.223   6.864   6.753 -3.0207 -1.6360 -2.0613
   74MOL   H11517781   1.280   6.991   6.637  0.4147 -1.3765  1.0107
   74MOL   H11617782   1.050   7.069   6.629 -0.8887  0.8451 -0.0008
   74MOL   H11717783   0.975   7.031   6.846 -1.7352  0.0165  0.3464
   74MOL   H11817784   0.942   6.863   6.829 -0.3819 -1.5549 -2.6496
   74MOL   H11917785   0.769   6.910   6.662 -0.0000  1.6439 -2.2000
   74MOL   H12017786   0.740   7.008   6.811  1.0631  2.4239  0.8175
   74MOL   H12117787   0.810   7.084   6.672 -1.3385 -0.7514 -0.8073
   74MOL   C12217788   1.046   6.855   6.559 -0.6074  0.5545 -0.4654
   74MOL   C12317789   1.130   6.855   6.431 -0.0970  0.2119  0.6691
   74MOL   C12417790   1.098   6.989   6.351  0.1495 -0.4998  0.2786
   74MOL   C12517791   1.214   7.046   6.270  0.1360  0.0187 -0.2181
   74MOL   H12617792   0.940   6.856   6.537 -0.3159  4.3070 -2.0641
   74MOL   H12717793   1.052   6.764   6.620  0.9177  0.4504 -0.7389
   74MOL   H12817794   1.236   6.857   6.457  0.0192  1.2041  0.1476
   74MOL   H12917795   1.086   7.069   6.425 -0.7256  0.3124 -0.7204
   74MOL   H13017796   1.005   6.993   6.295  1.3452  2.4971 -1.6307
   74MOL   H13117797   1.294   7.053   6.343 -1.1642  1.5017  1.0941
   74MOL   H13217798   1.232   6.977   6.187  1.2546  0.3930 -0.2909
   74MOL   H13317799   1.179   7.140   6.226  0.1322  0.3534  0.4992
   74MOL   C13417800   1.094   6.732   6.343 -0.3039 -0.6220  0.4058
   74MOL   C13517801   1.122   6.595   6.410  0.2819 -0.2359  0.1805
   74MOL   C13617802   1.263   6.590   6.461  0.3099 -0.2931  0.3424
   74MOL   C13717803   1.373   6.617   6.360 -0.6473  0.0568 -0.2433
   74MOL   H13817804   1.152   6.733   6.250 -0.4279  2.3679  0.3196
   74MOL   H13917805   0.992   6.745   6.308 -0.2018  1.6999  0.8876
   74MOL   H14017806   1.065   6.571   6.501 -0.3669  1.5280  0.2497
   74MOL   H14117807   1.282   6.502   6.522  1.5817  0.6993  1.4099
   74MOL   H14217808   1.270   6.665   6.540 -0.7552  0.4718 -0.2810
   74MOL   H14317809   1.377   6.725   6.342 -0.0601  0.1644  0.5517
   74MOL   H14417810   1.469   6.587   6.400 -0.8294 -1.3916 -0.8556
   74MOL   H14517811   1.355   6.574   6.261  0.8584  2.6586 -1.7166
   74MOL   C14617812   1.084   6.475   6.318 -0.6491 -0.0422 -0.4789
   74MOL   C14717813   0.953   6.467   6.235  0.0506 -0.7279 -1.1373
   74MOL   C14817814   0.829   6.473   6.322 -0.1690  0.6572  0.5494
   74MOL   C14917815   0.695   6.496   6.236 -0.2760 -0.0052 -0.2550
   74MOL   H15017816   1.073   6.385   6.378 -0.7862  0.5263  0.3514
   74MOL   H15117817   1.175   6.456   6.262  0.6412  0.0740  1.5424
   74MOL   H15217818   0.952   6.555   6.171  0.5001  0.9041  1.0668
   74MOL   H15317819   0.855   6.555   6.390  0.5774  0.7809  0.1201
   74MOL   H15417820   0.817   6.389   6.391 -1.8480  2.0266  1.9737
   74MOL   H15517821   0.619   6.536   6.302  0.4312 -0.2426  0.7007
   74MOL   H15617822   0.720   6.567   6.157 -1.3138 -0.1902 -0.7616
   74MOL   H15717823   0.659   6.403   6.191 -0.7230  0.3683 -0.6745
   74MOL   C15817824   0.949   6.341   6.145 -0.5500 -0.3187  0.1191
   74MOL   C15917825   1.030   6.359   6.012  0.1418  0.3702 -0.0780
   74MOL   C16017826   0.965   6.450   5.911  0.0239 -1.0598 -0.5237
   74MOL   C16117827   1.065   6.498   5.799  0.1314  0.2930  0.1552
   74MOL   H16217828   0.845   6.309   6.139 -0.2164 -1.5075  0.5410
   74MOL   H16317829   0.992   6.254   6.194 -0.4069 -0.5959 -0.4949
   74MOL   H16417830   1.123   6.403   6.049 -0.7895 -0.7437  3.8526
   74MOL   H16517831   0.929   6.546   5.949 -1.5697 -1.5189 -0.8135
   74MOL   H16617832   0.875   6.402   5.871 -0.3134 -0.1694 -0.8424
   74MOL   H16717833   1.158   6.533   5.843 -0.2616  0.7400  0.6313
   74MOL   H16817834   1.108   6.427   5.728  1.3004 -0.4802  1.5906
   74MOL   H16917835   1.017   6.577   5.742 -0.9265 -0.7777 -0.4583
   74MOL   C17017836   1.073   6.227   5.944 -0.1177  0.8018  0.1197
   74MOL   C17117837   1.201   6.160   6.016  0.0012 -0.2377  0.0439
   74MOL   C17217838   1.336   6.233   5.998  0.0178  1.1347  0.2436
   74MOL   C17317839   1.373   6.263   5.848  0.0562  0.0116  0.1921
   74MOL   H17417840   1.091   6.243   5.837  0.6600 -0.3423  0.0766
   74MOL   H17517841   0.991   6.157   5.961  0.7387 -0.2838 -0.1384
   74MOL   H17617842   1.182   6.156   6.124 -0.1657  3.8967  0.2528
   74MOL   H17717843   1.421   6.183   6.045 -0.2204  0.5081  0.0182
   74MOL   H17817844   1.329   6.332   6.043  2.2585  1.0082  0.9295
   74MOL   H17917845   1.408   6.170   5.802  0.5720 -0.2978  1.1825
   74MOL   H18017846   1.287   6.296   5.790 -0.7380 -0.8031  0.8735
   74MOL   H18117847   1.457   6.331   5.845  0.1357 -0.1091 -0.3222
   74MOL   C18217848   1.217   6.005   5.980  0.3674 -0.1039 -0.1933
   74MOL   C18317849   1.303   5.919   6.079  0.0122 -0.0911  0.3593
   74MOL   C18417850   1.366   5.792   6.007  0.4096  0.1128 -0.1626
   74MOL   C18517851   1.493   5.834   5.933  0.4819  0.4346  0.8699
   74MOL   H18617852   1.261   5.998   5.880  1.6528 -0.9257  0.4261
   74MOL   H18717853   1.123   5.953   5.964 -1.7192  3.1789  0.8787
   74MOL   H18817854   1.382   5.986   6.113  0.6620 -0.2255 -0.8640
   74MOL   H18917855   1.299   5.740   5.938  3.8254 -1.1939 -2.6745
   74MOL   H19017856   1.395   5.716   6.079 -2.2056 -2.8490 -2.1161
   74MOL   H19117857   1.564   5.889   5.994  1.3648 -0.9372  1.1066
   74MOL   H19217858   1.548   5.743   5.906  1.2420  1.1757 -0.1211
   74MOL   H19317859   1.480   5.896   5.845 -0.9420  0.3279  0.9813
   74MOL   C19417860   1.224   5.876   6.204  0.1903  0.4631 -0.4055
   74MOL   C19517861   1.317   5.855   6.331  0.3415 -0.9762  0.1701
   74MOL   C19617862   1.237   5.773   6.435  0.3908  0.6152  0.0031
   74MOL   C19717863   1.213   5.629   6.385  0.4607 -0.4611  0.2759
   74MOL   H19817864   1.163   5.787   6.192 -1.8410  1.1932  3.4707
   74MOL   H19917865   1.164   5.963   6.229 -1.3966 -0.5967 -0.4761
   74MOL   H20017866   1.400   5.798   6.290  0.7751 -0.6013  0.5303
   74MOL   H20117867   1.140   5.822   6.448  0.0155  0.4126 -1.8830
   74MOL   H20217868   1.286   5.763   6.531 -0.2272  0.8372  0.3490
   74MOL   H20317869   1.148   5.619   6.298  1.7659 -0.1085 -0.7455
   74MOL   H20417870   1.306   5.583   6.353 -0.1269 -1.1261 -0.5237
   74MOL   H20517871   1.169   5.575   6.469 -2.8834  1.3698 -0.2102
   74MOL   C20617872   1.351   5.987   6.404 -0.1939 -0.2713  0.0487
   74MOL   C20717873   1.464   5.991   6.506 -0.4406  0.4502 -0.3498
   74MOL   C20817874   1.469   6.122   6.595  0.2965  0.0726  0.0550
   74MOL   C20917875   1.477   6.262   6.527  0.1006  0.4209 -0.4328
   74MOL   H21017876   1.257   6.022   6.448  0.7005 -0.5761  2.2526
   74MOL   H21117877   1.365   6.072   6.337  1.1862 -0.4503  0.0930
   74MOL   H21217878   1.445   5.909   6.575  0.0747  1.3077  0.8451
   74MOL   H21317879   1.548   6.121   6.670  0.2352  1.7353  0.1631
   74MOL   H21417880   1.378   6.125   6.654 -0.3016  2.4341 -0.8950
   74MOL   H21517881   1.394   6.289   6.461  0.4679 -0.4836 -1.2858
   74MOL   H21617882   1.476   6.339   6.604  3.8869 -0.1501  0.2825
   74MOL   H21717883   1.563   6.271   6.462  0.2518 -1.1801 -0.4950
   74MOL   C21817884   1.603   5.970   6.438  0.5261  0.4305  0.0582
   74MOL   C21917885   1.669   5.842   6.480  0.1244 -0.4187  0.0729
   74MOL   C22017886   1.722   5.847   6.622  0.0777 -0.2355 -0.7026
   74MOL   C22117887   1.765   5.710   6.688 -0.2248  0.3822  0.4455
   74MOL   H22217888   1.664   6.057   6.463 -1.0223  1.5202  0.1066
   74MOL   H22317889   1.593   5.976   6.329  1.8763 -0.6978 -0.1391
   74MOL   H22417890   1.603   5.755   6.476  1.6688 -1.6115 -0.0832
   74MOL   H22517891   1.652   5.897   6.688  2.3520  0.4131  1.2969
   74MOL   H22617892   1.814   5.905   6.616  1.3015 -2.0708  0.0475
   74MOL   H22717893   1.677   5.649   6.704 -0.7476  1.5466  2.2421
   74MOL   H22817894   1.854   5.657   6.653 -0.2786  0.2945  0.4455
   74MOL   H22917895   1.797   5.725   6.792  0.4745  1.6560  0.0646
   74MOL   C23017896   1.780   5.792   6.380 -0.1042  0.5607 -0.0823
   74MOL   C23117897   1.729   5.751   6.240 -0.3987  0.5987 -0.8500
   74MOL   C23217898   1.837   5.705   6.135  0.2270  0.3573  0.5921
   74MOL   C23317899   1.891   5.826   6.062  1.0867 -0.6355 -0.2151
   74MOL   H23417900   1.831   5.707   6.426  1.0030  0.5869 -1.2168
   74MOL   H23517901   1.864   5.860   6.367 -1.0022  1.1373 -3.2571
   74MOL   H23617902   1.669   5.661   6.247 -0.6088  0.6833 -1.5310
   74MOL   H23717903   1.791   5.626   6.075  1.5604 -0.4190  0.5920
   74MOL   H23817904   1.923   5.659   6.183  0.4811  0.4470  0.2229
   74MOL   H23917905   1.809   5.876   6.011  2.2215 -0.1693 -1.6193
   74MOL   H24017906   1.925   5.892   6.142 -1.1655  0.1702  0.1059
   74MOL   H24117907   1.971   5.805   5.991  2.5999 -3.2690  2.1497
   74MOL   H24217908   1.651   5.817   6.202 -0.6964  1.0607  0.5495
   75MOL     C117909   6.583   0.779   2.613  0.3142  0.2926 -0.2310
   75MOL     C217910   6.596   0.923   2.564  0.0164  0.4581 -0.6273
   75MOL     C317911   6.720   0.994   2.624  0.7312 -0.3218 -0.4457
   75MOL     C417912   6.857   0.924   2.604 -0.0699 -0.2637 -0.2345
   75MOL     H517913   6.494   0.739   2.565 -0.0084 -0.4448  0.9751
   75MOL     H617914   6.671   0.717   2.596 -0.1642 -0.0162 -1.6643
   75MOL     H717915   6.604   0.929   2.455 -2.3617 -0.1861 -0.8572
   75MOL     H817916   6.717   1.008   2.732  0.5343 -1.4206 -0.2977
   75MOL     H917917   6.724   1.089   2.571  0.1084 -0.7586 -1.3023
   75MOL    H1017918   6.863   0.876   2.507  2.6546  1.7740 -1.1313
   75MOL    H1117919   6.935   0.999   2.617 -0.8584  1.0880 -2.9675
   75MOL    H1217920   6.870   0.843   2.676  0.1987 -0.2648 -0.2853
   75MOL    H1317921   6.556   0.771   2.718  1.8497 -1.4026  0.0541
   75MOL    C1417922   6.470   1.000   2.602 -0.7268 -0.0734 -0.5408
   75MOL    C1517923   6.426   1.103   2.494 -0.2998 -0.0211  0.3574
   75MOL    C1617924   6.344   1.215   2.558  0.7769 -0.1758 -0.2290
   75MOL    C1717925   6.428   1.300   2.656  0.9652  0.1908  0.0893
   75MOL    H1817926   6.496   1.050   2.695  0.4438  1.4994 -1.6753
   75MOL    H1917927   6.380   0.940   2.618 -0.6784 -0.6380 -2.2772
   75MOL    H2017928   6.519   1.152   2.467 -1.8725  2.2136 -1.1530
   75MOL    H2117929   6.259   1.167   2.606  1.4993 -0.5384  0.6861
   75MOL    H2217930   6.300   1.273   2.476 -2.1109 -1.1661  0.5769
   75MOL    H2317931   6.412   1.406   2.639  0.0387  0.5539  2.9605
   75MOL    H2417932   6.423   1.283   2.764  1.0241  0.1488  0.0858
   75MOL    H2517933   6.533   1.276   2.638  0.2294 -1.4192 -2.2824
   75MOL    C2617934   6.363   1.027   2.373 -0.0492  0.3323  0.4026
   75MOL    C2717935   6.389   1.102   2.240  0.5627  0.5665 -0.6414
   75MOL    C2817936   6.293   1.069   2.121 -0.3427 -0.0768 -0.3652
   75MOL    C2917937   6.148   1.112   2.149  0.1532 -0.2630 -0.5126
   75MOL    H3017938   6.255   1.022   2.387 -0.2349  1.0497 -0.7515
   75MOL    H3117939   6.381   0.920   2.370  2.2020  0.6748  0.8351
   75MOL    H3217940   6.381   1.208   2.263 -2.6280  0.1847  0.1669
   75MOL    H3317941   6.299   0.963   2.098 -3.3243 -0.3062 -0.2768
   75MOL    H3417942   6.327   1.116   2.028  1.4689 -1.2741 -0.3199
   75MOL    H3517943   6.091   1.136   2.059  0.3388  0.9560 -0.3137
   75MOL    H3617944   6.107   1.019   2.188  0.5755 -0.5675 -0.7835
   75MOL    H3717945   6.142   1.183   2.231 -3.0898  0.7465 -1.5541
   75MOL    C3817946   6.538   1.070   2.195 -0.0674 -0.9517  0.0711
   75MOL    C3917947   6.596   1.174   2.092 -0.4375  0.2306 -0.0678
   75MOL    C4017948   6.700   1.114   2.008  0.6065  0.3437 -0.2826
   75MOL    C4117949   6.820   1.058   2.082  0.2228 -0.1458  0.3631
   75MOL    H4217950   6.541   0.972   2.148  0.9818  0.1352 -2.2022
   75MOL    H4317951   6.601   1.064   2.283 -0.4159 -0.0486  0.3888
   75MOL    H4417952   6.522   1.196   2.015 -1.0773 -0.7480  0.2513
   75MOL    H4517953   6.733   1.186   1.934  1.5046  1.7583  1.4543
   75MOL    H4617954   6.661   1.026   1.957  1.8897  0.2927 -1.1878
   75MOL    H4717955   6.903   1.030   2.017 -0.9656  0.4722 -1.4431
   75MOL    H4817956   6.861   1.127   2.156  0.2335  1.0547 -0.7521
   75MOL    H4917957   6.791   0.976   2.148 -1.5168  0.6781  0.6308
   75MOL    C5017958   6.635   1.303   2.167  0.8239  0.2402  0.5542
   75MOL    C5117959   6.645   1.433   2.081 -0.2474 -0.0028 -0.2401
   75MOL    C5217960   6.761   1.519   2.130  0.7956 -0.5404 -0.3109
   75MOL    C5317961   6.744   1.579   2.273  0.7294 -0.0204  1.0313
   75MOL    H5417962   6.723   1.289   2.230  0.9056  0.7349  0.5490
   75MOL    H5517963   6.549   1.322   2.231  2.0083  1.5914  1.7790
   75MOL    H5617964   6.685   1.392   1.988 -0.0309 -0.3283 -0.0035
   75MOL    H5717965   6.782   1.596   2.055  0.8278  0.7735  1.0358
   75MOL    H5817966   6.855   1.465   2.134  0.0003 -2.0039 -0.9845
   75MOL    H5917967   6.721   1.494   2.338 -1.9849  0.5863  0.9196
   75MOL    H6017968   6.832   1.632   2.310 -0.4579  1.9509  1.0739
   75MOL    H6117969   6.667   1.655   2.282 -1.4945 -2.1145  0.3252
   75MOL    C6217970   6.522   1.517   2.044  0.3135 -0.0672  0.2902
   75MOL    C6317971   6.526   1.593   1.906 -0.4388  0.0329 -0.1125
   75MOL    C6417972   6.527   1.750   1.927  0.1062  0.6542 -0.6581
   75MOL    C6517973   6.558   1.829   1.796  0.3559  0.2569  0.0702
   75MOL    H6617974   6.486   1.585   2.122  0.3260 -0.0129  0.2493
   75MOL    H6717975   6.440   1.445   2.046  1.9640 -2.1208 -2.8480
   75MOL    H6817976   6.627   1.584   1.864 -0.5395 -0.6775 -0.2116
   75MOL    H6917977   6.602   1.775   2.002 -0.5272  1.3737 -0.2496
   75MOL    H7017978   6.433   1.785   1.971 -0.2524 -0.3456 -0.6108
   75MOL    H7117979   6.549   1.937   1.797 -1.0266  0.1509  0.9439
   75MOL    H7217980   6.664   1.811   1.775  0.3126  0.7095 -0.5470
   75MOL    H7317981   6.503   1.804   1.706 -0.6385  0.2042  0.6785
   75MOL    C7417982   6.415   1.551   1.815 -0.5439 -0.0826  0.6088
   75MOL    C7517983   6.433   1.421   1.740 -0.6657  0.5040 -0.3565
   75MOL    C7617984   6.568   1.414   1.658  0.6047 -0.2353  0.3598
   75MOL    C7717985   6.592   1.508   1.534  0.4830  0.0415 -0.2246
   75MOL    H7817986   6.388   1.625   1.740  0.8766 -0.4440 -0.2638
   75MOL    H7917987   6.321   1.548   1.871  0.4528  1.6230  2.4494
   75MOL    H8017988   6.453   1.340   1.810  2.4829  1.8794  0.4180
   75MOL    H8117989   6.575   1.311   1.622 -1.5607 -0.1030 -0.5118
   75MOL    H8217990   6.655   1.428   1.721  0.2231  4.2996 -0.0088
   75MOL    H8317991   6.687   1.494   1.483  1.2530  3.4169  0.1906
   75MOL    H8417992   6.502   1.490   1.475 -0.9790 -1.6421  2.4194
   75MOL    H8517993   6.595   1.611   1.569 -2.5593  0.5868 -1.4268
   75MOL    C8617994   6.305   1.370   1.667  0.1849  0.0163  0.3759
   75MOL    C8717995   6.280   1.219   1.620 -0.1416 -0.0974 -0.4447
   75MOL    C8817996   6.159   1.210   1.521  0.0582  0.6043 -0.6154
   75MOL    C8917997   6.189   1.264   1.386 -0.4727 -1.1773 -0.4459
   75MOL    H9017998   6.287   1.436   1.582 -0.1295 -0.7271 -0.1425
   75MOL    H9117999   6.220   1.392   1.731 -1.1522 -0.7288 -1.1210
   75MOL    H9218000   6.367   1.179   1.568  1.5276 -1.4514  3.1872
   75MOL    H9318001   6.081   1.273   1.563 -1.5193 -2.0781  0.5672
   75MOL    H9418002   6.127   1.106   1.512 -0.3676  0.6261  0.5898
   75MOL    H9518003   6.290   1.246   1.350  0.4160  3.5254 -0.7188
   75MOL    H9618004   6.115   1.228   1.315 -0.2223  1.5043 -2.1355
   75MOL    H9718005   6.180   1.372   1.373  1.9546 -1.2897 -3.6275
   75MOL    C9818006   6.256   1.133   1.746 -0.1108 -0.6002 -0.5078
   75MOL    C9918007   6.261   0.980   1.716 -0.2052 -0.3524  0.4808
   75MOL   C10018008   6.152   0.910   1.797  0.3305  0.0980  0.2074
   75MOL   C10118009   6.008   0.949   1.748  0.1453 -0.3984 -0.4194
   75MOL   H10218010   6.162   1.162   1.792 -0.0197 -1.6673  0.3776
   75MOL   H10318011   6.335   1.149   1.818  0.6353 -3.6712 -0.5765
   75MOL   H10418012   6.243   0.964   1.610  0.9705 -0.8053  0.3396
   75MOL   H10518013   6.146   0.937   1.902  0.6109 -1.7637  0.7092
   75MOL   H10618014   6.148   0.801   1.790 -0.5535 -0.0641  2.8763
   75MOL   H10718015   5.986   0.945   1.641  0.1225 -0.2397 -0.4215
   75MOL   H10818016   5.936   0.885   1.800 -0.0342 -1.7120 -2.2282
   75MOL   H10918017   5.996   1.052   1.781  2.5821 -0.1580 -0.2080
   75MOL   C11018018   6.405   0.923   1.753  0.9444  0.1275 -0.5057
   75MOL   C11118019   6.440   0.783   1.686 -0.1708 -0.3371 -0.7579
   75MOL   C11218020   6.574   0.720   1.733  0.2939  0.7127  0.3483
   75MOL   C11318021   6.567   0.672   1.876 -0.2692 -0.0261  0.5672
   75MOL   H11418022   6.421   0.939   1.860 -1.0273  0.2879 -0.2147
   75MOL   H11518023   6.484   0.988   1.717  3.7035 -2.3173  0.9518
   75MOL   H11618024   6.354   0.721   1.709 -0.1901  0.8538  2.5330
   75MOL   H11718025   6.654   0.793   1.718  0.8685  0.0814  0.3403
   75MOL   H11818026   6.602   0.636   1.669 -0.3022  2.1439 -1.8750
   75MOL   H11918027   6.475   0.614   1.880 -1.3311  1.4512 -1.3480
   75MOL   H12018028   6.653   0.607   1.889  0.0101 -0.0148 -1.1276
   75MOL   H12118029   6.573   0.759   1.942 -1.2725  1.3755 -1.1222
   75MOL   C12218030   6.438   0.796   1.532  0.3534 -0.4817  0.0421
   75MOL   C12318031   6.304   0.736   1.468  0.2300  0.0466  0.0088
   75MOL   C12418032   6.317   0.584   1.454  0.7165  0.5002 -0.3921
   75MOL   C12518033   6.326   0.504   1.585  0.3381  0.3245 -0.0185
   75MOL   H12618034   6.524   0.752   1.481  1.8050  0.3726  1.6984
   75MOL   H12718035   6.433   0.903   1.513 -0.2828 -0.7340 -1.2579
   75MOL   H12818036   6.214   0.752   1.527  0.6933  1.2731  0.3877
   75MOL   H12918037   6.406   0.550   1.402 -1.1987  0.1354 -3.5585
   75MOL   H13018038   6.225   0.554   1.405 -0.1351  1.4493  0.5959
   75MOL   H13118039   6.245   0.531   1.653  0.2057  1.7755 -0.7330
   75MOL   H13218040   6.324   0.397   1.565 -0.1574 -0.1777  2.5601
   75MOL   H13318041   6.426   0.524   1.626  0.9332  0.7631 -1.6567
   75MOL   C13418042   6.266   0.804   1.334 -0.8250  0.2478 -0.3237
   75MOL   C13518043   6.138   0.772   1.247  0.8226 -0.3839 -0.2516
   75MOL   C13618044   6.142   0.845   1.108 -0.6112  0.3500  0.2533
   75MOL   C13718045   6.042   0.785   1.010 -0.3206 -0.5379 -0.6003
   75MOL   H13818046   6.355   0.783   1.275 -1.0816 -2.1987  0.1141
   75MOL   H13918047   6.273   0.910   1.360 -1.7386  0.5917 -1.4022
   75MOL   H14018048   6.145   0.667   1.220 -1.6631 -0.1362 -2.0182
   75MOL   H14118049   6.242   0.847   1.064 -1.7619  0.1173 -2.5273
   75MOL   H14218050   6.110   0.949   1.122 -0.1737  0.4943  0.1809
   75MOL   H14318051   6.061   0.818   0.908 -1.6420  3.5020  0.4074
   75MOL   H14418052   6.045   0.676   1.003 -0.5652 -0.4682 -2.0642
   75MOL   H14518053   5.945   0.823   1.038  0.2638  2.0661 -1.9450
   75MOL   C14618054   6.009   0.797   1.326 -0.4118 -0.8597  0.5014
   75MOL   C14718055   5.919   0.676   1.361 -0.6930  0.0388  0.2172
   75MOL   C14818056   5.834   0.626   1.241  0.1833 -0.6971 -0.3079
   75MOL   C14918057   5.731   0.727   1.187  0.4787  0.0236 -0.7195
   75MOL   H15018058   5.963   0.880   1.273 -0.3930 -0.4306  1.1549
   75MOL   H15118059   6.042   0.855   1.412  2.3216  0.4016 -1.3489
   75MOL   H15218060   5.995   0.600   1.379 -0.4864  0.0790 -0.4540
   75MOL   H15318061   5.778   0.533   1.252  0.3161 -0.9306 -1.5226
   75MOL   H15418062   5.901   0.607   1.157  0.2532 -0.5247 -0.2911
   75MOL   H15518063   5.767   0.820   1.143  1.4890 -0.2165 -0.4030
   75MOL   H15618064   5.675   0.669   1.114 -0.4084  0.3317 -0.2905
   75MOL   H15718065   5.669   0.767   1.267  0.8421 -0.7502 -0.0446
   75MOL   C15818066   5.840   0.692   1.487 -0.0012 -0.6373  0.4394
   75MOL   C15918067   5.797   0.561   1.558 -0.4447  0.1974  0.2599
   75MOL   C16018068   5.669   0.571   1.639  0.5800 -0.0855  0.0890
   75MOL   C16118069   5.673   0.689   1.740 -0.2446 -0.1729  0.7182
   75MOL   H16218070   5.747   0.747   1.470  0.3983 -0.9324 -2.8950
   75MOL   H16318071   5.895   0.745   1.565 -2.9087 -0.3559  2.4039
   75MOL   H16418072   5.769   0.491   1.479 -0.4012  0.4140  0.0534
   75MOL   H16518073   5.636   0.479   1.688  0.9316 -0.7769 -0.9572
   75MOL   H16618074   5.581   0.588   1.576  0.1173 -0.6720  0.5689
   75MOL   H16718075   5.677   0.776   1.675 -1.2029 -1.4426 -1.0763
   75MOL   H16818076   5.585   0.719   1.798 -0.9619  1.6955 -1.2793
   75MOL   H16918077   5.767   0.681   1.795  0.5144 -0.5420 -0.6266
   75MOL   C17018078   5.908   0.498   1.641 -0.1528 -0.1777  0.3037
   75MOL   C17118079   5.899   0.343   1.676 -0.1541 -0.3357 -0.9370
   75MOL   C17218080   5.935   0.321   1.827 -0.0595 -0.6460 -0.1322
   75MOL   C17318081   6.085   0.350   1.867 -0.0908  0.1951 -0.0723
   75MOL   H17418082   5.921   0.556   1.733  1.0910 -0.2324  0.1733
   75MOL   H17518083   6.005   0.506   1.592  0.1838 -0.7556  0.8773
   75MOL   H17618084   5.795   0.310   1.674 -0.8353  1.5826  0.4286
   75MOL   H17718085   5.918   0.217   1.855  0.2669 -0.4906  0.6549
   75MOL   H17818086   5.863   0.372   1.891  0.7640 -1.8852  1.8368
   75MOL   H17918087   6.145   0.269   1.827  1.0258 -0.0282  1.9940
   75MOL   H18018088   6.105   0.450   1.829  0.1960 -0.2528 -1.1324
   75MOL   H18118089   6.078   0.346   1.975  0.1713 -0.4702 -0.0756
   75MOL   C18218090   5.983   0.255   1.579 -0.4245  0.6661  0.5699
   75MOL   C18318091   5.920   0.222   1.439  0.5717 -0.7291  0.6003
   75MOL   C18418092   5.777   0.174   1.442 -0.0413 -0.1806  0.0227
   75MOL   C18518093   5.760   0.055   1.541 -0.2281 -0.2922  0.5412
   75MOL   H18618094   6.015   0.165   1.632  2.9444  0.3036 -1.9352
   75MOL   H18718095   6.081   0.302   1.567 -0.3910  0.7600  1.1917
   75MOL   H18818096   5.914   0.316   1.383 -0.8013 -0.5119  1.1053
   75MOL   H18918097   5.732   0.157   1.344 -0.9707 -0.1190  0.4271
   75MOL   H19018098   5.715   0.257   1.477  1.1761  0.0599  1.6735
   75MOL   H19118099   5.656   0.020   1.542 -0.9114  1.6805  2.4837
   75MOL   H19218100   5.830   7.686   1.505 -0.4816  0.0994 -0.8158
   75MOL   H19318101   5.791   0.074   1.643  0.5654 -1.0088  0.4422
   75MOL   C19418102   6.013   0.124   1.354  0.5855 -0.1100 -0.1422
   75MOL   C19518103   6.144   0.187   1.295  0.0659  0.6478  0.3053
   75MOL   C19618104   6.112   0.268   1.164 -0.1433  0.2814 -0.0310
   75MOL   C19718105   6.235   0.363   1.127 -0.3033  0.5341  0.2704
   75MOL   H19818106   5.954   0.079   1.274  1.1990  1.2320 -1.3675
   75MOL   H19918107   6.028   0.049   1.432  2.1060  0.0147 -0.2978
   75MOL   H20018108   6.181   0.259   1.368 -1.6600  2.3197 -0.4393
   75MOL   H20118109   6.019   0.325   1.172  0.3919  0.9256  1.9256
   75MOL   H20218110   6.103   0.203   1.077 -1.2368  0.2944  0.0664
   75MOL   H20318111   6.322   0.299   1.109 -0.9776  0.2033 -2.0039
   75MOL   H20418112   6.219   0.421   1.036  0.6541  1.2523  0.5537
   75MOL   H20518113   6.264   0.425   1.212  2.4252  0.0240 -0.2442
   75MOL   C20618114   6.255   0.079   1.274 -0.0376 -0.0147  0.4618
   75MOL   C20718115   6.341   0.057   1.403  0.0277  0.5934 -0.3771
   75MOL   C20818116   6.443   0.173   1.417  0.2720  0.4998 -0.1492
   75MOL   C20918117   6.516   0.182   1.553 -0.1761  0.1040  0.4537
   75MOL   H21018118   6.325   0.111   1.196  1.2471  0.1679  1.6688
   75MOL   H21118119   6.214   7.695   1.230 -1.9953 -0.4205  3.0502
   75MOL   H21218120   6.284   0.057   1.496  0.3576 -2.1555 -0.1179
   75MOL   H21318121   6.389   0.267   1.409 -0.1370  0.4703  1.9208
   75MOL   H21418122   6.513   0.163   1.334 -0.9349  0.5609 -1.1695
   75MOL   H21518123   6.559   0.087   1.587 -1.1498 -1.0715 -1.5235
   75MOL   H21618124   6.592   0.259   1.537  0.1672 -0.6594 -1.7255
   75MOL   H21718125   6.457   0.219   1.636  0.3603  3.5688 -0.6054
   75MOL   C21818126   6.425   7.627   1.397 -0.3644  1.2922  0.7720
   75MOL   C21918127   6.334   7.495   1.376 -0.1554 -0.5979 -0.1231
   75MOL   C22018128   6.244   7.480   1.499  0.4651 -0.8950  0.0758
   75MOL   C22118129   6.162   7.341   1.507  0.2860 -0.4176  0.3373
   75MOL   H22218130   6.485   7.608   1.486  1.2119 -1.9922 -0.8858
   75MOL   H22318131   6.495   7.643   1.315 -0.5503  0.3552  0.4130
   75MOL   H22418132   6.265   7.515   1.294  1.3915  0.8791 -1.0956
   75MOL   H22518133   6.173   7.563   1.500  0.7024 -0.6913  0.4746
   75MOL   H22618134   6.307   7.493   1.587  2.8736 -0.7540 -1.6172
   75MOL   H22718135   6.113   7.343   1.604 -0.8821 -1.2467 -0.2393
   75MOL   H22818136   6.088   7.302   1.438 -1.0877  2.1162  0.2986
   75MOL   H22918137   6.242   7.267   1.520  0.4806 -0.0563  1.2305
   75MOL   C23018138   6.421   7.369   1.340  0.1033  0.1152  0.1934
   75MOL   C23118139   6.533   7.330   1.438 -0.2757  0.8710 -0.4999
   75MOL   C23218140   6.592   7.191   1.404 -0.2425  0.6279 -0.2888
   75MOL   C23318141   6.723   7.153   1.477  0.5171 -0.1068 -0.2442
   75MOL   H23418142   6.466   7.397   1.244 -1.1394  0.7880 -0.2136
   75MOL   H23518143   6.353   7.288   1.313  0.2988  0.7095 -2.2469
   75MOL   H23618144   6.606   7.410   1.450  0.8445 -0.4491  1.7300
   75MOL   H23718145   6.627   7.187   1.301 -0.7232 -0.0458 -0.4291
   75MOL   H23818146   6.527   7.104   1.417  1.1317 -0.4614 -0.4942
   75MOL   H23918147   6.753   7.055   1.441 -0.2762 -0.8662  1.1085
   75MOL   H24018148   6.807   7.222   1.477  1.5447 -1.3444 -0.6602
   75MOL   H24118149   6.701   7.138   1.583 -0.7649 -0.3589 -0.5296
   75MOL   H24218150   6.480   7.308   1.530 -0.2109  0.0647 -0.6551
   76MOL     C118151   0.298   3.401   1.941 -0.3777 -0.7366 -0.9326
   76MOL     C218152   0.452   3.420   1.942 -0.7010 -0.1653  0.2332
   76MOL     C318153   0.508   3.466   2.079 -0.5982 -0.0694  0.4909
   76MOL     C418154   0.462   3.603   2.139  0.3515 -0.3827 -0.3558
   76MOL     H518155   0.238   3.492   1.949 -0.3580 -0.8791  1.0341
   76MOL     H618156   0.269   3.369   1.841 -2.4672  1.5671 -1.0993
   76MOL     H718157   0.500   3.324   1.921 -1.8358 -0.8410  0.6717
   76MOL     H818158   0.617   3.468   2.076 -0.6259  1.1795  0.1620
   76MOL     H918159   0.489   3.392   2.156  0.7724 -2.4066 -1.3363
   76MOL    H1018160   0.354   3.608   2.156  0.5621  1.1862  0.5713
   76MOL    H1118161   0.521   3.627   2.227 -1.2259  0.6159  0.4611
   76MOL    H1218162   0.480   3.655   2.045 -1.4661  0.6912 -0.1396
   76MOL    H1318163   0.267   3.324   2.012  0.8739 -2.8254 -2.5669
   76MOL    C1418164   0.507   3.523   1.829  0.0124 -0.2780  0.7391
   76MOL    C1518165   0.491   3.476   1.687  0.1726 -0.2422  0.4460
   76MOL    C1618166   0.564   3.341   1.651 -0.1900  0.2051  0.0725
   76MOL    C1718167   0.717   3.351   1.678 -0.0722 -0.1854  0.5228
   76MOL    H1818168   0.610   3.552   1.847  0.4679 -1.4039 -0.0295
   76MOL    H1918169   0.450   3.616   1.826  0.5741  0.0078 -3.1587
   76MOL    H2018170   0.383   3.476   1.671  0.4560  1.7359 -1.7589
   76MOL    H2118171   0.551   3.319   1.545 -0.5972 -0.0730  0.1809
   76MOL    H2218172   0.516   3.255   1.697  0.6324 -0.1204  0.3263
   76MOL    H2318173   0.766   3.256   1.655 -1.8079 -0.7863 -0.8110
   76MOL    H2418174   0.768   3.435   1.630  0.3522 -0.6293  0.1907
   76MOL    H2518175   0.724   3.368   1.786 -1.5332  2.0780  0.3098
   76MOL    C2618176   0.527   3.586   1.578  0.5310  0.2576  0.5684
   76MOL    C2718177   0.502   3.564   1.431  0.7095 -0.2270  0.5488
   76MOL    C2818178   0.600   3.648   1.347  0.8790 -0.0646 -0.3075
   76MOL    C2918179   0.753   3.626   1.366  0.2219  0.4026  0.2036
   76MOL    H3018180   0.634   3.599   1.590  0.6030  0.3271 -0.0941
   76MOL    H3118181   0.482   3.682   1.603 -2.3432 -0.4440 -1.5336
   76MOL    H3218182   0.519   3.457   1.418 -0.6427 -0.3332 -0.5093
   76MOL    H3318183   0.588   3.754   1.367  1.0583 -0.1431  0.2430
   76MOL    H3418184   0.584   3.630   1.241  1.8882 -1.6340 -0.2138
   76MOL    H3518185   0.801   3.695   1.297  0.1938 -1.3660 -1.6702
   76MOL    H3618186   0.785   3.643   1.469 -0.9759  1.8657  0.3534
   76MOL    H3718187   0.771   3.521   1.342 -0.3570  0.6375 -1.3201
   76MOL    C3818188   0.355   3.592   1.393  0.2227 -0.6882  0.4314
   76MOL    C3918189   0.305   3.537   1.257  0.1790  0.9787 -0.0844
   76MOL    C4018190   0.210   3.639   1.184 -0.7576 -0.1527  0.0493
   76MOL    C4118191   0.094   3.653   1.275 -0.1812 -0.3666 -0.1608
   76MOL    H4218192   0.342   3.700   1.378 -0.3387 -0.9448 -1.0225
   76MOL    H4318193   0.291   3.552   1.471  0.4602  1.4523  1.7735
   76MOL    H4418194   0.394   3.531   1.194  0.0342 -0.0890 -0.1903
   76MOL    H4518195   0.180   3.593   1.090  2.3365 -1.1741 -0.4967
   76MOL    H4618196   0.253   3.738   1.164 -0.6038 -0.1347  0.4677
   76MOL    H4718197   0.123   3.701   1.368 -1.2696 -0.0752  0.0328
   76MOL    H4818198   0.019   3.722   1.237 -1.0640 -0.4725  1.3463
   76MOL    H4918199   0.037   3.562   1.295 -1.7288  0.4751 -0.5972
   76MOL    C5018200   0.236   3.395   1.264  0.0195  0.2049  0.0463
   76MOL    C5118201   0.314   3.270   1.306 -0.2980  0.2907 -0.6425
   76MOL    C5218202   0.415   3.231   1.194  0.0367 -0.8261  0.1115
   76MOL    C5318203   0.537   3.140   1.239  0.4283 -0.8756  0.1661
   76MOL    H5418204   0.185   3.389   1.168 -0.9703  2.0559  0.4420
   76MOL    H5518205   0.151   3.400   1.332 -0.0950  2.7268 -0.2539
   76MOL    H5618206   0.367   3.314   1.391 -0.8808 -0.6182  0.2005
   76MOL    H5718207   0.461   3.324   1.161 -0.9069  0.0207  1.1308
   76MOL    H5818208   0.368   3.191   1.104  1.4408 -0.8753 -0.6065
   76MOL    H5918209   0.538   3.129   1.347 -0.2654 -1.1028  0.1479
   76MOL    H6018210   0.533   3.035   1.210 -1.0315  0.0433 -3.2883
   76MOL    H6118211   0.635   3.178   1.211 -0.7313  0.9390 -1.5986
   76MOL    C6218212   0.233   3.155   1.371 -0.1731  0.0890  0.3518
   76MOL    C6318213   0.191   3.048   1.271  0.3304 -0.0324 -0.4590
   76MOL    C6418214   0.094   3.097   1.165  0.1629 -0.5367  0.7916
   76MOL    C6518215   7.661   3.127   1.217 -0.0229  0.6190 -0.3663
   76MOL    H6618216   0.150   3.189   1.432 -0.1394  2.0964 -0.6752
   76MOL    H6718217   0.302   3.102   1.437 -1.1903  0.8286  2.0547
   76MOL    H6818218   0.282   3.023   1.217 -0.7214 -0.3118 -2.1497
   76MOL    H6918219   0.083   3.009   1.101 -0.4050  1.2056 -1.5501
   76MOL    H7018220   0.136   3.183   1.113 -0.0826  0.0461  1.5467
   76MOL    H7118221   7.663   3.203   1.295  1.6212  0.1821  0.0269
   76MOL    H7218222   7.597   3.168   1.139  0.9688  0.2199 -1.4148
   76MOL    H7318223   7.612   3.040   1.263  1.2534  0.3552  0.5292
   76MOL    C7418224   0.141   2.911   1.338 -0.3592 -1.3761  0.0787
   76MOL    C7518225   0.142   2.785   1.250 -0.1195 -0.3014 -0.0056
   76MOL    C7618226   7.700   2.746   1.205 -0.4920 -0.1159 -0.0138
   76MOL    C7718227   7.601   2.697   1.306  0.2193  0.0140 -0.5965
   76MOL    H7818228   0.052   2.913   1.401  0.4507  2.4479  1.2098
   76MOL    H7918229   0.215   2.888   1.415 -2.8062  0.5665  3.1489
   76MOL    H8018230   0.203   2.800   1.161 -0.1704 -2.1484 -0.3583
   76MOL    H8118231   7.698   2.671   1.126 -1.4262 -0.4025  0.2804
   76MOL    H8218232   7.657   2.832   1.153  0.4466  0.5175  0.2357
   76MOL    H8318233   7.496   2.709   1.279  0.0361 -1.8281 -0.8052
   76MOL    H8418234   7.624   2.602   1.354  0.1075 -0.1184 -0.8012
   76MOL    H8518235   7.608   2.767   1.389 -0.4091 -0.1492 -0.4057
   76MOL    C8618236   0.198   2.654   1.325 -0.6620 -0.3980  0.0913
   76MOL    C8718237   0.346   2.647   1.361  0.5244  0.1549 -0.3501
   76MOL    C8818238   0.440   2.654   1.244 -0.6685  0.4158 -0.1566
   76MOL    C8918239   0.593   2.671   1.282  0.1610  0.2455  0.1296
   76MOL    H9018240   0.176   2.577   1.251  1.1826 -0.6128 -0.2578
   76MOL    H9118241   0.136   2.627   1.410 -1.4609  0.0430 -0.3502
   76MOL    H9218242   0.374   2.734   1.420 -0.5886  1.0949 -1.1972
   76MOL    H9318243   0.409   2.731   1.173 -0.7701  0.4673 -0.0557
   76MOL    H9418244   0.433   2.562   1.186 -1.3664  0.4068 -0.0637
   76MOL    H9518245   0.617   2.761   1.338  0.2117 -0.3271  1.0420
   76MOL    H9618246   0.623   2.579   1.334 -0.2821  0.8637  1.4964
   76MOL    H9718247   0.663   2.685   1.200  1.3461 -0.1942  1.0398
   76MOL    C9818248   0.386   2.513   1.432 -0.5616  0.5764 -0.0917
   76MOL    C9918249   0.419   2.531   1.583 -0.4270 -0.1625 -0.2097
   76MOL   C10018250   0.513   2.418   1.630  0.1503  0.5077  0.2161
   76MOL   C10118251   0.653   2.415   1.568  0.5208 -0.5055  1.1538
   76MOL   H10218252   0.458   2.455   1.374  1.4983  1.8196  1.1633
   76MOL   H10318253   0.305   2.440   1.429  0.1123 -0.1631 -3.8215
   76MOL   H10418254   0.478   2.619   1.609 -0.9196  0.1376 -0.0802
   76MOL   H10518255   0.469   2.319   1.615 -1.5442  1.2352  0.2924
   76MOL   H10618256   0.530   2.433   1.737  1.1720 -0.6791  0.2227
   76MOL   H10718257   0.650   2.415   1.459 -2.9873  0.1513  1.1945
   76MOL   H10818258   0.715   2.496   1.606  2.3994 -0.0082 -2.7074
   76MOL   H10918259   0.706   2.322   1.590  0.1339 -1.3043 -1.1758
   76MOL   C11018260   0.294   2.539   1.672  0.4683 -0.3059  0.4699
   76MOL   C11118261   0.317   2.573   1.827 -1.0639  0.7397  0.4402
   76MOL   C11218262   0.179   2.557   1.899  0.0328  0.1646 -0.3838
   76MOL   C11318263   0.177   2.475   2.030 -0.3704  0.5569 -0.0315
   76MOL   H11418264   0.250   2.439   1.676  0.9331 -0.5389 -0.0568
   76MOL   H11518265   0.219   2.603   1.626 -0.5098 -2.5051 -1.0647
   76MOL   H11618266   0.388   2.503   1.871  1.0823  1.1371 -2.2708
   76MOL   H11718267   0.121   2.496   1.829  0.6130 -0.3362 -0.4319
   76MOL   H11818268   0.126   2.652   1.905  1.6117  0.9693  1.1092
   76MOL   H11918269   0.250   2.507   2.105  0.4644  1.1504 -1.0841
   76MOL   H12018270   0.085   2.465   2.087 -0.0056  0.5629  0.5625
   76MOL   H12118271   0.208   2.373   2.007 -0.1855  1.0671 -2.1472
   76MOL   C12218272   0.378   2.720   1.846 -0.3993  0.0430 -0.2545
   76MOL   C12318273   0.384   2.778   1.990  0.4475 -0.7934  0.0352
   76MOL   C12418274   0.408   2.925   1.967 -0.6101 -0.2455  0.2047
   76MOL   C12518275   0.301   3.004   1.889 -0.0990 -0.3388  0.1454
   76MOL   H12618276   0.328   2.783   1.773 -2.4536 -2.2542 -0.9062
   76MOL   H12718277   0.478   2.725   1.804 -0.8402  1.1632 -1.1975
   76MOL   H12818278   0.283   2.761   2.029 -0.9014  3.0044 -1.5211
   76MOL   H12918279   0.502   2.945   1.915  1.2506 -1.1504  3.1004
   76MOL   H13018280   0.407   2.974   2.064  0.9655 -0.8593  0.5410
   76MOL   H13118281   0.302   3.109   1.919  1.6015 -0.6682  1.3088
   76MOL   H13218282   0.322   3.001   1.782  0.1132  1.4523  0.1225
   76MOL   H13318283   0.198   2.973   1.908  0.4031 -1.2781  1.4126
   76MOL   C13418284   0.488   2.716   2.074  0.2628  0.1771  1.0836
   76MOL   C13518285   0.507   2.770   2.217  0.7364  0.9647  0.9768
   76MOL   C13618286   0.619   2.695   2.293  0.5464  0.2908  0.2723
   76MOL   C13718287   0.747   2.779   2.277  0.4663  0.4164 -0.4153
   76MOL   H13818288   0.577   2.736   2.014 -1.1312 -1.3845 -1.6037
   76MOL   H13918289   0.485   2.607   2.084  1.0794  0.1047  0.5894
   76MOL   H14018290   0.538   2.875   2.213  0.0710  1.1170 -0.4334
   76MOL   H14118291   0.632   2.590   2.263  0.6994  0.8134 -1.5738
   76MOL   H14218292   0.591   2.684   2.397 -0.5795 -2.5029 -0.2552
   76MOL   H14318293   0.831   2.717   2.308 -0.6262 -0.9015 -0.0041
   76MOL   H14418294   0.766   2.805   2.173  0.7002  1.2060 -0.1767
   76MOL   H14518295   0.753   2.870   2.336  0.5992 -0.3082  0.7092
   76MOL   C14618296   0.371   2.770   2.299  0.2806  0.2058  0.2723
   76MOL   C14718297   0.377   2.865   2.414  0.4092  0.5107 -0.0753
   76MOL   C14818298   0.308   2.797   2.535 -0.2679  0.5184 -0.0628
   76MOL   C14918299   0.155   2.764   2.530 -0.0873  0.1082  0.0472
   76MOL   H15018300   0.349   2.668   2.331 -2.2948  1.0623  1.3102
   76MOL   H15118301   0.287   2.794   2.234  1.1137 -0.6234 -1.1364
   76MOL   H15218302   0.477   2.894   2.446 -0.0825  1.9017  0.2520
   76MOL   H15318303   0.329   2.866   2.617 -0.2055 -0.5471  0.8355
   76MOL   H15418304   0.357   2.704   2.564  1.8224  1.5686 -0.1767
   76MOL   H15518305   0.126   2.701   2.446  1.0004 -0.5436  0.1439
   76MOL   H15618306   0.106   2.719   2.617 -2.6021  1.0385 -0.8318
   76MOL   H15718307   0.096   2.855   2.521 -3.4389 -2.0802 -1.1465
   76MOL   C15818308   0.313   2.999   2.368 -0.3873 -0.0842 -0.3907
   76MOL   C15918309   0.317   3.113   2.476  0.8018  0.0608  0.7715
   76MOL   C16018310   0.216   3.224   2.427  0.1035  0.0169  0.2661
   76MOL   C16118311   0.259   3.308   2.305 -0.0985  0.0388 -0.3454
   76MOL   H16218312   0.214   2.980   2.327  0.3108 -3.4400 -0.7438
   76MOL   H16318313   0.367   3.030   2.278 -0.6568  1.1661 -0.1215
   76MOL   H16418314   0.271   3.080   2.569 -2.2281 -2.3860 -1.4783
   76MOL   H16518315   0.188   3.277   2.518 -0.0269 -0.1538  0.3242
   76MOL   H16618316   0.114   3.192   2.408  0.4590 -0.4717 -0.8843
   76MOL   H16718317   0.176   3.366   2.265  1.4536  1.8557 -0.9810
   76MOL   H16818318   0.342   3.378   2.320  0.8416 -0.8643 -1.2347
   76MOL   H16918319   0.290   3.244   2.222  0.0413  0.9412 -0.9976
   76MOL   C17018320   0.456   3.162   2.510  0.3640 -0.0159  0.1972
   76MOL   C17118321   0.469   3.276   2.615  0.4541  0.7163 -0.5378
   76MOL   C17218322   0.603   3.349   2.602 -0.3711  0.0465  0.4125
   76MOL   C17318323   0.737   3.269   2.614  0.0583 -0.4930 -0.0398
   76MOL   H17418324   0.491   3.195   2.412 -0.3048  0.2642  0.0483
   76MOL   H17518325   0.527   3.083   2.535 -2.3302 -2.4575  0.4829
   76MOL   H17618326   0.397   3.352   2.586  0.0254  1.1352  1.5768
   76MOL   H17718327   0.601   3.436   2.668 -0.1136  1.4994 -1.4679
   76MOL   H17818328   0.603   3.376   2.497 -2.1057  0.9871  0.6400
   76MOL   H17918329   0.727   3.182   2.550  1.7410 -0.9093  0.2413
   76MOL   H18018330   0.823   3.327   2.581 -0.2064 -1.1328 -1.8864
   76MOL   H18118331   0.743   3.233   2.717 -1.1676 -2.0319 -0.4880
   76MOL   C18218332   0.448   3.247   2.766 -0.2574  0.3549 -0.2200
   76MOL   C18318333   0.352   3.338   2.836 -0.2253  0.0972  0.1884
   76MOL   C18418334   0.395   3.489   2.829 -0.4131 -0.2518  0.7144
   76MOL   C18518335   0.317   3.580   2.931  0.2129  0.2232  0.7762
   76MOL   H18618336   0.539   3.254   2.826 -1.0917 -0.4110  1.1567
   76MOL   H18718337   0.416   3.145   2.785  1.0151 -0.1547 -0.7792
   76MOL   H18818338   0.258   3.338   2.779  0.3723 -0.3133 -0.8092
   76MOL   H18918339   0.375   3.533   2.732 -0.3287  1.0802  1.2927
   76MOL   H19018340   0.502   3.499   2.846 -0.2034  1.4898 -1.3989
   76MOL   H19118341   0.331   3.536   3.029 -1.4734 -1.1036  0.4596
   76MOL   H19218342   0.337   3.687   2.937  0.2631  0.3475 -1.1704
   76MOL   H19318343   0.209   3.581   2.916  0.4311  3.2647 -0.8520
   76MOL   C19418344   0.319   3.290   2.975  0.3096  0.3023  0.2469
   76MOL   C19518345   0.294   3.143   3.005 -0.0881 -0.4761 -0.3927
   76MOL   C19618346   0.176   3.084   2.918  0.8799 -0.6372 -0.2906
   76MOL   C19718347   0.188   2.928   2.883  0.2201  0.6391 -0.6454
   76MOL   H19818348   0.229   3.335   3.016  0.6407 -0.5681  2.0118
   76MOL   H19918349   0.405   3.318   3.036  1.2903  2.6444 -2.1534
   76MOL   H20018350   0.387   3.091   2.982  0.3721  0.2962 -0.2782
   76MOL   H20118351   0.179   3.134   2.821 -0.8020 -1.3059 -0.7077
   76MOL   H20218352   0.075   3.096   2.958  1.0718  0.0635 -0.0101
   76MOL   H20318353   0.294   2.903   2.876  0.4303  1.5393 -0.7914
   76MOL   H20418354   0.133   2.869   2.957  1.0432  2.1652  1.2502
   76MOL   H20518355   0.131   2.917   2.791 -0.8047  0.9183 -0.0545
   76MOL   C20618356   0.268   3.126   3.157  0.0268 -0.3536  0.1354
   76MOL   C20718357   0.273   2.977   3.205 -0.2732  0.4078  0.7018
   76MOL   C20818358   0.197   2.957   3.343 -0.2047 -0.1294  0.2580
   76MOL   C20918359   0.041   2.957   3.345 -0.2121  0.0395  0.6027
   76MOL   H21018360   0.179   3.179   3.192  0.8291  1.5137 -0.5847
   76MOL   H21118361   0.347   3.176   3.213 -1.6023  0.8044  1.4345
   76MOL   H21218362   0.223   2.914   3.131  0.6186  2.6544 -1.8948
   76MOL   H21318363   0.224   3.031   3.417 -1.9894  2.2114 -1.3528
   76MOL   H21418364   0.230   2.861   3.382 -0.7565 -0.9971 -1.3419
   76MOL   H21518365   0.003   2.926   3.442 -2.8787 -0.0655 -0.4400
   76MOL   H21618366   7.696   3.052   3.328 -3.4938 -1.9280 -1.1115
   76MOL   H21718367   0.013   2.869   3.288 -1.0142  1.1647 -0.7718
   76MOL   C21818368   0.417   2.930   3.218  0.1020  0.2325  0.4596
   76MOL   C21918369   0.432   2.771   3.246 -0.4143 -0.1725  0.2334
   76MOL   C22018370   0.574   2.727   3.264  0.8766  0.4669 -0.0739
   76MOL   C22118371   0.659   2.793   3.378  0.2580  0.3632  0.4554
   76MOL   H22218372   0.468   2.991   3.292 -0.4585  1.0798  0.1457
   76MOL   H22318373   0.473   2.960   3.129  1.4436  1.4789  1.7109
   76MOL   H22418374   0.390   2.751   3.345  0.8739 -1.3874  0.5455
   76MOL   H22518375   0.628   2.748   3.172  0.5687 -2.2159 -0.9059
   76MOL   H22618376   0.580   2.620   3.280 -1.2900  0.5668  1.7230
   76MOL   H22718377   0.766   2.772   3.366  0.4259  1.4245  0.0091
   76MOL   H22818378   0.649   2.902   3.377 -2.0639  0.1556 -0.7876
   76MOL   H22918379   0.613   2.753   3.468 -0.4524  1.8274  0.7600
   76MOL   C23018380   0.351   2.684   3.143  0.7573  0.5969 -0.6153
   76MOL   C23118381   0.425   2.665   3.003  0.0135 -0.1258  0.0891
   76MOL   C23218382   0.348   2.598   2.897 -0.7861 -0.2409 -0.1061
   76MOL   C23318383   0.307   2.457   2.921 -0.3886  0.3398 -0.3066
   76MOL   H23418384   0.244   2.706   3.138  0.3585 -0.9447  0.7927
   76MOL   H23518385   0.353   2.590   3.197  1.1938  0.3866 -0.9921
   76MOL   H23618386   0.451   2.759   2.953  1.6217  0.1090  1.3321
   76MOL   H23718387   0.408   2.603   2.806 -0.1124 -1.0303  0.2816
   76MOL   H23818388   0.266   2.648   2.845 -1.0117 -1.3677 -0.8560
   76MOL   H23918389   0.238   2.444   3.005 -0.3723 -1.4387 -0.5396
   76MOL   H24018390   0.253   2.420   2.834 -0.2707  1.8178 -1.0236
   76MOL   H24118391   0.385   2.383   2.937 -0.6604  0.1655  0.2617
   76MOL   H24218392   0.517   2.611   3.025 -0.6175 -0.8201  1.0525
   77MOL     C118393   5.178   2.245   2.581  0.1933 -0.8938  0.0395
   77MOL     C218394   5.166   2.119   2.487 -0.5005 -0.2699  0.3388
   77MOL     C318395   5.141   1.986   2.557 -0.7008  0.1356  0.3581
   77MOL     C418396   4.994   1.976   2.598  0.4176 -0.0298  0.2943
   77MOL     H518397   5.083   2.288   2.612  1.8517  3.0005  0.0703
   77MOL     H618398   5.230   2.226   2.675 -1.4753 -2.1271  0.7247
   77MOL     H718399   5.086   2.144   2.417  0.7814 -1.7032 -1.6998
   77MOL     H818400   5.218   1.974   2.633  0.5935 -3.9154 -1.4530
   77MOL     H918401   5.146   1.913   2.476  0.0945  0.1299  0.4077
   77MOL    H1018402   4.932   1.987   2.509  0.1090 -0.3605  0.4709
   77MOL    H1118403   4.967   1.882   2.645 -0.9785  0.4170  0.4138
   77MOL    H1218404   4.971   2.054   2.670  1.0760  0.6256 -0.1914
   77MOL    H1318405   5.234   2.324   2.531  0.9700 -1.6345 -0.2914
   77MOL    C1418406   5.297   2.107   2.392 -0.3943 -0.0185 -0.1182
   77MOL    C1518407   5.308   2.211   2.283 -0.0012  0.3301  0.5528
   77MOL    C1618408   5.220   2.165   2.156  0.3799  0.9333  0.1515
   77MOL    C1718409   5.173   2.287   2.067  0.2271  0.1771  0.0260
   77MOL    H1818410   5.317   2.006   2.356 -0.2162  1.2485 -3.8068
   77MOL    H1918411   5.379   2.115   2.463  0.9830 -0.7332 -1.6034
   77MOL    H2018412   5.263   2.301   2.324 -1.8179 -1.2938  2.2361
   77MOL    H2118413   5.133   2.116   2.201  1.5367 -0.9451  0.3565
   77MOL    H2218414   5.260   2.089   2.090 -0.4154  0.8003 -0.1841
   77MOL    H2318415   5.229   2.291   1.973  0.1868 -0.7778 -0.0380
   77MOL    H2418416   5.077   2.273   2.018 -0.5361 -1.5108  1.9819
   77MOL    H2518417   5.177   2.387   2.110 -1.6221  0.3042 -0.0547
   77MOL    C2618418   5.458   2.231   2.252 -0.2066 -0.2236  1.1690
   77MOL    C2718419   5.488   2.367   2.179 -0.0439 -0.1703 -0.2926
   77MOL    C2818420   5.534   2.346   2.031 -0.4926 -0.4012  0.1368
   77MOL    C2918421   5.510   2.457   1.925 -0.6552 -0.2308 -0.7626
   77MOL    H3018422   5.504   2.147   2.199 -0.9050  0.5846 -0.7848
   77MOL    H3118423   5.512   2.230   2.346 -0.2619  3.4305  1.3280
   77MOL    H3218424   5.407   2.439   2.166 -0.5603 -0.5490  0.8200
   77MOL    H3318425   5.467   2.268   1.994 -0.0084 -1.4510  1.4484
   77MOL    H3418426   5.631   2.298   2.039 -1.0891 -1.4770  1.1495
   77MOL    H3518427   5.567   2.431   1.836  1.2265 -0.6306  0.5163
   77MOL    H3618428   5.404   2.465   1.899 -1.6044 -0.4186  2.7803
   77MOL    H3718429   5.544   2.554   1.961  2.4698 -1.3487 -0.5736
   77MOL    C3818430   5.589   2.451   2.266 -0.1685  0.9556 -0.3089
   77MOL    C3918431   5.510   2.526   2.378  0.0298  0.1463 -0.2838
   77MOL    C4018432   5.461   2.667   2.337  0.4657 -0.7723  0.2104
   77MOL    C4118433   5.351   2.727   2.428  0.1939 -0.6634 -0.0114
   77MOL    H4218434   5.648   2.518   2.204  1.6788  0.7449  1.1931
   77MOL    H4318435   5.671   2.392   2.308 -0.9540 -0.7759 -1.1264
   77MOL    H4418436   5.416   2.473   2.395  1.4451 -1.5828  2.3671
   77MOL    H4518437   5.427   2.670   2.233 -1.3114  0.5597  0.8035
   77MOL    H4618438   5.549   2.732   2.333 -0.0189 -0.1975 -1.9067
   77MOL    H4718439   5.327   2.830   2.404  0.6824 -0.1981  1.4046
   77MOL    H4818440   5.252   2.682   2.416 -0.3378  0.7768 -1.0801
   77MOL    H4918441   5.378   2.717   2.533 -0.4391 -1.4957  0.0776
   77MOL    C5018442   5.591   2.535   2.516  0.1572  0.7301 -0.8093
   77MOL    C5118443   5.638   2.404   2.590 -0.2107 -0.0721  0.0021
   77MOL    C5218444   5.525   2.332   2.664 -0.5110 -0.0845  0.0627
   77MOL    C5318445   5.463   2.401   2.788 -0.0847  0.1200  0.1358
   77MOL    H5418446   5.542   2.599   2.590  1.0395  1.5054 -0.8793
   77MOL    H5518447   5.679   2.592   2.485  1.0028 -0.2409 -0.2029
   77MOL    H5618448   5.670   2.334   2.513  0.2694 -0.0688  0.1970
   77MOL    H5718449   5.556   2.233   2.698 -1.0135 -0.1841  0.2318
   77MOL    H5818450   5.460   2.305   2.582 -1.8881  2.0846  0.4115
   77MOL    H5918451   5.525   2.480   2.830 -0.7615  0.4823  0.4748
   77MOL    H6018452   5.370   2.446   2.752  0.4571  1.0511 -0.1016
   77MOL    H6118453   5.452   2.327   2.867 -0.7257  0.4764  0.3888
   77MOL    C6218454   5.773   2.436   2.668  0.4211  0.8706 -0.2447
   77MOL    C6318455   5.854   2.309   2.712 -1.2208  0.3542 -1.0643
   77MOL    C6418456   5.863   2.289   2.860  0.0243 -0.0947  0.4239
   77MOL    C6518457   5.739   2.270   2.937 -0.7174  0.3141 -0.3107
   77MOL    H6618458   5.747   2.496   2.755 -0.6579 -0.7107  0.5543
   77MOL    H6718459   5.847   2.501   2.621  2.2338 -0.6382  0.4697
   77MOL    H6818460   5.801   2.228   2.662  1.8861 -2.6988  0.4383
   77MOL    H6918461   5.931   2.362   2.904  1.6955 -1.5441  0.3044
   77MOL    H7018462   5.916   2.197   2.886  0.7271  0.2617  0.2580
   77MOL    H7118463   5.671   2.355   2.950 -1.6895  0.3241 -4.8475
   77MOL    H7218464   5.674   2.194   2.894  1.4811 -1.4616 -0.5469
   77MOL    H7318465   5.766   2.239   3.038  0.2287 -1.2780 -1.0362
   77MOL    C7418466   5.995   2.311   2.659 -0.3213  1.0082 -0.7319
   77MOL    C7518467   6.016   2.307   2.504 -0.2590 -0.2760  0.7127
   77MOL    C7618468   5.965   2.173   2.443  0.0819  0.4928  0.1310
   77MOL    C7718469   5.956   2.156   2.291  0.2782  0.4029  0.8704
   77MOL    H7818470   6.052   2.233   2.709  2.6353  1.2968 -3.4338
   77MOL    H7918471   6.043   2.405   2.685 -0.1802  0.6212  0.4460
   77MOL    H8018472   5.952   2.384   2.462 -2.0961 -0.7295  2.6328
   77MOL    H8118473   5.864   2.160   2.482  0.6563 -0.5384  1.2635
   77MOL    H8218474   6.020   2.085   2.475  0.5583  1.6465  2.5462
   77MOL    H8318475   5.890   2.235   2.255 -0.4409  0.1491  1.6273
   77MOL    H8418476   6.049   2.158   2.233 -0.7523 -0.6991 -0.8651
   77MOL    H8518477   5.902   2.069   2.253  0.0809  1.7180 -2.0517
   77MOL    C8618478   6.161   2.339   2.466 -0.0257 -0.0716  0.2394
   77MOL    C8718479   6.177   2.493   2.412 -0.3168  0.3141 -0.2302
   77MOL    C8818480   6.115   2.528   2.275 -0.2645  0.0181  0.2521
   77MOL    C8918481   6.068   2.674   2.268  0.1937 -0.0129  0.1804
   77MOL    H9018482   6.211   2.283   2.386  3.1315  0.2401  1.9240
   77MOL    H9118483   6.240   2.329   2.540 -0.8050 -4.4869  0.6017
   77MOL    H9218484   6.128   2.560   2.483 -2.1370 -0.3118 -0.8704
   77MOL    H9318485   6.033   2.460   2.251  0.0058 -0.7489  1.4299
   77MOL    H9418486   6.193   2.513   2.201 -0.5592 -1.3632  0.2058
   77MOL    H9518487   5.993   2.687   2.346 -0.1889  0.3822 -0.2510
   77MOL    H9618488   6.152   2.743   2.279  0.3024 -0.2088  0.6024
   77MOL    H9718489   6.014   2.680   2.173  2.3041 -0.8628 -1.1287
   77MOL    C9818490   6.331   2.530   2.414 -0.0706  0.5761  0.5227
   77MOL    C9918491   6.394   2.569   2.556 -0.2095  0.0897 -0.3522
   77MOL   C10018492   6.389   2.720   2.584 -0.0011  0.5412  0.3586
   77MOL   C10118493   6.262   2.803   2.565 -0.2761 -0.0689 -0.0309
   77MOL   H10218494   6.371   2.603   2.344  3.2693 -0.4933  1.2368
   77MOL   H10318495   6.381   2.437   2.385 -1.6206 -0.6413  1.6347
   77MOL   H10418496   6.338   2.512   2.630  0.6665 -0.9074 -0.4316
   77MOL   H10518497   6.467   2.768   2.525 -2.7014  1.7970 -2.3161
   77MOL   H10618498   6.407   2.734   2.690 -1.9096  0.3875  0.7347
   77MOL   H10718499   6.185   2.767   2.632  0.2530 -1.2349 -0.0403
   77MOL   H10818500   6.287   2.907   2.584 -0.2438  0.0667 -0.7828
   77MOL   H10918501   6.240   2.788   2.459 -0.5527  2.4495 -0.3559
   77MOL   C11018502   6.536   2.506   2.563 -0.3442  0.1624 -0.0866
   77MOL   C11118503   6.604   2.511   2.706 -0.2994 -0.7378  0.1745
   77MOL   C11218504   6.759   2.497   2.705  0.8565  0.3888  0.0034
   77MOL   C11318505   6.824   2.613   2.624 -0.2567  0.7848 -1.0161
   77MOL   H11418506   6.595   2.555   2.485 -1.1022  0.5410 -0.4333
   77MOL   H11518507   6.533   2.398   2.544 -0.1403 -0.1861  1.7573
   77MOL   H11618508   6.599   2.611   2.749 -0.9286 -0.6090 -0.1980
   77MOL   H11718509   6.787   2.399   2.666 -2.5793 -0.7592  0.2577
   77MOL   H11818510   6.801   2.505   2.805 -0.9582 -0.6518  0.8741
   77MOL   H11918511   6.788   2.708   2.663 -1.6950 -0.4955  0.8636
   77MOL   H12018512   6.931   2.595   2.637 -0.7975 -2.0284 -0.1408
   77MOL   H12118513   6.795   2.615   2.519 -1.3674 -2.1691 -0.8179
   77MOL   C12218514   6.542   2.415   2.804  0.0825 -0.2849  0.1944
   77MOL   C12318515   6.565   2.439   2.955 -0.7150 -0.4013  0.7477
   77MOL   C12418516   6.540   2.317   3.044  0.1285 -0.2678  0.0026
   77MOL   C12518517   6.638   2.203   3.012  0.2193 -0.4976 -0.1959
   77MOL   H12618518   6.581   2.315   2.784  2.3275  0.4925  0.5836
   77MOL   H12718519   6.435   2.402   2.785 -0.2866  2.1625  0.4774
   77MOL   H12818520   6.665   2.483   2.956 -0.4703 -0.8725 -0.8541
   77MOL   H12918521   6.439   2.277   3.031  0.9761 -3.2736  2.1361
   77MOL   H13018522   6.552   2.348   3.148 -3.0016 -2.1669  1.0094
   77MOL   H13118523   6.655   2.140   3.099 -1.5155 -0.9153 -0.1558
   77MOL   H13218524   6.609   2.132   2.935  1.0236  0.2233 -1.1884
   77MOL   H13318525   6.738   2.240   2.986 -0.0733  1.9118  1.9572
   77MOL   C13418526   6.459   2.545   2.995  0.2295 -0.1730 -0.0903
   77MOL   C13518527   6.483   2.620   3.126 -0.5186 -0.8068 -0.2637
   77MOL   C13618528   6.357   2.703   3.166  0.7197  0.9269 -0.4214
   77MOL   C13718529   6.315   2.820   3.080 -0.2580 -0.1834  0.7054
   77MOL   H13818530   6.361   2.498   3.003  0.5046 -0.7102  0.1401
   77MOL   H13918531   6.459   2.616   2.912  0.5835  1.6398  1.4245
   77MOL   H14018532   6.510   2.547   3.202 -0.9157  1.6945  2.3331
   77MOL   H14118533   6.373   2.739   3.267 -4.1960 -0.2108  0.9188
   77MOL   H14218534   6.279   2.628   3.179  2.6220 -0.5412  2.9959
   77MOL   H14318535   6.295   2.787   2.979  0.6578 -0.6197  0.6656
   77MOL   H14418536   6.237   2.873   3.135  1.3280  0.5184  2.3377
   77MOL   H14518537   6.396   2.893   3.080  1.2369 -1.7911 -0.3236
   77MOL   C14618538   6.615   2.710   3.122  0.2775  0.2761  0.0342
   77MOL   C14718539   6.670   2.742   3.259 -0.4859 -0.2168 -0.2294
   77MOL   C14818540   6.749   2.872   3.264 -0.0335  0.6767 -0.4675
   77MOL   C14918541   6.870   2.881   3.165 -0.3700  0.2135 -0.2919
   77MOL   H15018542   6.601   2.806   3.072 -0.7438  0.8584  1.4171
   77MOL   H15118543   6.699   2.664   3.071  0.5057  0.7612 -0.0359
   77MOL   H15218544   6.582   2.765   3.320 -1.6366 -0.6916 -1.6888
   77MOL   H15318545   6.789   2.875   3.365 -0.8877  2.3004 -0.1577
   77MOL   H15418546   6.690   2.962   3.250 -0.6667  0.2921 -0.2526
   77MOL   H15518547   6.844   2.889   3.059 -0.8020  0.5393 -0.1635
   77MOL   H15618548   6.937   2.965   3.183  0.4754 -0.0130 -2.2348
   77MOL   H15718549   6.930   2.791   3.176  0.7025  1.1661  1.8404
   77MOL   C15818550   6.751   2.619   3.308  0.2722 -0.0099 -0.2102
   77MOL   C15918551   6.785   2.615   3.458 -0.4919  0.1993 -0.6457
   77MOL   C16018552   6.935   2.597   3.485  0.0055 -0.5817 -0.5160
   77MOL   C16118553   6.983   2.453   3.467 -0.8287  0.0232 -0.2137
   77MOL   H16218554   6.852   2.614   3.268  0.0748 -0.6243 -0.6494
   77MOL   H16318555   6.702   2.524   3.284  0.9898 -1.2519  3.0507
   77MOL   H16418556   6.767   2.708   3.513 -0.9433 -0.8176  0.9537
   77MOL   H16518557   6.944   2.618   3.591  2.6047 -1.9408 -0.4273
   77MOL   H16618558   7.003   2.669   3.439  0.3000  0.3022  1.2572
   77MOL   H16718559   6.939   2.392   3.546  1.6934  1.8137  2.6879
   77MOL   H16818560   6.944   2.414   3.373  1.6973 -2.0158 -0.4598
   77MOL   H16918561   7.092   2.444   3.466 -0.8882 -1.1698  1.8723
   77MOL   C17018562   6.698   2.508   3.521  0.0375 -0.7326  0.4353
   77MOL   C17118563   6.552   2.546   3.560  0.2200  0.0520 -0.0657
   77MOL   C17218564   6.546   2.638   3.674  0.1335 -0.7780 -0.1890
   77MOL   C17318565   6.411   2.711   3.703  0.5222  0.6028 -0.3551
   77MOL   H17418566   6.745   2.483   3.616 -0.2104 -1.5788  0.3431
   77MOL   H17518567   6.711   2.415   3.465 -0.6732 -0.9207  0.5702
   77MOL   H17618568   6.508   2.599   3.476 -0.0181 -1.1423 -0.7093
   77MOL   H17718569   6.618   2.720   3.667  0.5204 -1.3548 -4.1792
   77MOL   H17818570   6.567   2.581   3.764 -1.2694  0.8969  1.2547
   77MOL   H17918571   6.424   2.791   3.777  3.0419  2.6658 -2.9176
   77MOL   H18018572   6.385   2.760   3.609  0.2859 -0.7046 -0.9762
   77MOL   H18118573   6.331   2.644   3.735 -0.5818  2.3671  0.7157
   77MOL   C18218574   6.464   2.421   3.599  0.4274 -0.0573  0.1815
   77MOL   C18318575   6.389   2.345   3.487  0.5789 -0.2452 -0.6123
   77MOL   C18418576   6.280   2.434   3.430 -0.0489 -0.0882 -0.5271
   77MOL   C18518577   6.208   2.379   3.302  0.6703 -0.3681 -0.1554
   77MOL   H18618578   6.398   2.443   3.682  1.3142  0.1653  0.8304
   77MOL   H18718579   6.531   2.356   3.655 -0.7100 -0.5076  1.0261
   77MOL   H18818580   6.466   2.324   3.413 -0.2233 -0.5287 -1.3831
   77MOL   H18918581   6.315   2.533   3.402 -0.2494  0.1368  0.0152
   77MOL   H19018582   6.211   2.456   3.512  0.9975  0.7142  0.1477
   77MOL   H19118583   6.143   2.453   3.254 -2.2942 -1.9603  1.2957
   77MOL   H19218584   6.275   2.341   3.224  1.8151 -1.7809  1.4753
   77MOL   H19318585   6.144   2.300   3.339  0.6937  0.2336  1.1838
   77MOL   C19418586   6.333   2.212   3.544  0.3239  0.5852  0.1405
   77MOL   C19518587   6.423   2.092   3.506 -0.7283 -0.6222 -0.8008
   77MOL   C19618588   6.371   2.025   3.376 -0.0281 -0.2657 -0.1921
   77MOL   C19718589   6.480   1.941   3.312 -0.8348 -0.2352  1.1007
   77MOL   H19818590   6.226   2.200   3.528  0.0311  2.0500  0.9402
   77MOL   H19918591   6.335   2.228   3.651  0.2004  3.0591 -0.2116
   77MOL   H20018592   6.523   2.129   3.486 -0.0356 -0.6093  2.3280
   77MOL   H20118593   6.337   2.101   3.306 -0.8852  0.6253  1.1711
   77MOL   H20218594   6.284   1.968   3.409  0.4989 -0.9478  0.0353
   77MOL   H20318595   6.463   1.835   3.292 -0.8572 -0.1939  0.9006
   77MOL   H20418596   6.482   1.989   3.215 -0.1193 -2.1112  0.1658
   77MOL   H20518597   6.575   1.958   3.363 -0.4324 -1.8345  0.9246
   77MOL   C20618598   6.428   1.985   3.616 -0.1375  0.0372 -0.1899
   77MOL   C20718599   6.518   2.026   3.734 -0.0975 -0.2980 -0.0573
   77MOL   C20818600   6.649   1.950   3.749 -0.0467  0.0325  0.5648
   77MOL   C20918601   6.756   1.994   3.642  0.9451  0.3241 -0.6207
   77MOL   H21018602   6.483   1.906   3.565  0.2661  0.1693  0.0384
   77MOL   H21118603   6.332   1.947   3.648  0.2482 -0.1198  0.7787
   77MOL   H21218604   6.547   2.131   3.727  3.2252 -1.0323  1.5463
   77MOL   H21318605   6.636   1.845   3.724  2.1982 -0.5150  1.5637
   77MOL   H21418606   6.694   1.946   3.848 -1.3008 -2.0534  1.0856
   77MOL   H21518607   6.854   1.968   3.683  0.1773  0.8658  1.6207
   77MOL   H21618608   6.750   1.943   3.546  5.0058 -2.1205  0.2857
   77MOL   H21718609   6.753   2.102   3.625 -1.5065  0.3814 -0.0148
   77MOL   C21818610   6.437   2.024   3.861  0.1519 -0.3196 -0.6058
   77MOL   C21918611   6.488   2.100   3.982 -0.4292  0.6206  0.3684
   77MOL   C22018612   6.449   2.023   4.112  0.1349  0.4189 -0.5951
   77MOL   C22118613   6.566   1.946   4.168  0.1657  0.0332  0.3044
   77MOL   H22218614   6.440   1.922   3.899  0.1023  0.3069  1.0945
   77MOL   H22318615   6.334   2.034   3.827  0.1218  2.4876  0.1469
   77MOL   H22418616   6.596   2.107   3.986 -0.5860  2.3549  2.3763
   77MOL   H22518617   6.358   1.963   4.103 -0.2468  0.7030  1.1483
   77MOL   H22618618   6.429   2.088   4.197  2.1439 -0.2039  0.3892
   77MOL   H22718619   6.527   1.904   4.261 -1.3363  1.5473  0.3902
   77MOL   H22818620   6.609   1.869   4.105 -0.7383  0.9411 -1.4784
   77MOL   H22918621   6.650   2.006   4.204 -0.0495  1.0608 -0.8587
   77MOL   C23018622   6.441   2.244   3.976  0.2577  0.1465 -0.5591
   77MOL   C23118623   6.288   2.266   3.992 -0.4372  0.2305 -0.2420
   77MOL   C23218624   6.256   2.408   4.037  0.2198  0.1106 -0.1190
   77MOL   C23318625   6.290   2.446   4.182  0.2531 -0.1834  0.1984
   77MOL   H23418626   6.471   2.283   3.878  0.9586 -1.1327 -0.8559
   77MOL   H23518627   6.504   2.297   4.047 -1.3498  2.9912 -1.1668
   77MOL   H23618628   6.232   2.226   3.907  0.1058 -2.4588  0.6258
   77MOL   H23718629   6.149   2.424   4.030  0.3942  0.9852 -0.8158
   77MOL   H23818630   6.295   2.484   3.970  0.3600  1.1870  1.1684
   77MOL   H23918631   6.392   2.484   4.181  0.1969 -0.0578 -1.8662
   77MOL   H24018632   6.232   2.537   4.196 -0.0373 -0.2728 -0.4127
   77MOL   H24118633   6.273   2.371   4.260 -0.5624  1.5169  1.7116
   77MOL   H24218634   6.257   2.202   4.073  1.2286  0.7173  0.8034
   78MOL     C118635   0.990   1.405   5.845 -0.1561  1.2554 -0.2839
   78MOL     C218636   1.041   1.330   5.958  0.1089  0.1392  0.2274
   78MOL     C318637   1.157   1.232   5.915  0.0877 -0.4354  0.1376
   78MOL     C418638   1.290   1.296   5.871  0.1730  0.3496 -0.0155
   78MOL     H518639   0.951   1.333   5.773 -1.1519  0.1268  1.3513
   78MOL     H618640   0.911   1.472   5.877 -1.3497 -1.2565  2.2532
   78MOL     H718641   1.104   1.402   6.011  2.9473 -1.5351 -0.8134
   78MOL     H818642   1.110   1.177   5.833  0.8691  1.6843 -1.7840
   78MOL     H918643   1.177   1.155   5.989  0.4489  0.8761  1.4109
   78MOL    H1018644   1.315   1.356   5.958  1.8685  0.4807 -0.5601
   78MOL    H1118645   1.365   1.219   5.851 -0.4120 -0.2557  0.0924
   78MOL    H1218646   1.281   1.349   5.776 -1.2932  1.2769  0.6339
   78MOL    H1318647   1.059   1.476   5.799  1.8103 -1.0593 -1.0459
   78MOL    C1418648   0.937   1.262   6.046 -0.4234 -0.2453 -0.5811
   78MOL    C1518649   0.956   1.279   6.195 -0.6042  0.6030  0.2849
   78MOL    C1618650   1.091   1.235   6.245  0.5240 -0.3208  0.1527
   78MOL    C1718651   1.123   1.251   6.399  0.1311  0.1014  0.0777
   78MOL    H1818652   0.937   1.157   6.018  1.2056 -1.0175  2.0902
   78MOL    H1918653   0.839   1.295   6.010 -0.6976 -1.3420 -0.8541
   78MOL    H2018654   0.945   1.387   6.206  1.8949  0.9678 -0.5115
   78MOL    H2118655   1.170   1.295   6.201  1.1158 -2.0909 -1.2276
   78MOL    H2218656   1.119   1.132   6.224  0.1370 -0.3261 -0.3342
   78MOL    H2318657   1.060   1.194   6.468 -0.6780 -0.2983 -0.9637
   78MOL    H2418658   1.229   1.231   6.414  0.6435  0.5776 -2.5209
   78MOL    H2518659   1.127   1.357   6.423 -1.5749  0.0592  0.6079
   78MOL    C2618660   0.846   1.198   6.258  0.2940  0.0803  0.1523
   78MOL    C2718661   0.722   1.282   6.264  0.5787  0.5561  0.6505
   78MOL    C2818662   0.705   1.345   6.406 -0.2157  0.6258 -0.0311
   78MOL    C2918663   0.803   1.463   6.439  0.3258  0.0633  0.2814
   78MOL    H3018664   0.872   1.168   6.359  4.1306  0.7009 -0.5783
   78MOL    H3118665   0.837   1.108   6.197  0.0442 -1.1071  1.9224
   78MOL    H3218666   0.734   1.368   6.198  0.0484  0.1088 -0.0379
   78MOL    H3318667   0.706   1.270   6.485  0.7366 -0.8142 -1.3871
   78MOL    H3418668   0.603   1.379   6.425 -1.5850 -4.3747  2.6348
   78MOL    H3518669   0.779   1.499   6.539 -2.0896  0.1246 -0.2928
   78MOL    H3618670   0.903   1.420   6.435  0.2262 -0.1122 -0.4454
   78MOL    H3718671   0.790   1.545   6.367  3.1329  0.5891  0.3266
   78MOL    C3818672   0.597   1.196   6.211  0.4978  0.1091  0.0471
   78MOL    C3918673   0.497   1.284   6.136 -0.0611 -0.2801 -0.2624
   78MOL    C4018674   0.350   1.239   6.169 -0.5458  0.2774  0.1945
   78MOL    C4118675   0.306   1.102   6.113  0.2898  0.4629  0.2258
   78MOL    H4218676   0.549   1.155   6.300 -1.0465  0.9967 -0.3517
   78MOL    H4318677   0.625   1.109   6.151  1.1115  0.4212 -0.1173
   78MOL    H4418678   0.515   1.385   6.174 -0.6293  0.5379 -2.1161
   78MOL    H4518679   0.280   1.309   6.123  1.0114  1.2144 -0.8019
   78MOL    H4618680   0.333   1.249   6.276 -2.6962 -0.7015 -0.0332
   78MOL    H4718681   0.376   1.023   6.139 -0.9130 -1.2144 -1.5014
   78MOL    H4818682   0.214   1.059   6.154  0.6405 -0.0968  0.4241
   78MOL    H4918683   0.292   1.105   6.005  2.1237 -0.3164 -0.0445
   78MOL    C5018684   0.528   1.304   5.987 -0.1655  0.4218  0.2803
   78MOL    C5118685   0.490   1.442   5.935 -0.5184  0.2366  0.4176
   78MOL    C5218686   0.479   1.439   5.780  0.2246  0.5968 -0.5575
   78MOL    C5318687   0.346   1.370   5.737 -0.1911  0.1866  0.1417
   78MOL    H5418688   0.476   1.221   5.939  2.5762 -0.7667 -0.6758
   78MOL    H5518689   0.629   1.290   5.950 -0.7988  1.5566 -1.9126
   78MOL    H5618690   0.384   1.460   5.958 -0.6231 -1.9800  1.8306
   78MOL    H5718691   0.567   1.386   5.743  0.4366 -0.0457  0.8251
   78MOL    H5818692   0.484   1.540   5.739  0.8377  0.1798 -1.5364
   78MOL    H5918693   0.330   1.381   5.629  0.0095 -2.3581 -0.1834
   78MOL    H6018694   0.343   1.262   5.754 -0.3514  0.2481  0.4999
   78MOL    H6118695   0.262   1.414   5.790  0.3628  1.2782  0.1277
   78MOL    C6218696   0.598   1.550   5.971  0.3070 -0.7764  0.3743
   78MOL    C6318697   0.542   1.692   5.961  0.1481 -0.5045  0.2801
   78MOL    C6418698   0.648   1.793   6.008  0.0542  0.3777  0.8478
   78MOL    C6518699   0.794   1.769   5.960  0.5074  0.3780 -0.9443
   78MOL    H6618700   0.682   1.539   5.902  1.1200  0.3748  1.1723
   78MOL    H6718701   0.639   1.525   6.069 -0.1906 -0.6498  0.6174
   78MOL    H6818702   0.519   1.712   5.857 -0.3626  0.7674  0.6280
   78MOL    H6918703   0.641   1.807   6.116 -1.4780  0.0250  0.7988
   78MOL    H7018704   0.620   1.888   5.962  0.3396 -0.2080 -0.5621
   78MOL    H7118705   0.815   1.676   6.013 -2.2440 -1.8742 -3.6105
   78MOL    H7218706   0.801   1.757   5.852 -2.2961  0.6227 -1.1801
   78MOL    H7318707   0.866   1.849   5.980  2.8027 -1.9878  0.5502
   78MOL    C7418708   0.421   1.719   6.056 -0.4492  0.2617  0.0393
   78MOL    C7518709   0.337   1.846   6.017  0.8694 -0.1311  0.0665
   78MOL    C7618710   0.338   1.962   6.118  0.3727  1.3510  0.4453
   78MOL    C7718711   0.284   1.927   6.256 -0.0316 -0.7110  0.0638
   78MOL    H7818712   0.443   1.700   6.161  0.0221 -3.9757 -0.7400
   78MOL    H7918713   0.353   1.633   6.057  0.1554 -0.2191 -0.0181
   78MOL    H8018714   0.381   1.890   5.927  0.8188 -0.8984 -0.3420
   78MOL    H8118715   0.282   2.048   6.081 -1.0083 -0.6327 -2.2530
   78MOL    H8218716   0.442   1.992   6.125  0.7933  0.0135  0.1402
   78MOL    H8318717   0.175   1.936   6.253 -0.1400 -0.7353  2.7340
   78MOL    H8418718   0.299   1.826   6.295 -1.0083  0.1293  2.7501
   78MOL    H8518719   0.325   1.994   6.331 -1.0451 -0.0265  0.0270
   78MOL    C8618720   0.190   1.824   5.982 -0.4197 -0.2812 -0.7352
   78MOL    C8718721   0.145   1.737   5.867 -0.4916 -0.4448  0.1630
   78MOL    C8818722   0.187   1.800   5.733 -0.3675 -0.5879  0.5069
   78MOL    C8918723   0.178   1.695   5.619 -0.4576  0.1196  0.0765
   78MOL    H9018724   0.147   1.921   5.959  1.3870  0.8112  0.4300
   78MOL    H9118725   0.135   1.786   6.068 -2.5389  0.2861 -1.8037
   78MOL    H9218726   0.192   1.639   5.871  0.4257 -0.1719 -2.7951
   78MOL    H9318727   0.288   1.841   5.735 -0.7410  0.5054 -1.3363
   78MOL    H9418728   0.132   1.889   5.703 -1.1568 -1.1324  0.3093
   78MOL    H9518729   0.232   1.725   5.529 -0.6340  0.8138  0.1944
   78MOL    H9618730   0.221   1.598   5.643 -0.1732  0.5106  1.1844
   78MOL    H9718731   0.075   1.689   5.584  0.1348 -1.2809 -1.4464
   78MOL    C9818732   7.701   1.715   5.876 -0.3472 -0.6357 -0.3721
   78MOL    C9918733   7.642   1.618   5.987 -0.1510 -0.1805  0.3534
   78MOL   C10018734   0.006   1.476   5.978  0.1027 -0.4572  0.2100
   78MOL   C10118735   0.003   1.391   5.854  0.1981  0.1460 -0.2505
   78MOL   H10218736   7.667   1.666   5.784 -0.3234 -1.6363  0.1515
   78MOL   H10318737   7.658   1.815   5.875  2.3164  0.5500  0.0817
   78MOL   H10418738   7.669   1.648   6.088 -0.1548  0.9295  0.0342
   78MOL   H10518739   7.679   1.422   6.067 -0.8613  2.7174  1.8203
   78MOL   H10618740   0.111   1.482   6.006 -0.0128 -3.4902  1.5185
   78MOL   H10718741   7.607   1.353   5.852 -0.0370  0.6732  1.0836
   78MOL   H10818742   0.031   1.443   5.763 -1.1531 -0.6600 -1.1552
   78MOL   H10918743   0.064   1.301   5.865 -1.7742 -1.2530 -0.4034
   78MOL   C11018744   7.488   1.595   5.962 -1.3585  0.0218  1.1099
   78MOL   C11118745   7.408   1.506   6.066 -0.3360 -0.6711 -0.1536
   78MOL   C11218746   7.265   1.476   6.016 -0.1403  0.5586 -0.0020
   78MOL   C11318747   7.242   1.415   5.877 -0.3670 -0.1249  0.2064
   78MOL   H11418748   7.477   1.549   5.864  1.1677 -3.4541  2.3082
   78MOL   H11518749   7.437   1.690   5.960 -2.2009 -0.4027  1.9836
   78MOL   H11618750   7.457   1.410   6.079  0.8280 -0.2859 -1.6002
   78MOL   H11718751   7.193   1.557   6.009 -1.0462 -0.2822 -0.4078
   78MOL   H11818752   7.219   1.403   6.082  1.2564  1.0925  1.6064
   78MOL   H11918753   7.267   1.496   5.809  0.9205  0.6862  1.6276
   78MOL   H12018754   7.316   1.338   5.857  1.0368  1.3316 -0.2691
   78MOL   H12118755   7.140   1.381   5.860 -0.9840  0.5766  2.3564
   78MOL   C12218756   7.398   1.564   6.209 -0.1294 -0.0789 -0.9860
   78MOL   C12318757   7.348   1.471   6.317  0.2497  0.3357 -0.2691
   78MOL   C12418758   7.230   1.532   6.400  0.8404  0.1006 -0.1190
   78MOL   C12518759   7.092   1.531   6.343  1.1276 -0.0120  0.9077
   78MOL   H12618760   7.348   1.661   6.212  0.0937  0.1679 -3.9138
   78MOL   H12718761   7.499   1.593   6.238 -0.6069  0.5475  0.0814
   78MOL   H12818762   7.309   1.380   6.271  1.2829 -1.6440  2.6503
   78MOL   H12918763   7.262   1.635   6.419  1.3533 -0.3427  1.5049
   78MOL   H13018764   7.230   1.487   6.499 -0.7877 -0.7958 -0.5211
   78MOL   H13118765   7.087   1.539   6.234 -1.0911 -2.0507  0.8032
   78MOL   H13218766   7.041   1.435   6.356  0.2046  0.1379 -1.3038
   78MOL   H13318767   7.023   1.602   6.389  1.0965  0.0341  0.7898
   78MOL   C13418768   7.458   1.412   6.410  0.2007 -0.4691  0.3760
   78MOL   C13518769   7.573   1.340   6.342  0.0880 -0.2153 -1.0986
   78MOL   C13618770   7.521   1.206   6.278  0.4464 -0.4947 -0.2032
   78MOL   C13718771   7.625   1.124   6.194 -0.4626 -0.0082  0.4065
   78MOL   H13818772   7.416   1.348   6.488  0.4437 -0.2356  0.7038
   78MOL   H13918773   7.485   1.492   6.479 -1.3995 -1.2683  1.9753
   78MOL   H14018774   7.610   1.409   6.266 -2.5983  1.3805 -1.0431
   78MOL   H14118775   7.445   1.229   6.204  0.2989 -0.9255 -0.1861
   78MOL   H14218776   7.474   1.141   6.351  0.3908 -0.0468  0.1636
   78MOL   H14318777   7.652   1.153   6.093 -2.3828 -1.6547 -0.6055
   78MOL   H14418778   0.011   1.105   6.251  0.1142  1.1358 -0.1263
   78MOL   H14518779   7.575   1.028   6.183  0.1140 -0.2593 -0.0651
   78MOL   C14618780   7.697   1.326   6.444  0.1570 -0.0018 -0.4896
   78MOL   C14718781   0.060   1.453   6.508  0.8381  0.2870  0.2371
   78MOL   C14818782   0.083   1.576   6.415 -0.4834  0.6492 -0.1193
   78MOL   C14918783   0.177   1.545   6.301 -0.1145  0.6212  0.8502
   78MOL   H15018784   0.063   1.272   6.382  0.6665 -0.4434  0.4688
   78MOL   H15118785   7.672   1.268   6.532 -0.1001 -0.0831 -0.6159
   78MOL   H15218786   7.692   1.490   6.579 -1.5127 -0.8567 -1.5265
   78MOL   H15318787   0.111   1.666   6.468  0.7263  0.7883 -0.9843
   78MOL   H15418788   7.700   1.607   6.359 -0.3774 -0.2082 -0.7753
   78MOL   H15518789   0.183   1.628   6.231 -0.9505 -2.0158 -2.4956
   78MOL   H15618790   0.280   1.537   6.335  1.1211 -0.9251 -3.0051
   78MOL   H15718791   0.143   1.459   6.244 -0.6173  1.6048 -0.3524
   78MOL   C15818792   0.197   1.411   6.588  0.3572 -0.4369  0.1554
   78MOL   C15918793   0.202   1.296   6.690  0.3627 -0.6541 -0.3779
   78MOL   C16018794   0.120   1.320   6.825  0.0046  0.4970  0.3419
   78MOL   C16118795   0.144   1.443   6.904  0.0497 -0.2833  0.5352
   78MOL   H16218796   0.231   1.505   6.632 -0.9544  0.3995 -0.5751
   78MOL   H16318797   0.260   1.383   6.504  0.2633  1.4812 -0.5887
   78MOL   H16418798   0.154   1.208   6.647  0.3293 -0.3784 -0.9123
   78MOL   H16518799   0.119   1.234   6.891 -0.5494  0.6984  0.5939
   78MOL   H16618800   0.016   1.324   6.792 -0.1704  0.7063  0.9201
   78MOL   H16718801   0.086   1.445   6.996 -1.8891 -0.4502 -0.6535
   78MOL   H16818802   0.242   1.450   6.951  0.4060 -3.5186  0.3658
   78MOL   H16918803   0.136   1.534   6.845  0.1858 -1.5031 -1.4257
   78MOL   C17018804   0.342   1.245   6.729 -0.1087  0.4482 -0.4144
   78MOL   C17118805   0.362   1.093   6.708  0.4520 -0.2928  0.9013
   78MOL   C17218806   0.482   1.044   6.790  0.3165 -0.2513 -0.2324
   78MOL   C17318807   0.619   1.118   6.770  0.2679 -0.5738 -0.1564
   78MOL   H17418808   0.356   1.258   6.836  1.3982  2.2599 -0.7974
   78MOL   H17518809   0.420   1.300   6.675 -0.4537 -0.2169 -1.5960
   78MOL   H17618810   0.278   1.045   6.756 -1.0756  0.0832 -1.3107
   78MOL   H17718811   0.509   0.940   6.776  2.3230  0.1451  0.4899
   78MOL   H17818812   0.452   1.057   6.894  1.0000  2.6023 -0.3387
   78MOL   H17918813   0.688   1.045   6.729  0.3232 -0.2920 -0.5662
   78MOL   H18018814   0.610   1.206   6.708 -0.9739 -0.0468  0.7420
   78MOL   H18118815   0.665   1.147   6.864  0.0379  4.1633 -1.3693
   78MOL   C18218816   0.367   1.057   6.558  0.3621  0.2798 -0.4123
   78MOL   C18318817   0.376   0.909   6.506  0.2567 -0.3934  0.2106
   78MOL   C18418818   0.258   0.821   6.544  0.1385  0.0003  0.0114
   78MOL   C18518819   0.122   0.855   6.470  0.7649 -0.2145 -0.4017
   78MOL   H18618820   0.442   1.121   6.512 -0.0266  1.3503  0.4252
   78MOL   H18718821   0.270   1.088   6.519  0.9503 -0.3097 -2.4028
   78MOL   H18818822   0.370   0.904   6.397  0.2142  0.2120  0.1809
   78MOL   H18918823   0.249   0.827   6.652  0.2246  1.1643 -0.0445
   78MOL   H19018824   0.282   0.716   6.526 -0.3282  0.3765 -3.0793
   78MOL   H19118825   0.134   0.840   6.363  0.2892  3.1791 -0.9724
   78MOL   H19218826   0.030   0.815   6.513  0.5694  2.2788  1.6014
   78MOL   H19318827   0.093   0.960   6.469 -2.2050 -0.9795 -2.8044
   78MOL   C19418828   0.507   0.836   6.555 -0.4470 -0.0959 -0.0854
   78MOL   C19518829   0.554   0.725   6.455  0.4340 -0.0446  0.0246
   78MOL   C19618830   0.644   0.613   6.527  0.4112  0.1512 -0.7608
   78MOL   C19718831   0.564   0.515   6.607 -0.2357  0.6752 -0.1276
   78MOL   H19818832   0.483   0.780   6.645  1.9177 -2.5084 -0.8749
   78MOL   H19918833   0.589   0.905   6.576  0.7343 -0.4505 -3.2944
   78MOL   H20018834   0.461   0.677   6.424  1.3678 -2.5443  0.9634
   78MOL   H20118835   0.717   0.664   6.588  1.2616 -1.3209 -0.5182
   78MOL   H20218836   0.704   0.550   6.461  1.7117  2.0491 -1.4373
   78MOL   H20318837   0.629   0.458   6.675  1.4709 -0.3914 -2.5750
   78MOL   H20418838   0.488   0.560   6.670  1.2285  3.1558 -0.0722
   78MOL   H20518839   0.518   0.445   6.538 -0.3631  1.8347 -1.2362
   78MOL   C20618840   0.630   0.794   6.335  0.4073 -0.4054 -0.7830
   78MOL   C20718841   0.664   0.712   6.210  0.2573 -0.4427 -0.0246
   78MOL   C20818842   0.767   0.789   6.124  0.1409  0.0035 -0.3815
   78MOL   C20918843   0.903   0.813   6.195  0.0661 -1.0551 -0.5921
   78MOL   H21018844   0.719   0.829   6.388  0.3580 -1.4766  0.0449
   78MOL   H21118845   0.578   0.885   6.305 -0.5736 -0.9652 -0.8073
   78MOL   H21218846   0.715   0.626   6.252 -0.6088 -0.1760  1.6030
   78MOL   H21318847   0.723   0.880   6.082  1.0206  1.8469  2.5637
   78MOL   H21418848   0.788   0.725   6.039 -0.2353 -0.0365 -0.4463
   78MOL   H21518849   0.899   0.875   6.284 -0.7301 -1.5878 -0.2588
   78MOL   H21618850   0.940   0.714   6.224  3.4152 -0.4713 -2.5310
   78MOL   H21718851   0.983   0.857   6.135  1.6873 -0.3697  1.9646
   78MOL   C21818852   0.531   0.669   6.134  0.0009  0.1521  0.5187
   78MOL   C21918853   0.546   0.551   6.039 -0.4517 -0.0346  0.1178
   78MOL   C22018854   0.429   0.544   5.939  0.5944 -0.9286  0.4652
   78MOL   C22118855   0.411   0.668   5.850  0.3106 -0.4456  0.3447
   78MOL   H22218856   0.496   0.752   6.074  0.0989 -0.8377 -0.9422
   78MOL   H22318857   0.451   0.640   6.201 -0.0127 -1.7925 -0.2902
   78MOL   H22418858   0.637   0.575   5.983  1.5665 -1.2593  2.7171
   78MOL   H22518859   0.335   0.536   5.993 -1.5692 -1.6659 -3.2222
   78MOL   H22618860   0.427   0.450   5.885  0.1085 -0.5355 -0.2141
   78MOL   H22718861   0.360   0.742   5.912  0.6593 -0.5970  0.8246
   78MOL   H22818862   0.505   0.707   5.811 -1.3172 -0.0864 -3.3818
   78MOL   H22918863   0.348   0.651   5.763  2.1597 -0.4259 -1.0327
   78MOL   C23018864   0.572   0.415   6.110 -0.3756 -0.1453  0.3542
   78MOL   C23118865   0.446   0.358   6.182 -0.1824 -0.8873  0.2192
   78MOL   C23218866   0.480   0.215   6.230 -0.0074 -0.0718  0.4779
   78MOL   C23318867   0.504   0.112   6.117 -0.1195  0.4202  0.1763
   78MOL   H23418868   0.662   0.415   6.172  0.1950 -3.3029 -0.4266
   78MOL   H23518869   0.601   0.340   6.037  0.8247 -1.5723  2.2436
   78MOL   H23618870   0.411   0.421   6.264  1.2281  1.1543 -0.7043
   78MOL   H23718871   0.396   0.168   6.280  0.8310  0.2252  2.2112
   78MOL   H23818872   0.552   0.227   6.312  2.4556  2.5663 -1.9733
   78MOL   H23918873   0.480   0.009   6.143  1.6621 -1.2218 -4.2923
   78MOL   H24018874   0.432   0.124   6.036  0.4275  1.0670 -0.2170
   78MOL   H24118875   0.610   0.102   6.093 -0.7645 -1.4069 -2.0757
   78MOL   H24218876   0.361   0.356   6.114 -0.0566  1.1702 -0.0301
   79MOL     C118877   5.838   2.572   3.501  0.0560 -0.3170 -0.3519
   79MOL     C218878   5.902   2.531   3.635  0.4351 -0.3282  0.5094
   79MOL     C318879   5.924   2.381   3.640 -0.0198  0.6938  0.4264
   79MOL     C418880   6.003   2.327   3.759 -0.2576  0.0505  0.2641
   79MOL     H518881   5.900   2.550   3.415  0.7362 -0.8906  0.2803
   79MOL     H618882   5.742   2.526   3.479 -0.5211  0.0783  1.2456
   79MOL     H718883   6.001   2.576   3.633  0.3599 -0.1858 -0.1524
   79MOL     H818884   5.974   2.354   3.547 -1.4680  1.4298 -0.5830
   79MOL     H918885   5.832   2.325   3.625 -0.1623  0.4406  2.1315
   79MOL    H1018886   5.948   2.352   3.850 -0.4879  0.1539  0.0984
   79MOL    H1118887   6.007   2.219   3.743  2.5586  0.1201  0.2828
   79MOL    H1218888   6.103   2.370   3.757  0.1361 -0.8535 -0.1076
   79MOL    H1318889   5.820   2.680   3.501  0.2304 -0.2249  3.0003
   79MOL    C1418890   5.827   2.580   3.754 -0.1104 -0.2232 -0.4261
   79MOL    C1518891   5.896   2.688   3.845  0.1220 -0.1489 -0.0424
   79MOL    C1618892   6.025   2.642   3.917 -0.3697  0.4130 -0.4205
   79MOL    C1718893   6.121   2.761   3.940 -0.2568 -0.5263 -0.4457
   79MOL    H1818894   5.793   2.498   3.817  2.3162 -1.2363 -0.3958
   79MOL    H1918895   5.734   2.621   3.715  1.2810  3.0106 -0.5420
   79MOL    H2018896   5.927   2.760   3.770  1.0213  1.1448  1.5665
   79MOL    H2118897   6.082   2.566   3.863 -0.4141 -0.9226  1.3608
   79MOL    H2218898   5.997   2.592   4.009 -0.3647  1.3521  0.0909
   79MOL    H2318899   6.159   2.807   3.849 -0.2116 -1.5245 -0.9334
   79MOL    H2418900   6.078   2.838   4.005  0.0601  0.2246 -1.1103
   79MOL    H2518901   6.206   2.731   4.001 -1.1927 -1.3233  0.4769
   79MOL    C2618902   5.788   2.750   3.936 -0.1807 -0.3117  0.7375
   79MOL    C2718903   5.722   2.870   3.859  0.2329 -0.3533 -0.0231
   79MOL    C2818904   5.818   2.998   3.870  0.2980 -1.3434 -0.1347
   79MOL    C2918905   5.800   3.099   3.759 -0.5096 -0.2275 -0.1566
   79MOL    H3018906   5.825   2.788   4.031 -1.9195  0.5009  1.1032
   79MOL    H3118907   5.713   2.674   3.959  2.2702 -2.8554  0.7718
   79MOL    H3218908   5.724   2.842   3.754  1.6067  0.1120 -0.1323
   79MOL    H3318909   5.925   2.978   3.882  0.7350 -0.4786 -2.2490
   79MOL    H3418910   5.800   3.044   3.967  0.8475 -2.1094  0.3385
   79MOL    H3518911   5.851   3.194   3.775 -4.6670  1.8127  1.5448
   79MOL    H3618912   5.843   3.063   3.665  3.1868  0.7367  1.0545
   79MOL    H3718913   5.694   3.120   3.753 -0.6569 -0.2269  1.9958
   79MOL    C3818914   5.577   2.886   3.897 -0.3781  0.3671  0.1939
   79MOL    C3918915   5.542   2.962   4.030  0.4534 -0.0974 -0.1433
   79MOL    C4018916   5.531   2.872   4.160  0.4505  0.1750 -0.2262
   79MOL    C4118917   5.549   2.932   4.303  0.1236  0.0251  0.5415
   79MOL    H4218918   5.537   2.785   3.902  0.6628  0.0043  1.5847
   79MOL    H4318919   5.527   2.935   3.813  0.3134  0.7624  0.0086
   79MOL    H4418920   5.608   3.046   4.052  0.1988  0.4045 -1.2746
   79MOL    H4518921   5.614   2.802   4.160 -1.1898 -1.8807 -1.8293
   79MOL    H4618922   5.441   2.810   4.151  0.8843 -0.4831 -0.0124
   79MOL    H4718923   5.635   2.998   4.315  0.1878 -0.0869  0.7036
   79MOL    H4818924   5.464   2.992   4.333  1.5356  0.8969  2.9741
   79MOL    H4918925   5.549   2.850   4.375 -3.2347 -0.1582  0.4164
   79MOL    C5018926   5.398   3.012   4.008  0.3131  0.4571 -0.2760
   79MOL    C5118927   5.382   3.142   3.924 -0.1277  0.1009  0.2294
   79MOL    C5218928   5.383   3.272   4.008  0.1553 -0.4846  0.3734
   79MOL    C5318929   5.509   3.308   4.087 -0.1898 -0.1415  0.2904
   79MOL    H5418930   5.362   3.032   4.109 -0.8958 -0.2520 -0.5553
   79MOL    H5518931   5.333   2.933   3.972  1.2761  0.5956 -2.4121
   79MOL    H5618932   5.463   3.137   3.852  0.9021  0.6046  1.3402
   79MOL    H5718933   5.300   3.277   4.079  0.8344 -0.4026  1.1606
   79MOL    H5818934   5.366   3.344   3.928 -0.5897 -0.1398  0.8377
   79MOL    H5918935   5.501   3.413   4.115 -0.7561 -0.5028  1.4937
   79MOL    H6018936   5.515   3.253   4.180  0.0060  0.1696  0.4618
   79MOL    H6118937   5.603   3.302   4.031 -0.2931  1.2704 -0.0688
   79MOL    C6218938   5.253   3.145   3.840 -0.0241 -0.1992 -0.5077
   79MOL    C6318939   5.255   3.045   3.715  0.5757 -0.2280 -0.4947
   79MOL    C6418940   5.327   3.112   3.598  0.7313 -0.4559 -0.2631
   79MOL    C6518941   5.264   3.233   3.540  0.1854  0.4248  0.3031
   79MOL    H6618942   5.209   3.239   3.806  0.5156 -0.5419 -2.2059
   79MOL    H6718943   5.169   3.111   3.899  1.5578 -1.1091  1.2514
   79MOL    H6818944   5.314   2.955   3.732  1.2040  0.2476 -0.1412
   79MOL    H6918945   5.346   3.041   3.518 -0.8773  0.6273 -1.6369
   79MOL    H7018946   5.430   3.133   3.628  0.5090  1.1855 -0.6157
   79MOL    H7118947   5.272   3.324   3.600 -0.1398 -0.2065  1.3263
   79MOL    H7218948   5.321   3.250   3.449 -1.5768  1.0050 -0.7332
   79MOL    H7318949   5.160   3.225   3.506 -0.2459 -2.0845  2.1153
   79MOL    C7418950   5.114   3.005   3.672 -0.7445  0.2623  0.6074
   79MOL    C7518951   5.038   2.897   3.760  0.5156 -0.4777 -0.0527
   79MOL    C7618952   5.103   2.754   3.736  0.3790 -0.7514 -0.4482
   79MOL    C7718953   5.086   2.669   3.857 -0.7269 -0.1874  0.6251
   79MOL    H7818954   5.127   2.963   3.572 -0.2684  0.1357  0.7217
   79MOL    H7918955   5.056   3.097   3.680 -0.9473  0.3368 -1.3904
   79MOL    H8018956   5.031   2.930   3.863  0.2293  1.4430 -0.6766
   79MOL    H8118957   5.210   2.757   3.715  0.4526  0.2405  0.0609
   79MOL    H8218958   5.065   2.698   3.651 -0.7331 -0.0685 -0.4063
   79MOL    H8318959   5.118   2.723   3.946 -2.7953  3.0677 -0.5088
   79MOL    H8418960   4.983   2.638   3.880 -0.6505 -1.3789 -0.5774
   79MOL    H8518961   5.148   2.580   3.850  0.6603  0.7629  0.7882
   79MOL    C8618962   4.888   2.887   3.704 -0.4919  0.5595 -0.5405
   79MOL    C8718963   4.804   3.024   3.723 -0.3639  0.6423 -0.0011
   79MOL    C8818964   4.738   3.034   3.866 -0.1637  0.1044 -0.0361
   79MOL    C8918965   4.826   3.032   3.984 -0.1966  0.3638 -0.0833
   79MOL    H9018966   4.834   2.814   3.764 -1.3482 -1.0663 -3.1915
   79MOL    H9118967   4.882   2.865   3.597  1.9591  1.2443 -0.8498
   79MOL    H9218968   4.867   3.113   3.723  0.7750 -0.1537  0.2591
   79MOL    H9318969   4.670   2.949   3.877 -0.4715  0.6990  3.0010
   79MOL    H9418970   4.681   3.127   3.872  1.1417  0.9478 -0.4534
   79MOL    H9518971   4.930   3.060   3.972  0.6497 -2.1352  0.9404
   79MOL    H9618972   4.798   3.103   4.061  0.6109  0.4957  0.0936
   79MOL    H9718973   4.814   2.933   4.028  2.4730 -0.2653 -0.6921
   79MOL    C9818974   4.686   3.044   3.618  0.6136  0.6635  0.2244
   79MOL    C9918975   4.730   3.051   3.470  0.4403  0.3891 -0.4885
   79MOL   C10018976   4.851   3.153   3.434  0.2851  0.3497  0.0768
   79MOL   C10118977   4.819   3.297   3.472 -0.7860  0.2185  0.3549
   79MOL   H10218978   4.619   3.125   3.646  0.4956  0.8799 -0.6881
   79MOL   H10318979   4.626   2.954   3.632 -0.3410  1.2787  0.0881
   79MOL   H10418980   4.767   2.954   3.436  1.1863  0.1951  0.8492
   79MOL   H10518981   4.891   3.146   3.332 -0.8847  0.9765 -0.4373
   79MOL   H10618982   4.936   3.130   3.497  0.1527  1.5351  0.6886
   79MOL   H10718983   4.729   3.330   3.420 -0.5276  3.4090  1.8145
   79MOL   H10818984   4.804   3.298   3.580 -0.7486  0.9869  0.3591
   79MOL   H10918985   4.893   3.369   3.435 -1.5042  1.6168  1.5914
   79MOL   C11018986   4.607   3.079   3.376  0.4091 -0.3399 -0.0921
   79MOL   C11118987   4.596   3.003   3.243  0.4481 -0.0431 -0.2326
   79MOL   C11218988   4.714   3.037   3.144 -0.2684  0.4204 -0.0300
   79MOL   C11318989   4.711   2.945   3.019  0.1662  0.1095 -0.1556
   79MOL   H11418990   4.581   3.183   3.357  0.1831 -0.2166  0.8697
   79MOL   H11518991   4.521   3.046   3.436  0.7000 -1.2352 -0.1682
   79MOL   H11618992   4.599   2.897   3.266  1.5722  0.0533  0.0913
   79MOL   H11718993   4.812   3.030   3.190 -0.7423  0.1319  0.9471
   79MOL   H11818994   4.710   3.142   3.116 -0.2082 -0.2547 -2.6769
   79MOL   H11918995   4.636   2.977   2.947  0.7022 -2.3529 -1.8708
   79MOL   H12018996   4.809   2.954   2.972  0.4085 -0.4386  0.2316
   79MOL   H12118997   4.716   2.839   3.046 -0.3793 -0.2108 -1.2883
   79MOL   C12218998   4.456   3.015   3.178  0.6493  0.4115  0.0840
   79MOL   C12318999   4.345   2.930   3.245  0.0246  0.2220  0.1062
   79MOL   C12419000   4.365   2.778   3.232  0.4855  0.2740 -0.4436
   79MOL   C12519001   4.261   2.689   3.307 -0.5074 -0.9487  0.6186
   79MOL   H12619002   4.465   2.980   3.075  0.0294 -2.1479  0.8489
   79MOL   H12719003   4.436   3.122   3.172  1.1562  0.4447 -1.3722
   79MOL   H12819004   4.344   2.970   3.347 -1.6963  2.0468 -0.5811
   79MOL   H12919005   4.458   2.739   3.273 -1.0187 -3.1429 -0.1310
   79MOL   H13019006   4.373   2.757   3.125 -0.8081 -0.0940 -0.4788
   79MOL   H13119007   4.289   2.584   3.306 -2.3428 -1.4513 -0.4727
   79MOL   H13219008   4.257   2.713   3.413 -1.1583  0.1995  0.3437
   79MOL   H13319009   4.166   2.688   3.254  1.7883  1.7429 -3.8761
   79MOL   C13419010   4.207   2.962   3.180 -0.2209 -0.0083  0.4550
   79MOL   C13519011   4.158   3.108   3.170 -0.6958 -0.2280  0.1290
   79MOL   C13619012   4.176   3.185   3.308 -0.0672  0.3095  1.1622
   79MOL   C13719013   4.094   3.128   3.427 -0.3104 -0.2573 -0.1402
   79MOL   H13819014   4.132   2.907   3.235 -1.1602  0.8554  0.0593
   79MOL   H13919015   4.209   2.925   3.078 -0.1188 -1.9485  1.1421
   79MOL   H14019016   4.222   3.152   3.093 -2.4891  0.2701 -1.1064
   79MOL   H14119017   4.131   3.284   3.297 -1.9525 -0.6098  0.4542
   79MOL   H14219018   4.277   3.203   3.346  0.2793  0.4479  0.2097
   79MOL   H14319019   4.113   3.024   3.451  2.2136  0.7214  2.3718
   79MOL   H14419020   4.117   3.185   3.517 -1.5341 -0.0452  0.0584
   79MOL   H14519021   3.989   3.143   3.400 -0.7765 -1.3537  0.9816
   79MOL   C14619022   4.023   3.121   3.101  0.8453 -0.7732 -0.5388
   79MOL   C14719023   3.966   3.265   3.081  0.4325  0.5778  0.2797
   79MOL   C14819024   3.812   3.255   3.046  0.0333  0.2573  0.2058
   79MOL   C14919025   3.783   3.179   2.905 -0.8995  0.3222  0.0993
   79MOL   H15019026   3.951   3.070   3.165  0.7677 -0.1735 -0.1431
   79MOL   H15119027   4.022   3.072   3.004  1.8471  0.0174 -0.9597
   79MOL   H15219028   3.957   3.328   3.170  0.7682  0.0300  0.6979
   79MOL   H15319029   3.768   3.354   3.035  0.4238  0.4482  0.3494
   79MOL   H15419030   3.755   3.196   3.117  1.7387 -0.4572  1.0261
   79MOL   H15519031   3.830   3.226   2.818 -2.0482 -1.5512 -1.5686
   79MOL   H15619032   3.820   3.078   2.918 -0.3174  0.6625  1.1298
   79MOL   H15719033   3.680   3.172   2.871 -0.5290  0.8982 -1.1845
   79MOL   C15819034   4.058   3.352   2.985  0.1950  0.5577 -0.1215
   79MOL   C15919035   4.013   3.498   2.958  0.4027 -0.6108  0.0744
   79MOL   C16019036   4.060   3.545   2.822  0.4383  0.8133  0.8371
   79MOL   C16119037   3.977   3.505   2.700  1.1151 -0.0325  0.2947
   79MOL   H16219038   4.045   3.300   2.889 -0.5912 -1.6575  1.1486
   79MOL   H16319039   4.164   3.347   3.008  0.1135  1.6499  0.4948
   79MOL   H16419040   3.906   3.474   2.956  0.3699 -0.3890 -1.8105
   79MOL   H16519041   4.164   3.516   2.805  0.5286  2.5673 -2.0124
   79MOL   H16619042   4.048   3.653   2.822 -1.1689  0.6471  0.2371
   79MOL   H16719043   3.878   3.548   2.712  1.0797 -0.2987  1.0056
   79MOL   H16819044   4.010   3.548   2.606 -0.1564 -0.3783 -0.3123
   79MOL   H16919045   3.969   3.397   2.702  0.2705  0.0243  0.0015
   79MOL   C17019046   4.043   3.597   3.068 -0.1728  0.3439 -0.1621
   79MOL   C17119047   3.948   3.724   3.082  0.4449  0.2124 -0.8363
   79MOL   C17219048   3.963   3.794   3.223  0.4580  0.5572 -0.0098
   79MOL   C17319049   4.079   3.897   3.230  0.5054  0.6093 -0.2757
   79MOL   H17419050   4.147   3.626   3.072  0.6583 -1.7217 -4.4426
   79MOL   H17519051   4.013   3.533   3.152  0.6364 -0.4985 -0.5073
   79MOL   H17619052   3.976   3.800   3.009  0.1356  2.3028  1.1596
   79MOL   H17719053   3.991   3.719   3.297  2.0311 -0.7156 -1.8547
   79MOL   H17819054   3.870   3.840   3.258 -0.6432  0.1303 -2.2648
   79MOL   H17919055   4.046   3.992   3.190 -1.3341 -0.1055 -0.5180
   79MOL   H18019056   4.123   3.899   3.330  0.4193 -4.3859  0.0078
   79MOL   H18119057   4.157   3.843   3.177 -0.0425 -0.0739 -0.3974
   79MOL   C18219058   3.804   3.684   3.049 -0.1302 -0.0144  0.5368
   79MOL   C18319059   3.682   3.780   3.053  0.0580  0.2805 -0.1790
   79MOL   C18419060   3.547   3.713   3.032  0.6631  0.1759 -0.6332
   79MOL   C18519061   3.503   3.602   3.135 -0.2015  0.2300 -0.4097
   79MOL   H18619062   3.781   3.592   3.104  2.5976 -0.9276  0.2388
   79MOL   H18719063   3.808   3.672   2.941  1.4951 -1.8454  0.7695
   79MOL   H18819064   3.676   3.801   3.160 -0.3525 -1.1983  0.1114
   79MOL   H18919065   3.558   3.668   2.933 -1.7703  0.2991 -0.9991
   79MOL   H19019066   3.464   3.776   3.001  0.3148  1.0748  2.0488
   79MOL   H19119067   3.469   3.651   3.226 -1.7111 -0.9585 -0.3011
   79MOL   H19219068   3.416   3.560   3.085 -0.1698 -2.6495  1.8405
   79MOL   H19319069   3.569   3.517   3.156 -0.2599 -0.0465 -1.3263
   79MOL   C19419070   3.700   3.904   2.968  0.0072 -0.2399  0.3015
   79MOL   C19519071   3.605   4.018   3.015  0.6761  0.8280 -0.0965
   79MOL   C19619072   3.616   4.137   2.913  0.0059 -0.3991 -0.7505
   79MOL   C19719073   3.522   4.256   2.923  0.3570 -0.0023  0.0824
   79MOL   H19819074   3.690   3.881   2.862  1.4782 -1.1680  0.3458
   79MOL   H19919075   3.804   3.937   2.978 -0.0418 -0.0687  0.2575
   79MOL   H20019076   3.500   3.993   3.002  0.0835  3.2631 -0.3539
   79MOL   H20119077   3.628   4.109   2.809  1.0089 -0.4217 -0.6348
   79MOL   H20219078   3.713   4.186   2.922  0.7827 -1.9553 -0.5523
   79MOL   H20319079   3.542   4.320   3.009 -2.6632 -4.2967  4.1974
   79MOL   H20419080   3.535   4.318   2.834 -0.6869  1.8836  1.2287
   79MOL   H20519081   3.416   4.234   2.929  0.1053  1.2056  0.1197
   79MOL   C20619082   3.645   4.076   3.155  0.5479 -0.1372  0.4034
   79MOL   C20719083   3.524   4.095   3.257 -0.3696 -0.6908 -0.5324
   79MOL   C20819084   3.562   4.189   3.375  0.5113  0.8056 -0.0152
   79MOL   C20919085   3.534   4.330   3.341 -0.2832 -0.5791 -0.0757
   79MOL   H21019086   3.688   4.177   3.152  0.3938 -0.0591  0.7687
   79MOL   H21119087   3.724   4.015   3.196  0.4166  1.7825  3.6680
   79MOL   H21219088   3.451   4.151   3.198  1.2406  2.3534  0.2639
   79MOL   H21319089   3.668   4.192   3.398  0.1734  0.5279  1.6085
   79MOL   H21419090   3.510   4.164   3.467 -0.4129 -2.5432 -1.3653
   79MOL   H21519091   3.429   4.361   3.340  0.2621  1.3117 -1.8812
   79MOL   H21619092   3.577   4.399   3.414  0.2281  0.5315 -1.4163
   79MOL   H21719093   3.588   4.362   3.252  0.5128 -2.2947 -0.2215
   79MOL   C21819094   3.462   3.960   3.300 -0.6970  0.4636  0.4988
   79MOL   C21919095   3.327   3.968   3.382 -0.3242  0.5476  0.5227
   79MOL   C22019096   3.271   3.825   3.415  0.4319 -0.2254  0.1942
   79MOL   C22119097   3.337   3.747   3.525  0.4512 -0.1202 -0.0512
   79MOL   H22219098   3.540   3.901   3.348 -1.0775  0.0467  0.6062
   79MOL   H22319099   3.450   3.902   3.209  0.1316  0.2681  0.5102
   79MOL   H22419100   3.334   4.026   3.474 -1.7277  0.7161  0.5448
   79MOL   H22519101   3.253   3.762   3.328 -0.1335  0.3874 -0.1413
   79MOL   H22619102   3.173   3.846   3.459 -0.7975 -0.1992 -2.4853
   79MOL   H22719103   3.352   3.812   3.612 -1.9457 -0.3316  0.5464
   79MOL   H22819104   3.272   3.667   3.560  0.2469  0.1156  0.1115
   79MOL   H22919105   3.435   3.705   3.501 -0.2993 -0.9941 -1.6027
   79MOL   C23019106   3.222   4.061   3.314  0.4490  0.8268  0.0292
   79MOL   C23119107   3.175   4.021   3.168 -0.9812 -0.4369 -0.8175
   79MOL   C23219108   3.063   4.119   3.118  0.0485  0.5492 -0.3494
   79MOL   C23319109   3.030   4.071   2.979  0.1297  0.2818  0.4078
   79MOL   H23419110   3.265   4.161   3.308 -0.4556  1.2535  0.5157
   79MOL   H23519111   3.133   4.055   3.377  0.4552 -2.6282 -0.1740
   79MOL   H23619112   3.259   4.019   3.098 -0.5745 -1.3241 -0.3082
   79MOL   H23719113   3.105   4.220   3.116 -0.5464  0.7993 -0.3343
   79MOL   H23819114   2.988   4.126   3.198  0.4775  1.0728  0.0144
   79MOL   H23919115   2.958   4.144   2.942 -0.2989 -0.2630  0.1547
   79MOL   H24019116   3.115   4.071   2.911  0.3172 -2.1703  0.5951
   79MOL   H24119117   2.974   3.978   2.986  0.7777 -0.2813 -1.4530
   79MOL   H24219118   3.136   3.921   3.181  1.1580 -1.1330  0.6888
   80MOL     C119119   7.004   2.124   5.300  0.2962 -0.6020 -0.3418
   80MOL     C219120   7.114   2.228   5.296 -0.0478  0.3294  0.0521
   80MOL     C319121   7.062   2.377   5.310 -0.0163 -0.0178 -0.0787
   80MOL     C419122   7.014   2.394   5.459 -0.5328  0.2375 -0.3651
   80MOL     H519123   6.955   2.115   5.397 -1.1499 -0.1785 -1.0232
   80MOL     H619124   6.921   2.145   5.232 -0.9220  0.1049  1.3470
   80MOL     H719125   7.189   2.206   5.372  1.5514  3.1973 -0.6115
   80MOL     H819126   6.981   2.402   5.240  0.2206 -1.1260 -0.7549
   80MOL     H919127   7.143   2.448   5.297  0.3919 -0.2967  0.9227
   80MOL    H1019128   7.097   2.372   5.526 -1.3793  0.4134  0.7614
   80MOL    H1119129   6.956   2.484   5.479 -0.3307  0.2635  0.1023
   80MOL    H1219130   6.941   2.315   5.479  0.6925 -0.8254 -0.0754
   80MOL    H1319131   7.031   2.022   5.272  2.2975 -0.1399 -0.2024
   80MOL    C1419132   7.190   2.219   5.164 -0.2601  0.4451  0.3073
   80MOL    C1519133   7.341   2.255   5.175  0.6033 -0.1572  0.2048
   80MOL    C1619134   7.394   2.306   5.042 -0.0944  0.6501 -0.2712
   80MOL    C1719135   7.549   2.356   5.035 -0.0775  0.6424 -0.8358
   80MOL    H1819136   7.143   2.284   5.090 -0.4301  0.2357  0.2313
   80MOL    H1919137   7.179   2.121   5.118  0.6444 -0.3643  1.7905
   80MOL    H2019138   7.345   2.337   5.247 -1.0966 -0.4020  0.6057
   80MOL    H2119139   7.323   2.383   5.010 -1.8518 -0.6548  0.4348
   80MOL    H2219140   7.372   2.229   4.969  2.1982 -0.5378  0.2605
   80MOL    H2319141   7.600   2.260   5.034 -0.2615  0.4389  2.4208
   80MOL    H2419142   7.570   2.400   4.938 -1.8617  1.3706 -0.9171
   80MOL    H2519143   7.587   2.416   5.118 -0.2361  0.0987 -0.3691
   80MOL    C2619144   7.427   2.142   5.242  0.0499 -0.3219 -0.1060
   80MOL    C2719145   7.537   2.179   5.349  0.5915 -0.1535  0.4180
   80MOL    C2819146   7.622   2.051   5.383 -0.4349  0.1676  0.4699
   80MOL    C2919147   7.705   1.990   5.264  0.6292  0.5681  0.2736
   80MOL    H3019148   7.459   2.081   5.157 -0.9162  0.4748 -1.0654
   80MOL    H3119149   7.352   2.079   5.292 -2.9707  1.5302 -2.1124
   80MOL    H3219150   7.595   2.252   5.292 -0.3093 -0.5019 -0.9642
   80MOL    H3319151   7.568   1.978   5.442 -0.4810 -0.1383  0.0507
   80MOL    H3419152   7.699   2.087   5.451  0.8158  0.2407 -0.9485
   80MOL    H3519153   0.026   2.062   5.187  2.6518 -0.8903 -0.4484
   80MOL    H3619154   0.081   1.928   5.301 -0.5462 -0.3746  1.3807
   80MOL    H3719155   7.634   1.919   5.222  1.5698  0.0070 -0.4048
   80MOL    C3819156   7.480   2.246   5.478  0.0483  0.4302  0.0520
   80MOL    C3919157   7.564   2.366   5.525  0.4266 -0.0273  0.4979
   80MOL    C4019158   0.006   2.336   5.533 -0.6383  0.5689 -0.0965
   80MOL    C4119159   0.107   2.446   5.564  0.3456  0.1404 -0.3278
   80MOL    H4219160   7.479   2.172   5.558 -0.5393 -0.2677 -0.5899
   80MOL    H4319161   7.376   2.275   5.462  0.4604  2.6989  1.2676
   80MOL    H4419162   7.557   2.433   5.439 -1.4097  2.1742  2.3117
   80MOL    H4519163   0.048   2.282   5.448  1.3102 -1.1974  1.9287
   80MOL    H4619164   0.021   2.261   5.611 -2.1388 -0.9650 -1.2424
   80MOL    H4719165   0.097   2.520   5.484  1.4083 -0.9541 -1.4833
   80MOL    H4819166   0.084   2.501   5.656  3.3791 -2.0544  1.8297
   80MOL    H4919167   0.209   2.410   5.578 -0.8103 -2.7875  0.8112
   80MOL    C5019168   7.505   2.418   5.665  0.2328 -0.6493 -0.1373
   80MOL    C5119169   7.390   2.526   5.660  0.1068  0.4725 -0.0729
   80MOL    C5219170   7.416   2.653   5.572  0.0051 -0.6410 -0.9707
   80MOL    C5319171   7.525   2.744   5.624 -0.5419  0.1211 -0.3622
   80MOL    H5419172   7.581   2.470   5.723  0.5018 -1.3027  0.1109
   80MOL    H5519173   7.482   2.337   5.735 -1.4477 -0.4772 -0.4646
   80MOL    H5619174   7.309   2.478   5.605  0.1806 -0.9601  1.0335
   80MOL    H5719175   7.325   2.710   5.560  0.2855 -0.3237 -1.5826
   80MOL    H5819176   7.436   2.626   5.468 -0.9248 -1.5008 -0.9378
   80MOL    H5919177   7.520   2.772   5.729  1.0705  1.7280 -0.6940
   80MOL    H6019178   7.623   2.699   5.610 -0.8687 -0.8804  0.5084
   80MOL    H6119179   7.520   2.833   5.561 -1.1523  0.1168 -0.3237
   80MOL    C6219180   7.346   2.561   5.805  0.4634  0.3432  0.0462
   80MOL    C6319181   7.240   2.674   5.829  0.0057  0.2284  0.1092
   80MOL    C6419182   7.247   2.712   5.980 -0.5623  0.1903 -0.2182
   80MOL    C6519183   7.367   2.806   6.002 -0.6463 -0.0293  0.1308
   80MOL    H6619184   7.438   2.599   5.849  0.1049  0.7054  0.4913
   80MOL    H6719185   7.318   2.464   5.845  0.1632  0.3995 -0.0252
   80MOL    H6819186   7.257   2.764   5.768 -1.2338  1.5240  1.6318
   80MOL    H6919187   7.255   2.627   6.047 -1.9717 -0.9367 -1.4387
   80MOL    H7019188   7.155   2.766   6.002 -0.4194  0.6610 -0.7430
   80MOL    H7119189   7.346   2.872   5.918 -1.6032 -1.7847 -1.0448
   80MOL    H7219190   7.364   2.870   6.090  0.7697  1.0352 -0.5739
   80MOL    H7319191   7.465   2.758   6.005 -0.2056  0.9629  2.0537
   80MOL    C7419192   7.111   2.604   5.796  0.4195  0.1745  0.1451
   80MOL    C7519193   6.977   2.677   5.808  0.1500 -0.1092  0.1894
   80MOL    C7619194   6.865   2.566   5.784 -0.2530 -1.1791  0.3437
   80MOL    C7719195   6.870   2.442   5.875 -0.1318  0.4789 -0.4345
   80MOL    H7819196   7.100   2.514   5.856 -0.6742  1.4489  1.9053
   80MOL    H7919197   7.114   2.569   5.692 -2.2936  1.1057 -0.2905
   80MOL    H8019198   6.951   2.721   5.904  1.1704  2.0084 -0.4944
   80MOL    H8119199   6.851   2.528   5.682 -1.3907  0.3590 -0.0836
   80MOL    H8219200   6.772   2.616   5.811  0.2537  0.0942 -0.2360
   80MOL    H8319201   6.768   2.402   5.882 -0.2183  0.7598 -0.1092
   80MOL    H8419202   6.937   2.360   5.850  0.1174  0.3581  0.6227
   80MOL    H8519203   6.902   2.473   5.974 -0.3915  0.0315 -0.2074
   80MOL    C8619204   6.965   2.789   5.701 -0.4253  0.3618  0.0667
   80MOL    C8719205   7.011   2.934   5.739  0.1994 -0.6611 -0.4278
   80MOL    C8819206   6.926   2.995   5.855  0.4017  0.2808  0.3080
   80MOL    C8919207   6.772   3.018   5.838  0.6286  0.0629 -0.4355
   80MOL    H9019208   6.862   2.786   5.665 -0.6303 -1.0988  0.7146
   80MOL    H9119209   7.012   2.762   5.606  0.3869 -1.0728  0.8441
   80MOL    H9219210   7.113   2.923   5.776  0.6273  2.2566 -0.6212
   80MOL    H9319211   6.970   3.092   5.881 -2.3823  2.1299 -1.6146
   80MOL    H9419212   6.940   2.925   5.937 -1.0621 -1.9411 -1.2755
   80MOL    H9519213   6.728   2.919   5.831 -2.2637  1.3773 -1.4391
   80MOL    H9619214   6.731   3.062   5.928  3.1232  0.1167  0.7213
   80MOL    H9719215   6.748   3.080   5.752 -0.1908 -0.2805 -0.4607
   80MOL    C9819216   7.012   3.035   5.618 -0.1470 -0.0402 -0.0581
   80MOL    C9919217   7.109   2.996   5.502  0.0243  0.6313 -0.3383
   80MOL   C10019218   7.253   3.027   5.544  0.5701 -0.7690 -0.1740
   80MOL   C10119219   7.294   3.170   5.583 -0.1619  0.3141 -0.5167
   80MOL   H10219220   7.047   3.132   5.652 -1.3134  0.1940  0.4764
   80MOL   H10319221   6.911   3.045   5.577 -0.6936  0.7133  1.4375
   80MOL   H10419222   7.108   2.888   5.488 -0.0747  0.7327 -1.1409
   80MOL   H10519223   7.317   3.000   5.460  1.2890 -0.9289  0.4163
   80MOL   H10619224   7.266   2.957   5.627 -0.6193 -0.7430  0.0365
   80MOL   H10719225   7.243   3.200   5.675  0.9657  2.3531 -0.5159
   80MOL   H10819226   7.400   3.186   5.602 -0.7338  2.6523  0.9690
   80MOL   H10919227   7.264   3.238   5.503  0.0720 -1.5780 -2.2394
   80MOL   C11019228   7.082   3.060   5.362 -0.1540  0.2422 -0.1221
   80MOL   C11119229   7.036   2.961   5.252  0.1327 -0.0560  0.0065
   80MOL   C11219230   6.905   2.886   5.289  0.5838  0.1961 -0.1056
   80MOL   C11319231   6.779   2.961   5.276 -0.2704  0.1530 -0.6791
   80MOL   H11419232   7.162   3.125   5.328  1.5382 -2.2669 -1.0897
   80MOL   H11519233   7.010   3.139   5.381  0.9702  1.1410  0.4635
   80MOL   H11619234   7.006   3.016   5.162 -2.6328 -3.5045 -1.2819
   80MOL   H11719235   6.906   2.865   5.397  1.1668 -0.6701 -0.2705
   80MOL   H11819236   6.886   2.790   5.241 -2.1600  0.2301  0.8507
   80MOL   H11919237   6.777   3.037   5.354  1.1034 -0.2686 -0.2339
   80MOL   H12019238   6.761   3.014   5.182  0.4155  0.8826 -0.4020
   80MOL   H12119239   6.704   2.886   5.300 -1.5455  1.3687 -0.8038
   80MOL   C12219240   7.139   2.861   5.212  0.2343  0.7945 -0.1011
   80MOL   C12319241   7.245   2.923   5.120 -0.2154  0.0505 -0.4865
   80MOL   C12419242   7.196   2.990   4.994  0.0526 -0.2659 -0.4907
   80MOL   C12519243   7.119   2.897   4.898  0.3757  0.2242  0.4036
   80MOL   H12619244   7.104   2.768   5.166  1.4026  0.1382  0.2967
   80MOL   H12719245   7.175   2.816   5.305  0.3498  0.3319 -0.3629
   80MOL   H12819246   7.285   3.009   5.174 -0.6642 -0.1541  0.1704
   80MOL   H12919247   7.275   3.033   4.932 -1.2270  0.9793 -1.2754
   80MOL   H13019248   7.137   3.079   5.013 -1.3590 -1.0007 -1.2935
   80MOL   H13119249   7.026   2.865   4.947  0.7928  0.0319  1.0814
   80MOL   H13219250   7.091   2.954   4.809  0.6925 -2.0957 -1.2301
   80MOL   H13319251   7.186   2.814   4.876  0.3610  0.3933 -0.2784
   80MOL   C13419252   7.366   2.834   5.112  0.3152 -0.1251  0.2416
   80MOL   C13519253   7.506   2.900   5.083  0.2543 -0.1665  0.3372
   80MOL   C13619254   7.609   2.788   5.041  0.6727  0.4638  0.5345
   80MOL   C13719255   7.581   2.729   4.898 -0.8667 -0.1311 -0.1864
   80MOL   H13819256   7.357   2.756   5.037 -0.7113 -0.1623  0.4069
   80MOL   H13919257   7.384   2.787   5.209  2.8518  0.3920  0.0617
   80MOL   H14019258   7.490   2.964   4.997  1.2213 -0.0322  0.2481
   80MOL   H14119259   7.621   2.712   5.118 -1.0765  1.9402  2.3233
   80MOL   H14219260   0.002   2.831   5.023  0.8329 -0.7710 -1.6438
   80MOL   H14319261   7.502   2.655   4.886 -0.6768 -0.0296 -2.2639
   80MOL   H14419262   7.554   2.805   4.825 -2.2863 -0.0503  0.4013
   80MOL   H14519263   7.673   2.687   4.858 -0.3284  1.0833 -0.2583
   80MOL   C14619264   7.566   2.975   5.201 -0.3922 -1.1276 -0.4292
   80MOL   C14719265   7.700   3.043   5.192 -0.7792  0.2490 -0.3418
   80MOL   C14819266   0.085   3.018   5.320 -0.0701 -0.4061  0.2405
   80MOL   C14919267   0.121   2.867   5.337 -0.2685  0.1611 -0.5330
   80MOL   H15019268   7.567   2.903   5.284 -0.2503  0.1161  0.6712
   80MOL   H15119269   7.491   3.047   5.235  1.9835  1.1804  0.0292
   80MOL   H15219270   0.046   3.013   5.101 -1.7287 -2.8654  0.0855
   80MOL   H15319271   0.024   3.047   5.405 -1.4743 -0.9720 -0.5584
   80MOL   H15419272   0.178   3.076   5.316 -1.3647  1.6811 -0.7545
   80MOL   H15519273   0.047   2.788   5.350  2.4853 -2.2705  1.0125
   80MOL   H15619274   0.187   2.839   5.255  1.4130 -0.6254  1.0527
   80MOL   H15719275   0.175   2.860   5.432 -1.1053  1.0571  0.0157
   80MOL   C15819276   7.690   3.194   5.160 -0.9990  0.5647 -0.4294
   80MOL   C15919277   7.599   3.238   5.040  0.5688  0.0869  0.0923
   80MOL   C16019278   7.663   3.195   4.903  0.1675 -0.2379 -0.4323
   80MOL   C16119279   0.086   3.276   4.873  0.5946  0.3772  0.1165
   80MOL   H16219280   0.088   3.222   5.143 -0.0768 -3.5500 -2.1256
   80MOL   H16319281   7.661   3.242   5.254  0.4845  1.0103 -0.1907
   80MOL   H16419282   7.503   3.189   5.054 -0.0431  2.0113  2.9840
   80MOL   H16519283   7.592   3.197   4.820 -0.9781  0.4804  0.5519
   80MOL   H16619284   7.675   3.087   4.906  0.6706 -0.1368  1.5534
   80MOL   H16719285   0.126   3.253   4.774  0.4474  0.7095 -0.0202
   80MOL   H16819286   0.065   3.381   4.892 -2.6520 -0.0847 -0.6811
   80MOL   H16919287   0.175   3.245   4.929 -1.6664 -2.8451  2.0710
   80MOL   C17019288   7.563   3.388   5.058  0.0239 -0.0486  0.6711
   80MOL   C17119289   7.472   3.448   5.169  0.4327  0.2868  1.5717
   80MOL   C17219290   7.339   3.378   5.173 -0.0434 -0.4694 -0.0446
   80MOL   C17319291   7.269   3.388   5.034 -1.4287  0.2290 -0.3289
   80MOL   H17419292   7.523   3.426   4.964 -1.5563  2.0173  2.1165
   80MOL   H17519293   7.654   3.447   5.061  0.6334 -0.9860  0.8629
   80MOL   H17619294   7.529   3.411   5.255  2.2526 -0.3416  0.1411
   80MOL   H17719295   7.281   3.415   5.257  2.6954 -1.5792  2.3982
   80MOL   H17819296   7.351   3.270   5.186  0.9565 -0.4018 -0.3584
   80MOL   H17919297   7.265   3.490   4.997 -1.0023  0.3658 -0.0025
   80MOL   H18019298   7.325   3.328   4.962 -1.9659 -1.4731  0.6530
   80MOL   H18119299   7.170   3.342   5.026 -0.6813 -1.3881 -0.5735
   80MOL   C18219300   7.464   3.604   5.186  0.6352  0.4376  0.0354
   80MOL   C18319301   7.462   3.641   5.342  0.7497  0.6320 -0.2608
   80MOL   C18419302   7.369   3.755   5.386 -0.2557  0.1055 -0.4610
   80MOL   C18519303   7.392   3.895   5.327  0.1992 -0.4577 -0.3720
   80MOL   H18619304   7.376   3.646   5.137 -0.1687 -0.5111  0.6469
   80MOL   H18719305   7.546   3.662   5.143  1.2381  1.0611  1.9605
   80MOL   H18819306   7.414   3.553   5.384  0.2638  1.0330  0.0316
   80MOL   H18919307   7.361   3.773   5.493 -2.0400  0.9320 -0.7065
   80MOL   H19019308   7.269   3.725   5.354 -0.2118  0.2033 -0.6931
   80MOL   H19119309   7.390   3.883   5.218 -2.6272  0.7864 -0.4937
   80MOL   H19219310   7.328   3.971   5.371  0.2327 -1.2341  1.0355
   80MOL   H19319311   7.491   3.930   5.357 -0.1751  0.7790 -0.5297
   80MOL   C19419312   7.603   3.662   5.394 -0.2840  0.4734  0.3500
   80MOL   C19519313   7.617   3.673   5.558  0.6630 -0.6044  0.1803
   80MOL   C19619314   0.042   3.747   5.608 -0.4031 -0.5478  0.0478
   80MOL   C19719315   0.039   3.896   5.559  0.8376  0.1484 -0.1426
   80MOL   H19819316   7.658   3.747   5.353 -0.6678 -0.0332 -1.2634
   80MOL   H19919317   7.666   3.581   5.357 -0.5833  0.4780 -0.1859
   80MOL   H20019318   7.538   3.741   5.592 -0.1736 -1.3696 -0.1904
   80MOL   H20119319   0.137   3.700   5.581 -0.8181 -1.4654  0.1619
   80MOL   H20219320   0.060   3.770   5.713  2.9129 -0.6045 -0.4496
   80MOL   H20319321   7.697   3.920   5.464 -1.9516 -0.1510  1.1589
   80MOL   H20419322   7.682   3.955   5.625 -1.1117 -0.3007 -1.5529
   80MOL   H20519323   0.135   3.947   5.551  1.6502 -0.9833  2.1741
   80MOL   C20619324   7.582   3.536   5.617 -0.2560 -0.2831  0.2204
   80MOL   C20719325   7.546   3.534   5.765 -0.3804  0.3041 -0.1358
   80MOL   C20819326   7.428   3.617   5.809  0.2942 -0.3349 -0.0188
   80MOL   C20919327   7.286   3.591   5.749  0.2740  0.5847  0.0326
   80MOL   H21019328   7.665   3.467   5.602  0.2443  0.3242  0.1525
   80MOL   H21119329   7.496   3.493   5.565  0.6188 -0.8823 -0.7531
   80MOL   H21219330   7.508   3.436   5.794  0.6822 -0.2138 -0.4608
   80MOL   H21319331   7.456   3.722   5.798 -0.8621  0.1010  0.9984
   80MOL   H21419332   7.399   3.602   5.913 -0.4784  0.8433 -0.0506
   80MOL   H21519333   7.212   3.642   5.810 -0.8595  1.4335 -2.0143
   80MOL   H21619334   7.269   3.624   5.647 -0.2646 -0.6212 -0.2815
   80MOL   H21719335   7.264   3.484   5.753  0.4785  0.5865  1.6685
   80MOL   C21819336   7.673   3.539   5.863 -0.5782  0.1790  0.2345
   80MOL   C21919337   7.649   3.466   5.995  0.2776 -0.2876 -0.1999
   80MOL   C22019338   7.676   3.547   6.117 -0.3366  0.1198  0.7556
   80MOL   C22119339   7.575   3.667   6.132 -0.1769 -0.0060 -0.0924
   80MOL   H22219340   7.690   3.642   5.892 -0.2218 -0.6293  3.0450
   80MOL   H22319341   0.063   3.517   5.815  0.2481  2.0976  0.9424
   80MOL   H22419342   7.545   3.437   6.013 -0.3084  1.7422 -0.2523
   80MOL   H22519343   0.074   3.580   6.128 -0.3202  0.1222  0.6016
   80MOL   H22619344   7.665   3.478   6.201  0.2094 -1.5407 -0.5026
   80MOL   H22719345   7.590   3.725   6.223  0.6599  0.0112 -0.2367
   80MOL   H22819346   7.568   3.734   6.046  0.4415 -0.2919 -0.3661
   80MOL   H22919347   7.473   3.632   6.146 -0.6574  1.7187  1.0070
   80MOL   C23019348   0.019   3.326   6.007 -0.0161 -0.5146 -0.4156
   80MOL   C23119349   7.676   3.220   5.913 -0.3300  0.2786  0.1040
   80MOL   C23219350   0.048   3.096   5.918  0.4036  0.0593 -0.3909
   80MOL   C23319351   0.003   2.991   5.817  0.1666 -0.2554  0.1827
   80MOL   H23419352   0.007   3.291   6.109  0.0824  2.0613  0.5181
   80MOL   H23519353   0.126   3.336   5.991 -0.3171  1.2407 -1.4931
   80MOL   H23619354   7.570   3.209   5.938 -0.8306  2.8220 -0.7277
   80MOL   H23719355   0.041   3.040   6.012  0.4711  0.4664 -0.1400
   80MOL   H23819356   0.154   3.116   5.903  0.4239 -1.0744 -1.8910
   80MOL   H23919357   0.074   2.911   5.799  2.8120  1.4958  2.4516
   80MOL   H24019358   7.622   2.936   5.852 -1.6868  1.9984 -0.6933
   80MOL   H24119359   7.681   3.038   5.722 -0.0060 -0.1600  0.2803
   80MOL   H24219360   7.688   3.249   5.809 -0.3624  0.4910  0.1594
   81MOL     C119361   6.575   3.923   5.199 -0.5149 -0.4607  0.2102
   81MOL     C219362   6.421   3.880   5.203  0.1504  0.5819  0.2514
   81MOL     C319363   6.350   3.964   5.309  0.5959  0.3178 -0.3727
   81MOL     C419364   6.194   3.978   5.283 -0.1310  0.0588  0.2368
   81MOL     H519365   6.648   3.842   5.197 -1.0869 -0.9498 -2.6681
   81MOL     H619366   6.599   3.980   5.110  0.9357  1.6347  1.8864
   81MOL     H719367   6.382   3.901   5.103  0.6614 -2.0792 -0.5410
   81MOL     H819368   6.389   4.064   5.326  0.5061  0.4111 -0.7031
   81MOL     H919369   6.369   3.909   5.401  0.3138 -1.5723 -1.4146
   81MOL    H1019370   6.158   4.001   5.182 -1.3474 -2.2365  0.1032
   81MOL    H1119371   6.149   3.884   5.316 -1.2094  0.3700 -0.2972
   81MOL    H1219372   6.166   4.062   5.347 -1.5291  0.1396 -0.4625
   81MOL    H1319373   6.619   3.974   5.285  0.1189 -1.6829  0.6313
   81MOL    C1419374   6.402   3.722   5.234 -0.1754  0.6432  0.0591
   81MOL    C1519375   6.438   3.642   5.108  1.0537  0.4696  0.2665
   81MOL    C1619376   6.329   3.646   5.001  0.4231  0.2095 -0.2523
   81MOL    C1719377   6.353   3.596   4.867  0.4667  0.3620  0.5050
   81MOL    H1819378   6.302   3.698   5.270  0.0338 -0.6375 -0.1910
   81MOL    H1919379   6.463   3.696   5.320 -0.1883  1.6360  0.3749
   81MOL    H2019380   6.525   3.686   5.059  0.2367 -0.8376 -2.4708
   81MOL    H2119381   6.304   3.750   4.978 -4.2759 -0.6624  0.3181
   81MOL    H2219382   6.240   3.610   5.052  1.3691 -0.2374  1.0831
   81MOL    H2319383   6.281   3.624   4.790  2.3765 -0.8316 -1.8148
   81MOL    H2419384   6.446   3.638   4.830  0.6360  0.0991  0.6309
   81MOL    H2519385   6.359   3.487   4.869 -3.9840 -0.1228 -2.7540
   81MOL    C2619386   6.472   3.490   5.138  0.6461  0.5762 -1.0613
   81MOL    C2719387   6.616   3.443   5.106  0.0623  0.5069  0.0393
   81MOL    C2819388   6.634   3.289   5.093 -0.2101 -0.6350  0.4260
   81MOL    C2919389   6.544   3.227   4.982 -0.2827  0.7466  0.3124
   81MOL    H3019390   6.394   3.421   5.105 -0.4386  0.1939  2.1075
   81MOL    H3119391   6.475   3.476   5.246  1.3624 -2.1785 -1.4119
   81MOL    H3219392   6.638   3.469   5.003  1.7504 -2.2206 -0.3477
   81MOL    H3319393   6.592   3.235   5.178 -1.9556 -0.5290 -0.3482
   81MOL    H3419394   6.738   3.258   5.086  0.0498  0.1172  0.8615
   81MOL    H3519395   6.465   3.293   4.949 -0.4037  0.4786  0.0700
   81MOL    H3619396   6.601   3.215   4.890  0.0777  0.1277  0.6127
   81MOL    H3719397   6.507   3.129   5.012 -1.0836  0.7637 -0.5947
   81MOL    C3819398   6.723   3.511   5.191 -0.4908  1.0461  0.0475
   81MOL    C3919399   6.862   3.543   5.128  0.3380 -0.1575  0.3578
   81MOL    C4019400   6.973   3.582   5.234 -0.7471  0.5271 -0.8607
   81MOL    C4119401   6.994   3.472   5.333 -0.3985 -0.0608 -0.3057
   81MOL    H4219402   6.734   3.461   5.288 -3.4099  0.1326 -0.0199
   81MOL    H4319403   6.691   3.612   5.215 -0.6828  1.2600 -1.0822
   81MOL    H4419404   6.890   3.454   5.072 -1.3522  0.9506 -2.3388
   81MOL    H4519405   6.942   3.674   5.283 -2.0988  0.1924 -1.0667
   81MOL    H4619406   7.065   3.590   5.175 -1.5621 -0.6110 -2.3121
   81MOL    H4719407   7.074   3.494   5.405  0.3098  1.1178 -1.4354
   81MOL    H4819408   6.902   3.460   5.390  0.4143 -0.5257  0.9437
   81MOL    H4919409   7.022   3.379   5.283 -0.1079  0.6045 -1.3889
   81MOL    C5019410   6.841   3.652   5.012 -0.6767  0.2597  0.5711
   81MOL    C5119411   6.964   3.664   4.928  0.2214 -0.6409  0.5811
   81MOL    C5219412   7.019   3.812   4.928 -0.0764  0.0388  0.1891
   81MOL    C5319413   7.080   3.860   5.058 -0.3267 -0.7117 -0.0203
   81MOL    H5419414   6.817   3.747   5.059 -1.3104  0.4429 -0.1215
   81MOL    H5519415   6.761   3.637   4.940  0.2159 -2.9221  0.1377
   81MOL    H5619416   7.038   3.591   4.960  0.6806 -0.4367 -0.0196
   81MOL    H5719417   6.937   3.878   4.900 -0.5171  0.2285  1.8453
   81MOL    H5819418   7.097   3.821   4.853  0.7296  0.0816  1.0241
   81MOL    H5919419   7.014   3.877   5.143 -2.4970  1.4798 -2.0673
   81MOL    H6019420   7.162   3.793   5.087  2.8554  2.4448 -1.3310
   81MOL    H6119421   7.112   3.961   5.032 -1.3679  0.1402  1.8498
   81MOL    C6219422   6.944   3.637   4.776  0.4794 -0.3967  0.2626
   81MOL    C6319423   6.886   3.498   4.737  0.1028  0.4542 -0.2084
   81MOL    C6419424   6.986   3.378   4.764  0.4022  0.1048  0.0025
   81MOL    C6519425   6.925   3.239   4.736  0.3814 -0.3245  0.3549
   81MOL    H6619426   7.033   3.647   4.714  0.7098  0.6061  0.7354
   81MOL    H6719427   6.875   3.715   4.744 -0.7432 -1.3816  0.4181
   81MOL    H6819428   6.805   3.478   4.806 -0.6324 -3.9465 -2.1897
   81MOL    H6919429   7.004   3.382   4.871  0.8080  0.1753 -0.0671
   81MOL    H7019430   7.077   3.393   4.705 -1.0515 -1.1114 -2.6481
   81MOL    H7119431   6.827   3.226   4.781  0.4405  1.3423  1.0191
   81MOL    H7219432   6.909   3.225   4.629  0.2074 -1.5606  0.5425
   81MOL    H7319433   6.989   3.156   4.765  1.7281 -0.4791 -2.8363
   81MOL    C7419434   6.823   3.497   4.600 -0.7247  0.2806 -0.2734
   81MOL    C7519435   6.679   3.560   4.590  0.0395 -0.1330  0.3445
   81MOL    C7619436   6.572   3.468   4.650  0.4735 -0.0617 -0.7886
   81MOL    C7719437   6.572   3.325   4.588  0.8476  0.6509  0.1146
   81MOL    H7819438   6.818   3.398   4.555  1.3701  0.3858 -0.7732
   81MOL    H7919439   6.887   3.560   4.538  1.5914  0.7364  2.4622
   81MOL    H8019440   6.668   3.648   4.653 -0.5271  0.4382 -0.5449
   81MOL    H8119441   6.476   3.518   4.638 -0.6092 -2.1220 -0.8783
   81MOL    H8219442   6.596   3.448   4.754  0.9817 -0.9161 -1.0642
   81MOL    H8319443   6.519   3.254   4.651 -0.7907  2.9431  1.4335
   81MOL    H8419444   6.521   3.322   4.491 -0.0517 -3.6553  0.6134
   81MOL    H8519445   6.668   3.275   4.581  0.4405 -0.4192  1.8687
   81MOL    C8619446   6.651   3.608   4.450 -0.2481 -0.5995  0.2425
   81MOL    C8719447   6.552   3.724   4.428 -0.6614 -0.0485  0.2736
   81MOL    C8819448   6.472   3.717   4.295  0.1329 -0.1719 -0.4143
   81MOL    C8919449   6.382   3.599   4.268  0.1556 -0.1875 -0.0966
   81MOL    H9019450   6.605   3.523   4.400  3.0481 -1.4570 -1.4982
   81MOL    H9119451   6.740   3.625   4.389 -0.0656 -0.9242  0.4172
   81MOL    H9219452   6.476   3.715   4.506 -0.9422  1.3213  0.1694
   81MOL    H9319453   6.555   3.721   4.225  0.5161  1.3295  0.1032
   81MOL    H9419454   6.417   3.810   4.282  0.8221 -0.0537 -2.6120
   81MOL    H9519455   6.435   3.513   4.228  2.9676  1.1439  0.6710
   81MOL    H9619456   6.327   3.580   4.361  0.0786 -1.3769 -0.3758
   81MOL    H9719457   6.307   3.633   4.196 -1.0027 -0.5271  0.9149
   81MOL    C9819458   6.609   3.872   4.444 -0.1837  0.7956 -0.1047
   81MOL    C9919459   6.657   3.916   4.585  0.8594 -0.5203 -0.0791
   81MOL   C10019460   6.544   3.901   4.690  0.2642  0.0170 -0.0763
   81MOL   C10119461   6.589   3.937   4.835  0.9485  0.1320  0.1167
   81MOL   H10219462   6.522   3.937   4.428  0.9980  2.2918 -0.5812
   81MOL   H10319463   6.681   3.891   4.364  0.2368  1.5951  0.4619
   81MOL   H10419464   6.740   3.848   4.600  1.8937  1.0361  1.3495
   81MOL   H10519465   6.502   3.801   4.688 -0.2010  0.2095 -0.1661
   81MOL   H10619466   6.462   3.967   4.660 -0.3983 -0.0302  1.5575
   81MOL   H10719467   6.689   3.900   4.858  0.5856 -1.8670 -1.3836
   81MOL   H10819468   6.572   4.044   4.847  0.8373 -0.0515  1.7054
   81MOL   H10919469   6.516   3.900   4.907  3.4955 -2.1385  1.6520
   81MOL   C11019470   6.714   4.066   4.594  0.7793  0.8992  0.1630
   81MOL   C11119471   6.814   4.112   4.487 -0.2623 -0.1076  0.2556
   81MOL   C11219472   6.942   4.026   4.475 -0.0158 -0.5039  0.3173
   81MOL   C11319473   7.038   4.030   4.593 -0.3026 -0.0202  0.7936
   81MOL   H11419474   6.756   4.072   4.694 -1.4828 -2.6660  1.3905
   81MOL   H11519475   6.630   4.135   4.600 -1.0590 -1.5233  3.1087
   81MOL   H11619476   6.753   4.092   4.398  2.0816  1.5090 -1.7894
   81MOL   H11719477   6.998   4.053   4.386 -0.6037 -2.4671 -0.6652
   81MOL   H11819478   6.910   3.925   4.449 -2.6127  0.0187  1.2940
   81MOL   H11919479   7.122   3.963   4.576 -0.9997 -1.1495  1.7744
   81MOL   H12019480   7.069   4.133   4.611 -0.3624 -0.2317  2.1772
   81MOL   H12119481   6.992   4.000   4.687 -1.5805  1.9143  0.8178
   81MOL   C12219482   6.849   4.265   4.488 -0.1149  0.4827  0.1307
   81MOL   C12319483   6.872   4.320   4.348 -0.0019 -0.0928 -0.5856
   81MOL   C12419484   6.932   4.465   4.346  0.3928 -0.3716  0.0155
   81MOL   C12519485   7.062   4.491   4.423 -0.6899 -0.1516 -0.2795
   81MOL   H12619486   6.944   4.270   4.542  0.1395 -2.1867 -0.0292
   81MOL   H12719487   6.778   4.330   4.539  1.3524  0.1131  2.7221
   81MOL   H12819488   6.954   4.263   4.305  1.7616  2.6403 -0.9057
   81MOL   H12919489   6.861   4.541   4.380  0.6471  0.6458 -1.6228
   81MOL   H13019490   6.943   4.501   4.244 -0.9366  0.0975  0.0219
   81MOL   H13119491   7.080   4.431   4.512 -0.9528  1.0225  0.5683
   81MOL   H13219492   7.151   4.478   4.360 -1.3726 -0.5289 -1.1732
   81MOL   H13319493   7.059   4.592   4.463 -1.0014 -0.4362  0.4234
   81MOL   C13419494   6.747   4.323   4.254  0.2296  0.0333 -0.1616
   81MOL   C13519495   6.793   4.288   4.109  0.0545 -0.2246  0.5470
   81MOL   C13619496   6.695   4.349   4.000 -0.3001  0.0877 -0.1032
   81MOL   C13719497   6.641   4.492   4.022  0.0132  0.2963 -0.2241
   81MOL   H13819498   6.701   4.422   4.253  0.1067 -0.0279 -0.9945
   81MOL   H13919499   6.677   4.244   4.279 -2.2168  2.0606 -0.3662
   81MOL   H14019500   6.884   4.339   4.078  1.4932 -2.4805  0.9077
   81MOL   H14119501   6.607   4.285   3.987 -0.4543  0.3292 -0.2434
   81MOL   H14219502   6.743   4.352   3.902 -0.7101  3.9655 -0.2493
   81MOL   H14319503   6.597   4.537   3.933  0.3233  2.1538  0.5446
   81MOL   H14419504   6.563   4.494   4.097  0.7867  4.9579  0.6131
   81MOL   H14519505   6.720   4.563   4.047  0.4564  0.5198 -2.1163
   81MOL   C14619506   6.813   4.137   4.087 -0.0329 -0.0897 -0.1121
   81MOL   C14719507   6.847   4.078   3.952  1.0415 -0.4296 -0.7447
   81MOL   C14819508   6.830   3.923   3.953  0.3361 -0.1210 -0.0979
   81MOL   C14919509   6.940   3.840   4.024 -0.0469 -0.0308 -0.8015
   81MOL   H15019510   6.733   4.083   4.138  1.1132  0.5948  2.5039
   81MOL   H15119511   6.902   4.114   4.145  1.2778  1.4108 -1.5105
   81MOL   H15219512   6.768   4.117   3.888  0.6186  1.3688  0.8685
   81MOL   H15319513   6.803   3.893   3.852  0.5259  0.9792 -0.4791
   81MOL   H15419514   6.734   3.903   4.000 -0.7419 -0.0464 -2.2066
   81MOL   H15519515   6.950   3.881   4.125  2.4143  0.5191 -1.2408
   81MOL   H15619516   6.916   3.735   4.044  0.9670 -0.1312 -0.0237
   81MOL   H15719517   7.039   3.845   3.978  1.4647 -1.9159  2.0423
   81MOL   C15819518   6.974   4.128   3.898 -0.8525  0.5193 -0.2119
   81MOL   C15919519   6.991   4.103   3.741 -0.1035 -0.0161  0.4020
   81MOL   C16019520   7.136   4.096   3.685  0.3472 -0.0603  0.3302
   81MOL   C16119521   7.200   4.234   3.683 -0.2690  0.1787  0.1243
   81MOL   H16219522   7.045   4.071   3.957  0.1213  2.4725  0.5530
   81MOL   H16319523   6.987   4.234   3.923  2.3707 -0.0909  0.8249
   81MOL   H16419524   6.953   4.002   3.729  0.1782 -0.2419  1.3079
   81MOL   H16519525   7.145   4.054   3.585 -2.3369 -1.6370  0.7141
   81MOL   H16619526   7.195   4.034   3.753 -0.1894 -1.9691 -0.9092
   81MOL   H16719527   7.153   4.299   3.609  0.2554  0.6698  0.2253
   81MOL   H16819528   7.211   4.280   3.780 -0.0368 -0.1727  0.2647
   81MOL   H16919529   7.301   4.232   3.642 -0.4720  0.4131 -0.3968
   81MOL   C17019530   6.906   4.199   3.651  0.2719 -0.5230 -0.7779
   81MOL   C17119531   6.895   4.169   3.504 -0.6051 -0.6607  0.2687
   81MOL   C17219532   6.809   4.272   3.426 -0.4057  0.0287  0.4429
   81MOL   C17319533   6.659   4.265   3.454  0.1208  0.4279  0.1878
   81MOL   H17419534   6.928   4.306   3.653 -2.8170  0.1871 -1.8983
   81MOL   H17519535   6.808   4.186   3.698  2.2039 -0.0411  3.6620
   81MOL   H17619536   6.996   4.193   3.469  0.1703 -1.0776  2.1433
   81MOL   H17719537   6.825   4.275   3.318 -2.3311  0.5580  0.1412
   81MOL   H17819538   6.836   4.370   3.467 -0.7342 -0.7076  2.4347
   81MOL   H17919539   6.615   4.174   3.411  1.9736 -1.0938  1.4084
   81MOL   H18019540   6.632   4.276   3.559  0.7530  0.8541  0.3085
   81MOL   H18119541   6.607   4.338   3.393 -2.2433 -1.2095  0.1868
   81MOL   C18219542   6.851   4.025   3.469  0.2773  0.1827  0.1819
   81MOL   C18319543   6.802   3.979   3.328  0.2793  0.8297 -0.0562
   81MOL   C18419544   6.753   3.837   3.327  0.0677  0.5086 -0.3965
   81MOL   C18519545   6.612   3.811   3.372  0.0489 -0.7098  0.2141
   81MOL   H18619546   6.783   3.980   3.542 -0.0303 -1.4133 -1.0667
   81MOL   H18719547   6.932   3.958   3.499 -0.7804 -1.3018 -0.1796
   81MOL   H18819548   6.717   4.037   3.292  0.6825  1.7294  0.4184
   81MOL   H18919549   6.825   3.771   3.375  2.6910  3.0079 -0.7858
   81MOL   H19019550   6.754   3.800   3.225  0.0411  1.8868 -0.9123
   81MOL   H19119551   6.544   3.886   3.330 -0.7962 -0.7242  1.5069
   81MOL   H19219552   6.585   3.708   3.348 -2.6239  0.0516 -0.2665
   81MOL   H19319553   6.605   3.821   3.480  3.3800 -0.8164  0.4800
   81MOL   C19419554   6.916   4.001   3.223 -0.7691  0.9180  0.7333
   81MOL   C19519555   6.878   3.992   3.068 -0.2120  0.0667  0.2458
   81MOL   C19619556   7.001   3.986   2.976 -1.1435 -1.0978 -1.1610
   81MOL   C19719557   7.072   3.845   2.974  0.4181 -0.2091 -0.2279
   81MOL   H19819558   6.992   3.926   3.245 -0.8514 -0.1343 -2.2909
   81MOL   H19919559   6.969   4.093   3.248  0.6767  0.2739  0.0500
   81MOL   H20019560   6.840   3.893   3.045 -0.5184 -0.5615  3.1831
   81MOL   H20119561   7.071   4.061   3.014  0.0828 -2.7435 -0.0760
   81MOL   H20219562   6.969   4.007   2.874 -0.3852 -2.8177 -1.7673
   81MOL   H20319563   7.159   3.840   2.908  0.4597  2.1387 -0.3966
   81MOL   H20419564   7.098   3.797   3.069 -2.9667 -0.2932  0.7033
   81MOL   H20519565   7.000   3.769   2.944 -0.8330  0.7770  0.2223
   81MOL   C20619566   6.781   4.107   3.032 -0.1611 -0.2114  0.2192
   81MOL   C20719567   6.692   4.101   2.910  0.2771 -0.4633  0.1099
   81MOL   C20819568   6.598   4.223   2.912 -0.2256 -0.5526 -0.5995
   81MOL   C20919569   6.680   4.357   2.904 -0.1383 -0.4725  0.9095
   81MOL   H21019570   6.856   4.186   3.026 -0.7624  0.2540 -1.2815
   81MOL   H21119571   6.711   4.140   3.108 -0.9574 -0.0552 -0.5855
   81MOL   H21219572   6.767   4.101   2.831  1.2578  0.3816  1.0174
   81MOL   H21319573   6.529   4.219   2.995  0.9448  0.4365  0.4443
   81MOL   H21419574   6.540   4.221   2.820 -3.0443 -1.7457  1.1524
   81MOL   H21519575   6.626   4.438   2.855  0.2679 -0.9638 -0.3793
   81MOL   H21619576   6.708   4.387   3.005  1.4723 -1.0300  0.6517
   81MOL   H21719577   6.775   4.358   2.850 -1.6188  0.3297 -1.7677
   81MOL   C21819578   6.609   3.970   2.897 -0.1235  0.0963  0.7173
   81MOL   C21919579   6.531   3.953   2.769 -0.0118  0.0957 -0.0359
   81MOL   C22019580   6.461   3.817   2.770 -0.3916  0.3121 -0.2372
   81MOL   C22119581   6.364   3.792   2.887  0.1911  0.2820 -0.3209
   81MOL   H22219582   6.554   3.956   2.990 -0.4101  0.5169  0.6115
   81MOL   H22319583   6.684   3.892   2.913  1.2358  0.9073 -1.4342
   81MOL   H22419584   6.442   4.016   2.775 -0.3838 -0.6839  3.0969
   81MOL   H22519585   6.533   3.737   2.754 -0.1519  0.0643  1.9415
   81MOL   H22619586   6.403   3.817   2.678  0.0462 -0.4407 -0.5142
   81MOL   H22719587   6.322   3.691   2.890 -0.0103  0.3376 -1.0726
   81MOL   H22819588   6.413   3.802   2.984 -1.8583 -1.0046  0.8715
   81MOL   H22919589   6.280   3.862   2.885 -0.3979 -0.4493 -3.3930
   81MOL   C23019590   6.612   3.987   2.636  0.6387  0.7548 -0.1158
   81MOL   C23119591   6.744   3.899   2.609 -0.3681 -0.2632 -0.3634
   81MOL   C23219592   6.817   3.929   2.473 -0.1489 -0.4612  0.1125
   81MOL   C23319593   6.868   4.084   2.463  0.1307  0.5376 -0.0286
   81MOL   H23419594   6.633   4.094   2.632  0.6529  0.7699  0.2962
   81MOL   H23519595   6.538   3.960   2.560 -0.3902 -0.9599  1.4580
   81MOL   H23619596   6.817   3.926   2.686  0.7895 -0.1863 -1.4726
   81MOL   H23719597   6.764   3.890   2.386 -1.6329 -1.6313  1.5230
   81MOL   H23819598   6.909   3.874   2.456 -0.9472 -1.2197 -1.9220
   81MOL   H23919599   6.938   4.104   2.543 -0.0451 -2.3383  0.9016
   81MOL   H24019600   6.920   4.105   2.369  1.4011  1.0587  0.7892
   81MOL   H24119601   6.787   4.155   2.479 -1.6989 -1.1469 -1.3947
   81MOL   H24219602   6.733   3.792   2.629 -0.5416 -0.6679 -2.5519
   82MOL     C119603   3.714   6.816   6.574 -0.9510 -0.1489  0.5534
   82MOL     C219604   3.569   6.873   6.576  0.4302 -0.1894 -0.9433
   82MOL     C319605   3.554   6.989   6.482 -0.0664 -0.1214 -0.0654
   82MOL     C419606   3.530   6.946   6.332 -0.5472 -0.5821 -0.0060
   82MOL     H519607   3.725   6.717   6.619 -0.2539  0.3781  1.5733
   82MOL     H619608   3.736   6.817   6.468 -3.3778  2.9341 -0.0188
   82MOL     H719609   3.498   6.795   6.546 -0.2949  0.1323 -0.1186
   82MOL     H819610   3.640   7.055   6.488  0.3657 -0.8394  1.8334
   82MOL     H919611   3.478   7.058   6.518 -0.7543 -2.0615  2.3716
   82MOL    H1019612   3.558   7.024   6.261  4.5934 -0.0231  2.3489
   82MOL    H1119613   3.595   6.863   6.305  0.3440 -0.3320  1.2640
   82MOL    H1219614   3.425   6.923   6.317 -1.4511  2.8449  0.5211
   82MOL    H1319615   3.786   6.883   6.621  0.3523 -2.3416  1.7774
   82MOL    C1419616   3.535   6.914   6.726  0.5256 -0.4272 -0.2799
   82MOL    C1519617   3.388   6.933   6.777 -0.2396 -0.5897  0.7996
   82MOL    C1619618   3.377   7.001   6.917 -0.0370  0.9035  0.9893
   82MOL    C1719619   3.468   7.116   6.944  0.6674 -0.6966  0.2765
   82MOL    H1819620   3.605   6.993   6.753  2.2376 -1.7286 -0.8159
   82MOL    H1919621   3.589   6.841   6.787  0.7741 -0.0667 -0.0644
   82MOL    H2019622   3.336   6.996   6.706  1.3157 -0.6104 -0.3988
   82MOL    H2119623   3.388   6.920   6.989 -1.7371 -0.0354  0.2361
   82MOL    H2219624   3.273   7.026   6.940 -0.9542 -1.8178  0.0119
   82MOL    H2319625   3.450   7.150   7.046  2.5505  0.3254  0.2906
   82MOL    H2419626   3.572   7.084   6.945  0.8992 -0.0699 -1.4580
   82MOL    H2519627   3.464   7.192   6.865 -0.2278 -1.2039 -0.1722
   82MOL    C2619628   3.303   6.804   6.767  0.4550  0.5337 -0.3636
   82MOL    C2719629   3.217   6.797   6.638 -0.6149 -0.3860 -0.4564
   82MOL    C2819630   3.095   6.889   6.638 -0.5101  0.0301 -0.1942
   82MOL    C2919631   3.048   6.900   6.500 -0.3857 -0.0853  0.0804
   82MOL    H3019632   3.234   6.803   6.852 -0.0205 -1.6927 -0.7498
   82MOL    H3119633   3.367   6.718   6.785 -1.7070 -1.0317  0.0556
   82MOL    H3219634   3.286   6.828   6.559  1.7379  0.0486  1.6992
   82MOL    H3319635   3.117   6.984   6.688 -0.3648 -0.2092  0.2061
   82MOL    H3419636   3.017   6.846   6.702 -1.6930 -0.8452 -2.1954
   82MOL    H3519637   3.120   6.939   6.429 -1.9017  0.9839 -0.9027
   82MOL    H3619638   2.993   6.812   6.465 -1.8982  1.8970 -2.7488
   82MOL    H3719639   2.962   6.965   6.512 -1.8432 -1.8227 -0.6603
   82MOL    C3819640   3.174   6.651   6.614 -1.0561 -0.4157 -0.0715
   82MOL    C3919641   3.290   6.574   6.553 -0.3267 -0.5717  0.2145
   82MOL    C4019642   3.305   6.589   6.401 -0.1065  0.3846 -0.4137
   82MOL    C4119643   3.186   6.556   6.307 -0.4756  0.4694 -0.5599
   82MOL    H4219644   3.090   6.646   6.546  0.0310 -1.9043 -1.3569
   82MOL    H4319645   3.149   6.604   6.709  1.0495 -0.6299  0.3990
   82MOL    H4419646   3.379   6.610   6.605  2.1279 -2.8210 -2.2853
   82MOL    H4519647   3.390   6.533   6.364 -1.9324 -2.1088 -0.9776
   82MOL    H4619648   3.325   6.694   6.378 -1.5603  0.6497 -0.5681
   82MOL    H4719649   3.141   6.461   6.335  0.9920  0.9252  3.8613
   82MOL    H4819650   3.102   6.622   6.326  0.2540  1.1626  0.3105
   82MOL    H4919651   3.202   6.557   6.199 -0.3371  1.1051 -0.5361
   82MOL    C5019652   3.282   6.430   6.602  0.4105 -0.0836 -0.5403
   82MOL    C5119653   3.409   6.347   6.571  0.4605 -0.1722  0.4320
   82MOL    C5219654   3.373   6.205   6.526 -0.0636 -0.1035 -0.0912
   82MOL    C5319655   3.294   6.123   6.632  0.1105  0.1320 -0.1263
   82MOL    H5419656   3.194   6.389   6.553 -0.3814  0.9094  0.0305
   82MOL    H5519657   3.269   6.430   6.710 -0.1830  1.2345 -0.5946
   82MOL    H5619658   3.465   6.390   6.488  0.0520  0.3596  0.4298
   82MOL    H5719659   3.468   6.161   6.494  1.7529  2.7999  1.0693
   82MOL    H5819660   3.314   6.207   6.434 -2.0221 -1.0127  1.1231
   82MOL    H5919661   3.278   6.027   6.583  0.2926 -0.9692  1.8815
   82MOL    H6019662   3.357   6.107   6.720 -2.3730 -0.0417  1.6862
   82MOL    H6119663   3.195   6.154   6.666 -0.7343 -1.4527 -1.0549
   82MOL    C6219664   3.510   6.337   6.692 -0.6309 -0.4412 -0.5925
   82MOL    C6319665   3.647   6.277   6.675 -0.1411 -0.0995 -0.6614
   82MOL    C6419666   3.701   6.256   6.818  0.3534 -0.2300 -0.2827
   82MOL    C6519667   3.748   6.386   6.888  0.2267  0.0137  0.4446
   82MOL    H6619668   3.462   6.299   6.782  1.5374 -1.4749  0.1486
   82MOL    H6719669   3.525   6.440   6.724  0.5977 -1.0921  1.0052
   82MOL    H6819670   3.630   6.173   6.644 -1.1264 -0.7983  2.0608
   82MOL    H6919671   3.787   6.189   6.821 -0.5031 -1.3145  0.6958
   82MOL    H7019672   3.635   6.204   6.888  0.2430  1.1818  0.6713
   82MOL    H7119673   3.784   6.343   6.982  1.4111  0.6763  0.2996
   82MOL    H7219674   3.826   6.441   6.837  0.9061 -2.2035 -0.9851
   82MOL    H7319675   3.658   6.447   6.896  0.0849  0.2646 -2.5619
   82MOL    C7419676   3.752   6.352   6.585 -0.4645  0.0470  0.3613
   82MOL    C7519677   3.889   6.285   6.567  0.0860  0.3576 -0.3987
   82MOL    C7619678   3.994   6.387   6.520  0.1079 -0.0166  0.5108
   82MOL    C7719679   3.979   6.455   6.384  0.4157 -0.5141  0.1648
   82MOL    H7819680   3.755   6.458   6.609  0.1307  0.2122 -0.4189
   82MOL    H7919681   3.702   6.363   6.489 -1.4243  0.6544  0.9282
   82MOL    H8019682   3.927   6.249   6.662  1.2786 -1.0265 -1.3760
   82MOL    H8119683   4.092   6.342   6.539  1.7955  2.4400 -2.1047
   82MOL    H8219684   3.988   6.470   6.591 -1.0416  0.7242 -0.4396
   82MOL    H8319685   4.005   6.385   6.305 -0.8765 -2.9220  1.8157
   82MOL    H8419686   3.880   6.500   6.376  0.3215 -0.4443  1.5989
   82MOL    H8519687   4.054   6.533   6.389  1.1307 -1.0500 -1.6280
   82MOL    C8619688   3.881   6.161   6.469 -0.0478  0.4640  0.2720
   82MOL    C8719689   3.991   6.052   6.468 -0.1656  0.0398  0.0211
   82MOL    C8819690   3.983   5.968   6.344 -0.5208 -0.5415 -0.1050
   82MOL    C8919691   3.861   5.869   6.345  0.0657 -0.9303 -0.4001
   82MOL    H9019692   3.857   6.205   6.372  1.9210  0.2841 -0.3192
   82MOL    H9119693   3.791   6.103   6.490  1.7147 -2.2230  0.6890
   82MOL    H9219694   4.085   6.106   6.474  0.9636 -1.9988  1.2699
   82MOL    H9319695   4.083   5.930   6.324  0.1196  1.6431 -1.2655
   82MOL    H9419696   3.964   6.038   6.263 -0.7055  0.8419  1.0944
   82MOL    H9519697   3.846   5.825   6.246  0.1007 -0.9488 -0.3967
   82MOL    H9619698   3.871   5.785   6.414  0.1821  1.6682  2.8337
   82MOL    H9719699   3.767   5.917   6.370  0.7420 -0.8028  2.0083
   82MOL    C9819700   3.983   5.970   6.599 -0.3006 -0.2510 -0.8523
   82MOL    C9919701   4.073   5.847   6.620 -0.4403  0.2007  0.2579
   82MOL   C10019702   4.045   5.797   6.762  0.1474 -0.4824  0.2453
   82MOL   C10119703   3.910   5.730   6.780 -0.0922  0.1488  0.0682
   82MOL   H10219704   3.884   5.924   6.600 -0.8896  0.9917 -0.9776
   82MOL   H10319705   3.983   6.044   6.679  0.0281  0.4885 -1.5239
   82MOL   H10419706   4.046   5.765   6.553 -3.2263  1.5547 -0.3495
   82MOL   H10519707   4.056   5.881   6.829  0.3619 -0.4219  0.1372
   82MOL   H10619708   4.130   5.734   6.788 -0.4518 -2.9096 -3.2745
   82MOL   H10719709   3.895   5.657   6.700  1.2409  0.5604 -0.5737
   82MOL   H10819710   3.896   5.681   6.877  1.6269  0.2088  0.3713
   82MOL   H10919711   3.832   5.804   6.764  0.6047  0.8773  0.0241
   82MOL   C11019712   4.222   5.886   6.598 -0.5463 -0.5015 -0.0281
   82MOL   C11119713   4.342   5.776   6.599  0.7639 -0.4085 -0.0324
   82MOL   C11219714   4.486   5.828   6.599 -0.2329  0.2006 -0.3537
   82MOL   C11319715   4.534   5.849   6.741  0.0979  0.4122 -0.4059
   82MOL   H11419716   4.236   5.956   6.680 -1.2459 -1.2409  0.7380
   82MOL   H11519717   4.239   5.937   6.503 -2.1555  1.1010  0.5216
   82MOL   H11619718   4.331   5.716   6.689 -1.8462 -0.0981 -0.0966
   82MOL   H11719719   4.486   5.921   6.543 -2.8560  2.7693  3.6140
   82MOL   H11819720   4.556   5.761   6.550 -0.2240  0.8521 -1.2390
   82MOL   H11919721   4.528   5.754   6.794  1.0043  1.1165  0.9957
   82MOL   H12019722   4.636   5.885   6.733  0.2691  0.1796  0.6328
   82MOL   H12119723   4.475   5.929   6.787 -1.2502 -0.7602 -0.0480
   82MOL   C12219724   4.315   5.680   6.483  0.3104 -0.1175 -0.7772
   82MOL   C12319725   4.373   5.536   6.490 -0.2670 -0.1319 -0.2565
   82MOL   C12419726   4.393   5.482   6.346  0.2900 -0.2685 -0.3799
   82MOL   C12519727   4.523   5.534   6.281  0.5272 -0.3148 -0.6549
   82MOL   H12619728   4.344   5.733   6.393  1.5431 -0.9140 -0.8606
   82MOL   H12719729   4.210   5.676   6.454  0.1816 -0.7876 -0.2232
   82MOL   H12819730   4.473   5.550   6.529 -0.9464  0.6412  1.2227
   82MOL   H12919731   4.296   5.495   6.300  0.4956 -0.2180 -0.8050
   82MOL   H13019732   4.408   5.374   6.340 -0.9490 -0.5608  1.3222
   82MOL   H13119733   4.615   5.528   6.339  0.4919 -0.5292 -0.6192
   82MOL   H13219734   4.548   5.493   6.184  1.3195  0.2683 -0.7033
   82MOL   H13319735   4.515   5.642   6.271 -0.6917 -0.3699 -0.3724
   82MOL   C13419736   4.304   5.439   6.588 -0.3587  0.0646 -0.3963
   82MOL   C13519737   4.391   5.314   6.624 -0.2147  0.4445 -0.0086
   82MOL   C13619738   4.309   5.183   6.606 -0.1229 -0.1665 -0.2519
   82MOL   C13719739   4.175   5.167   6.682  0.1376  0.4398  0.0065
   82MOL   H13819740   4.205   5.418   6.548 -1.3642  1.5014  1.2603
   82MOL   H13919741   4.285   5.498   6.678  2.4143 -0.0762  0.3426
   82MOL   H14019742   4.473   5.301   6.554 -0.6962 -0.9595 -0.3216
   82MOL   H14119743   4.369   5.097   6.633  0.0286  0.2394  0.7424
   82MOL   H14219744   4.294   5.179   6.498 -1.1454 -0.6201 -0.1030
   82MOL   H14319745   4.177   5.067   6.726  0.0872  1.1079  1.5763
   82MOL   H14419746   4.147   5.232   6.766  0.6041  0.2604  0.3025
   82MOL   H14519747   4.094   5.177   6.610 -1.2077  1.6227  1.6256
   82MOL   C14619748   4.442   5.318   6.774  1.0270 -0.2097 -0.4625
   82MOL   C14719749   4.547   5.430   6.814 -0.0641 -0.1748  0.5676
   82MOL   C14819750   4.680   5.418   6.733 -0.2591  0.5436  0.1032
   82MOL   C14919751   4.756   5.281   6.750  0.1199 -0.0316 -0.0208
   82MOL   H15019752   4.494   5.222   6.780 -0.4102 -1.0292 -0.8121
   82MOL   H15119753   4.362   5.316   6.848  1.4214  0.2647 -0.0113
   82MOL   H15219754   4.505   5.528   6.789  0.9097  0.0294 -0.2729
   82MOL   H15319755   4.749   5.498   6.761  1.0510 -0.1837 -0.9959
   82MOL   H15419756   4.661   5.433   6.627 -0.9760  0.7205  0.2594
   82MOL   H15519757   4.850   5.277   6.695 -0.1993 -1.0482 -0.5063
   82MOL   H15619758   4.789   5.257   6.851  0.7103  0.2985 -0.1375
   82MOL   H15719759   4.701   5.194   6.714  3.8083 -2.4912  0.0861
   82MOL   C15819760   4.569   5.435   6.965  0.7188  0.7953 -0.0474
   82MOL   C15919761   4.451   5.421   7.065 -0.3128  0.4795 -0.1645
   82MOL   C16019762   4.340   5.529   7.047 -0.2240 -0.3662 -0.5644
   82MOL   C16119763   4.390   5.666   7.057 -0.7504  0.1379  0.0044
   82MOL   H16219764   4.629   5.524   6.985 -0.7310  1.6358  0.6489
   82MOL   H16319765   4.641   5.357   6.989  1.3778  0.2863 -3.4773
   82MOL   H16419766   4.402   5.325   7.047  2.7908 -1.7712  2.9045
   82MOL   H16519767   4.262   5.533   7.123 -0.9032 -1.4415 -1.1920
   82MOL   H16619768   4.290   5.520   6.950 -1.2799 -0.7907  0.0077
   82MOL   H16719769   4.434   5.692   7.153  1.5659  0.7655 -1.1818
   82MOL   H16819770   4.470   5.691   6.987 -0.9871  1.2081  0.1066
   82MOL   H16919771   4.303   5.730   7.040 -1.5766 -1.1687 -0.7369
   82MOL   C17019772   4.489   5.416   7.213  0.0227  0.0849  0.0829
   82MOL   C17119773   4.598   5.318   7.262 -0.1816  0.6075 -0.1073
   82MOL   C17219774   4.552   5.169   7.254 -0.9314 -0.5446  0.7136
   82MOL   C17319775   4.664   5.064   7.235  0.1577  0.6317 -0.6172
   82MOL   H17419776   4.400   5.391   7.270 -0.5498  0.8507 -0.4541
   82MOL   H17519777   4.517   5.518   7.239 -0.1284 -0.4269  2.2739
   82MOL   H17619778   4.691   5.329   7.206  1.4525 -2.6295  1.8089
   82MOL   H17719779   4.488   5.158   7.166  2.4890 -1.4781 -1.7999
   82MOL   H17819780   4.491   5.140   7.340 -3.1875 -0.5801 -0.8428
   82MOL   H17919781   4.629   4.963   7.213  2.5375 -0.3112 -0.2197
   82MOL   H18019782   4.731   5.095   7.155  0.0181  1.2177 -0.5039
   82MOL   H18119783   4.732   5.058   7.320 -1.1232 -0.8785  0.3350
   82MOL   C18219784   4.640   5.351   7.408  0.1967 -0.0334  0.3124
   82MOL   C18319785   4.683   5.496   7.441 -0.4812 -0.2332  0.0925
   82MOL   C18419786   4.797   5.549   7.353  0.0034  0.0495 -0.0135
   82MOL   C18519787   4.750   5.667   7.259  0.6770  0.2476 -0.7181
   82MOL   H18619788   4.721   5.284   7.435 -0.0708 -0.4826  0.0047
   82MOL   H18719789   4.557   5.317   7.471  1.0381 -1.2587  0.7797
   82MOL   H18819790   4.603   5.570   7.435 -1.0522 -0.8187  0.3461
   82MOL   H18919791   4.840   5.475   7.285 -1.7855 -2.1282  1.1355
   82MOL   H19019792   4.877   5.602   7.405 -1.8382  3.3143 -0.3847
   82MOL   H19119793   4.841   5.719   7.228  1.0210 -0.0221 -0.1769
   82MOL   H19219794   4.703   5.628   7.169 -2.1298  0.2169  0.7073
   82MOL   H19319795   4.679   5.726   7.318 -0.4344 -1.7082 -0.0618
   82MOL   C19419796   4.716   5.493   7.588 -0.3505  0.2745 -0.5365
   82MOL   C19519797   4.736   5.636   7.660  0.2435  0.0372 -0.6043
   82MOL   C19619798   4.810   5.618   0.088  0.2130  0.4343  0.5192
   82MOL   C19719799   4.954   5.581   0.069  0.4415 -0.0488 -0.5906
   82MOL   H19819800   4.800   5.424   7.602 -1.8065 -1.5594 -0.7255
   82MOL   H19919801   4.634   5.438   7.633  0.3275  2.3123  3.3928
   82MOL   H20019802   4.799   5.696   7.594 -0.6128  0.2256 -1.2610
   82MOL   H20119803   4.757   5.539   0.140 -0.8963  1.7776  1.4476
   82MOL   H20219804   4.800   5.713   0.140  2.3656  1.3051 -0.5774
   82MOL   H20319805   5.004   5.555   0.162 -1.3324 -1.9772 -0.1203
   82MOL   H20419806   4.966   5.497   0.001 -3.0540 -0.1844 -1.1365
   82MOL   H20519807   5.004   5.662   0.017  1.1690 -0.4560 -0.5296
   82MOL   C20619808   4.601   5.702   7.680  0.0609 -0.7783  0.3903
   82MOL   C20719809   4.604   5.850   0.029 -0.2841  1.2269 -0.0101
   82MOL   C20819810   4.461   5.885   0.084  0.3297  0.4092 -0.0302
   82MOL   C20919811   4.430   5.841   0.224 -0.3167  0.0452 -0.0567
   82MOL   H21019812   4.554   5.646   0.055  1.4461 -0.9746  1.0812
   82MOL   H21119813   4.542   5.700   7.589 -0.3826 -1.2595  0.6847
   82MOL   H21219814   4.671   5.865   0.114 -0.1671 -0.8102  0.2645
   82MOL   H21319815   4.389   5.838   0.017  0.2363  0.3127  0.1397
   82MOL   H21419816   4.430   5.988   0.067 -0.8613  0.0101 -0.2993
   82MOL   H21519817   4.323   5.854   0.245 -0.9930 -2.1143 -1.9416
   82MOL   H21619818   4.448   5.736   0.248  0.9502  0.6197  1.5771
   82MOL   H21719819   4.484   5.895   0.302  0.5948  1.4282 -1.6324
   82MOL   C21819820   4.662   5.953   7.628  0.0943  0.1573 -0.2247
   82MOL   C21919821   4.723   6.092   7.680  0.0126 -0.9012 -0.9414
   82MOL   C22019822   4.748   6.201   7.569  0.4105 -0.0162 -0.8596
   82MOL   C22119823   4.627   6.266   7.518 -0.5443 -0.2680 -0.1748
   82MOL   H22219824   4.591   5.977   7.549 -1.4656 -0.7320  0.8830
   82MOL   H22319825   4.747   5.912   7.574 -0.6274  1.0579 -2.1017
   82MOL   H22419826   4.650   6.136   0.041 -0.3057 -1.8260 -0.6815
   82MOL   H22519827   4.804   6.164   7.483  2.7921  1.5237 -0.0275
   82MOL   H22619828   4.807   6.277   7.620 -1.0997  0.8494 -0.3596
   82MOL   H22719829   4.564   6.306   7.598  1.2284 -1.6402  1.9664
   82MOL   H22819830   4.667   6.339   7.448 -0.9251 -0.1818 -0.3056
   82MOL   H22919831   4.564   6.203   7.456  0.1301 -0.3050 -0.8248
   82MOL   C23019832   4.847   6.077   0.067  0.0594  0.2218 -0.6931
   82MOL   C23119833   4.965   6.004   0.001 -0.1700 -0.0163 -0.4923
   82MOL   C23219834   5.066   5.967   0.102 -0.2778  0.1202 -0.7154
   82MOL   C23319835   5.158   6.078   0.160  0.0452 -0.2862 -0.2378
   82MOL   H23419836   4.816   6.020   0.154  4.4262  1.4366  1.7916
   82MOL   H23519837   4.885   6.172   0.106 -1.3794  0.3893  0.3690
   82MOL   H23619838   4.943   5.915   7.647  1.0120 -1.3187  0.9742
   82MOL   H23719839   5.125   5.887   0.058 -1.7329 -0.8276 -0.9965
   82MOL   H23819840   5.013   5.903   0.173 -0.7743  1.0233 -0.2591
   82MOL   H23919841   5.221   6.115   0.079 -0.3818  0.6972 -0.1270
   82MOL   H24019842   5.099   6.166   0.187 -0.1983 -0.6205  0.3205
   82MOL   H24119843   5.210   6.044   0.250 -1.5801 -2.4209 -0.0701
   82MOL   H24219844   5.018   6.081   7.651 -1.1206  1.7897  1.0521
   83MOL     C119845   1.577   5.916   4.680  0.1976  0.9265 -0.5101
   83MOL     C219846   1.580   6.055   4.616 -0.2926 -0.3192 -0.1441
   83MOL     C319847   1.649   6.158   4.701 -0.5228  0.3891  0.4277
   83MOL     C419848   1.700   6.287   4.626  0.0579 -0.5893  0.6973
   83MOL     H519849   1.534   5.904   4.780  1.0061  0.2229 -0.2410
   83MOL     H619850   1.528   5.850   4.608  2.2222  0.4282 -1.4548
   83MOL     H719851   1.646   6.028   4.533 -0.3749  1.2414 -0.7246
   83MOL     H819852   1.733   6.113   4.754  0.0087  1.4236  0.4884
   83MOL     H919853   1.588   6.199   4.782 -3.5077  2.5146 -2.7640
   83MOL    H1019854   1.743   6.271   4.528 -2.7250 -2.0509 -0.3534
   83MOL    H1119855   1.619   6.357   4.605  2.0316  1.4349 -0.3596
   83MOL    H1219856   1.760   6.355   4.687 -1.1189 -0.6717  1.9914
   83MOL    H1319857   1.675   5.873   4.702  0.1245  1.5498  1.1369
   83MOL    C1419858   1.443   6.099   4.558 -0.2163 -0.5028  0.1147
   83MOL    C1519859   1.417   6.055   4.415 -0.2776  0.1147  0.3060
   83MOL    C1619860   1.502   6.134   4.312  0.0944  0.4678  0.3215
   83MOL    C1719861   1.463   6.279   4.281 -0.2881 -0.2151  0.3861
   83MOL    H1819862   1.435   6.207   4.551  0.3620 -0.3796  1.2456
   83MOL    H1919863   1.368   6.070   4.631  1.6166 -0.6878  1.9799
   83MOL    H2019864   1.450   5.952   4.408 -0.7939 -0.0104 -0.3428
   83MOL    H2119865   1.510   6.071   4.224  2.0914 -1.1023  1.5753
   83MOL    H2219866   1.605   6.141   4.348  0.1656 -0.4965  0.3116
   83MOL    H2319867   1.430   6.327   4.373  0.2469  1.5041 -0.2807
   83MOL    H2419868   1.551   6.334   4.246  0.8671 -2.9801 -1.2162
   83MOL    H2519869   1.391   6.290   4.200 -0.7304  1.3568  0.9774
   83MOL    C2619870   1.264   6.053   4.391  0.3330  0.3993  0.1392
   83MOL    C2719871   1.187   5.926   4.447  0.2599  0.4362  0.2135
   83MOL    C2819872   1.240   5.793   4.390  0.2574  0.3274 -0.2329
   83MOL    C2919873   1.259   5.793   4.239  0.5909  0.3929  0.9302
   83MOL    H3019874   1.247   6.073   4.285 -0.9710 -1.2148  0.0200
   83MOL    H3119875   1.226   6.143   4.440 -2.1600  0.0945 -1.1670
   83MOL    H3219876   1.201   5.913   4.554  1.0785 -0.6831 -0.0204
   83MOL    H3319877   1.175   5.711   4.418  0.4213  0.1588 -0.3442
   83MOL    H3419878   1.335   5.753   4.427  0.4611 -0.7191 -1.8354
   83MOL    H3519879   1.352   5.843   4.212  0.3109 -0.5403 -1.8778
   83MOL    H3619880   1.270   5.691   4.204  1.0582 -0.1658  2.6430
   83MOL    H3719881   1.170   5.819   4.182  1.1331 -1.9012 -1.0441
   83MOL    C3819882   1.034   5.942   4.418 -0.2273  0.5368  0.2373
   83MOL    C3919883   0.962   6.054   4.494  0.0037 -0.2869  0.0675
   83MOL    C4019884   0.983   6.060   4.645  0.3028 -0.2136 -0.5156
   83MOL    C4119885   0.904   5.950   4.719 -1.0916 -0.5863  0.2664
   83MOL    H4219886   0.976   5.851   4.434  0.0638  0.5563  1.4427
   83MOL    H4319887   1.016   5.966   4.313  1.5734  1.3449  0.0953
   83MOL    H4419888   1.012   6.146   4.463  0.2152 -1.1970 -2.3894
   83MOL    H4519889   0.950   6.159   4.676  3.0208  1.2540 -2.0512
   83MOL    H4619890   1.088   6.049   4.672  0.0942  2.0994  1.4044
   83MOL    H4719891   0.920   5.859   4.661 -1.2026  0.4052 -1.3398
   83MOL    H4819892   0.947   5.927   4.817  0.9504 -2.2935 -0.9874
   83MOL    H4919893   0.796   5.955   4.735 -1.2472 -0.7736 -0.7079
   83MOL    C5019894   0.816   6.065   4.446 -0.4787  0.8424 -0.3814
   83MOL    C5119895   0.744   6.200   4.478  0.7250 -0.2348 -0.5814
   83MOL    C5219896   0.594   6.164   4.478 -0.0259  0.1774 -0.7121
   83MOL    C5319897   0.540   6.127   4.620 -0.2374 -0.7281  0.2800
   83MOL    H5419898   0.765   5.979   4.490  0.2589  0.5951 -0.0010
   83MOL    H5519899   0.808   6.062   4.338 -1.8110  1.3261 -0.3143
   83MOL    H5619900   0.787   6.234   4.572 -1.9750  0.3079  0.5097
   83MOL    H5719901   0.565   6.094   4.400 -1.5775  1.5571 -1.3965
   83MOL    H5819902   0.541   6.249   4.437 -2.8801 -2.2485 -2.2372
   83MOL    H5919903   0.561   6.022   4.641 -1.6466 -1.6218 -2.5074
   83MOL    H6019904   0.585   6.200   4.688 -0.4377  2.0766 -2.4637
   83MOL    H6119905   0.432   6.138   4.614 -0.0395  1.5090  0.1023
   83MOL    C6219906   0.785   6.313   4.375  0.8543  0.6156  0.4321
   83MOL    C6319907   0.748   6.457   4.403 -0.2765  0.9421  0.0081
   83MOL    C6419908   0.763   6.553   4.284 -0.0318 -0.4962 -0.0793
   83MOL    C6519909   0.679   6.504   4.173  0.6534  0.0404  0.2585
   83MOL    H6619910   0.734   6.286   4.283 -1.0004  0.0632  1.5985
   83MOL    H6719911   0.892   6.307   4.351  0.4921 -2.7300 -0.6408
   83MOL    H6819912   0.642   6.465   4.427 -0.5352  0.7597 -1.0334
   83MOL    H6919913   0.866   6.558   4.249  0.7273 -1.5034  1.9647
   83MOL    H7019914   0.724   6.648   4.321  1.0554  0.6940 -1.9016
   83MOL    H7119915   0.579   6.467   4.200  0.2370  0.2221 -0.9915
   83MOL    H7219916   0.663   6.585   4.102 -0.0128  0.2195  0.6084
   83MOL    H7319917   0.729   6.429   4.111 -0.8085 -1.1185  0.4366
   83MOL    C7419918   0.813   6.511   4.535  0.1349 -0.1311 -0.1312
   83MOL    C7519919   0.831   6.662   4.566  0.2867 -0.1475 -0.1110
   83MOL    C7619920   0.941   6.678   4.672 -0.0166 -0.3056 -0.2333
   83MOL    C7719921   1.082   6.626   4.629 -0.5872 -0.2699  0.6459
   83MOL    H7819922   0.902   6.452   4.555 -0.5523 -1.2526 -0.3275
   83MOL    H7919923   0.747   6.469   4.612 -1.5599  2.9340  0.1643
   83MOL    H8019924   0.876   6.704   4.476  0.0955 -0.2393 -0.2486
   83MOL    H8119925   0.929   6.626   4.767  1.7494  2.1289  1.4005
   83MOL    H8219926   0.950   6.780   4.711 -2.5561 -0.8525  1.9658
   83MOL    H8319927   1.160   6.645   4.702  1.1337 -2.5690 -0.5588
   83MOL    H8419928   1.099   6.524   4.596 -0.8943 -0.3462  0.7162
   83MOL    H8519929   1.112   6.685   4.543 -2.3377  0.5052  0.5464
   83MOL    C8619930   0.695   6.712   4.606 -0.5327  0.1683  0.0677
   83MOL    C8719931   0.681   6.867   4.624  0.1737  0.0793 -0.0853
   83MOL    C8819932   0.572   6.908   4.723  0.2067 -0.3933  0.1765
   83MOL    C8919933   0.582   7.052   4.791 -0.2705  0.5244  0.3107
   83MOL    H9019934   0.681   6.663   4.703 -1.4319 -0.8181 -0.5484
   83MOL    H9119935   0.609   6.684   4.545 -1.1960  0.4447  0.8591
   83MOL    H9219936   0.771   6.892   4.680  0.9151  0.1120 -1.2806
   83MOL    H9319937   0.555   6.829   4.796 -0.7618 -0.6920 -0.3628
   83MOL    H9419938   0.473   6.912   4.676  0.2345  1.8140  0.2175
   83MOL    H9519939   0.556   7.135   4.726  0.3045  0.5257  0.0786
   83MOL    H9619940   0.514   7.066   4.875 -0.3313 -0.0067  0.3508
   83MOL    H9719941   0.683   7.076   4.824 -0.7635  1.4379  1.1760
   83MOL    C9819942   0.678   6.939   4.491 -0.0557  0.3358  0.0117
   83MOL    C9919943   0.757   7.076   4.488 -0.2110 -0.1821 -0.4691
   83MOL   C10019944   0.718   7.162   4.367  0.0498  0.2581  0.1987
   83MOL   C10119945   0.586   7.242   4.371  0.6978 -0.2898 -0.0491
   83MOL   H10219946   0.574   6.962   4.467  0.2618  1.1971 -0.5828
   83MOL   H10319947   0.702   6.892   4.395  1.6914  0.6520  0.2669
   83MOL   H10419948   0.728   7.130   4.578  2.1357 -0.4082  0.4468
   83MOL   H10519949   0.723   7.099   4.279 -1.5028 -0.0292  0.3051
   83MOL   H10619950   0.791   7.242   4.352 -0.9987  0.6293 -3.3366
   83MOL   H10719951   0.596   7.327   4.440 -1.3336 -0.3729  0.3762
   83MOL   H10819952   0.565   7.278   4.271  0.5275  3.2012  1.1598
   83MOL   H10919953   0.507   7.169   4.388  1.1679 -1.2811 -2.0349
   83MOL   C11019954   0.903   7.050   4.476 -0.6093 -0.1126 -0.1328
   83MOL   C11119955   1.001   7.159   4.525 -0.3963  0.0562 -0.5505
   83MOL   C11219956   1.139   7.133   4.471 -1.0667 -0.1367  0.0767
   83MOL   C11319957   1.151   7.152   4.321 -0.0387 -0.0539  0.1864
   83MOL   H11419958   0.927   7.028   4.372 -1.1019 -2.5901  0.2312
   83MOL   H11519959   0.930   6.955   4.522 -0.5250 -0.8678 -1.6966
   83MOL   H11619960   0.970   7.254   4.481 -0.7017  0.6788  0.9496
   83MOL   H11719961   1.186   7.039   4.499  0.7627  1.0925  1.2401
   83MOL   H11819962   1.208   7.208   4.510  0.6554 -2.2201  1.0715
   83MOL   H11919963   1.075   7.098   4.265  2.2567 -0.7037 -2.3745
   83MOL   H12019964   1.157   7.258   4.298  0.0584 -0.0140  0.3890
   83MOL   H12119965   1.248   7.119   4.284  0.3938  2.9465 -1.4946
   83MOL   C12219966   1.001   7.172   4.682  0.1596 -0.1198 -0.1254
   83MOL   C12319967   1.080   7.291   4.747  0.2618 -0.3145 -0.0482
   83MOL   C12419968   1.208   7.246   4.816  0.4320  0.3651  0.4417
   83MOL   C12519969   1.309   7.364   4.847  0.3410  0.1304 -0.6083
   83MOL   H12619970   1.038   7.081   4.730  0.0066 -0.4371 -0.6054
   83MOL   H12719971   0.899   7.186   4.716  0.2824 -0.4715  0.3916
   83MOL   H12819972   1.103   7.348   4.657  1.6455 -0.8526 -0.0477
   83MOL   H12919973   1.263   7.176   4.753 -1.0936 -1.6193  1.2383
   83MOL   H13019974   1.179   7.195   4.907 -1.3551  1.8083  0.7129
   83MOL   H13119975   1.416   7.344   4.841  0.2413 -0.4881 -0.3760
   83MOL   H13219976   1.300   7.452   4.784 -2.3438  2.7678  3.2902
   83MOL   H13319977   1.285   7.413   4.941  1.6512  0.3172 -0.3575
   83MOL   C13419978   0.981   7.370   4.838  0.1049  0.2453  0.7376
   83MOL   C13519979   0.894   7.468   4.757 -0.0878  0.0851  0.0188
   83MOL   C13619980   0.970   7.576   4.671  0.7078 -0.4300 -0.2979
   83MOL   C13719981   1.062   7.665   4.754  0.5088 -0.0620  0.2673
   83MOL   H13819982   1.035   7.415   4.922  1.1367 -0.3601  0.4108
   83MOL   H13919983   0.927   7.292   4.890  0.5313  0.2156  1.1442
   83MOL   H14019984   0.823   7.408   4.699 -0.3406 -1.6115  2.0095
   83MOL   H14119985   0.891   7.635   4.623  1.1980  0.5780  0.1296
   83MOL   H14219986   1.025   7.533   4.588  1.0144  0.3881 -0.5225
   83MOL   H14319987   1.140   7.606   4.802  1.1313  0.9779  0.5324
   83MOL   H14419988   1.101   0.040   4.692 -0.5695 -1.5959 -2.5030
   83MOL   H14519989   1.004   0.004   4.834 -0.7539  1.6076 -1.5488
   83MOL   C14619990   0.787   7.537   4.846  1.1375  0.2962 -0.1949
   83MOL   C14719991   0.675   7.436   4.901  0.0106 -0.1006  0.4119
   83MOL   C14819992   0.543   7.461   4.828  0.0581 -0.3172 -0.0515
   83MOL   C14919993   0.541   7.417   4.678 -0.0918 -0.4397  0.6356
   83MOL   H15019994   0.735   7.617   4.793  0.3285  0.1239  0.3448
   83MOL   H15119995   0.830   7.587   4.933 -0.2118  1.3063 -0.1023
   83MOL   H15219996   0.706   7.334   4.880 -1.3802 -0.3226 -0.6041
   83MOL   H15319997   0.504   7.561   4.847 -0.4926 -0.7973  1.3671
   83MOL   H15419998   0.474   7.398   4.884 -0.9826  0.9186  0.0784
   83MOL   H15519999   0.446   7.371   4.653 -1.1642  1.3343  1.3852
   83MOL   H15620000   0.572   7.505   4.621  0.6328 -0.3919  1.0924
   83MOL   H15720001   0.613   7.338   4.653  0.4300  0.5510 -1.0784
   83MOL   C15820002   0.653   7.454   5.052  0.4158  0.2740  0.6207
   83MOL   C15920003   0.772   7.394   5.137 -0.0199  0.0452 -1.0003
   83MOL   C16020004   0.755   7.248   5.164 -0.2642 -0.1397 -0.2916
   83MOL   C16120005   0.892   7.186   5.199  0.4438 -0.8699 -0.4815
   83MOL   H16220006   0.559   7.409   5.085  0.8445 -0.5254  0.7469
   83MOL   H16320007   0.652   7.563   5.060 -0.7954  0.4001 -0.9331
   83MOL   H16420008   0.864   7.403   5.078  1.5377 -0.7375  1.2425
   83MOL   H16520009   0.708   7.205   5.076 -0.7737 -0.2460  0.0343
   83MOL   H16620010   0.687   7.233   5.248  0.8684 -1.3389  0.4371
   83MOL   H16720011   0.917   7.224   5.298 -2.5042  0.2199 -0.1146
   83MOL   H16820012   0.874   7.079   5.210 -1.7552 -0.4321  0.4453
   83MOL   H16920013   0.972   7.207   5.127  0.9964  2.1089  0.9508
   83MOL   C17020014   0.790   7.476   5.266 -0.4045  0.0689 -0.7182
   83MOL   C17120015   0.846   7.621   5.245  0.0070  0.8477  0.0407
   83MOL   C17220016   1.002   7.619   5.235  0.0848 -0.3338 -0.7760
   83MOL   C17320017   1.076   0.048   5.215 -0.2622  0.2510  0.1296
   83MOL   H17420018   0.840   7.420   5.345 -1.6405  0.4928  0.3886
   83MOL   H17520019   0.688   7.482   5.304  0.1146  0.8360  0.5810
   83MOL   H17620020   0.808   7.670   5.156  1.0580 -0.2200 -1.0155
   83MOL   H17720021   1.026   7.553   5.151  1.1861 -1.7042  0.5904
   83MOL   H17820022   1.035   7.570   5.327 -0.9532 -1.2369 -0.8725
   83MOL   H17920023   1.174   0.024   5.174  0.2033  0.4192  1.1266
   83MOL   H18020024   1.035   0.119   5.143 -0.4768  0.0351  0.0368
   83MOL   H18120025   1.085   0.106   5.307 -2.8465 -0.4117  0.8490
   83MOL   C18220026   0.803   7.706   5.372 -0.1782  0.2753 -0.6349
   83MOL   C18320027   0.657   0.035   5.372  0.5425  0.1671  0.0665
   83MOL   C18420028   0.647   0.183   5.353 -0.2622  0.3362 -0.0022
   83MOL   C18520029   0.689   0.239   5.224  0.1540 -0.4277 -0.8108
   83MOL   H18620030   0.853   0.096   5.385 -0.5489  0.2544  1.0355
   83MOL   H18720031   0.827   7.654   5.465  4.4501 -0.2074 -1.9399
   83MOL   H18820032   0.613   7.700   5.281 -2.3846  3.6254 -0.2029
   83MOL   H18920033   0.691   0.243   5.432 -1.4529 -0.7399  1.5205
   83MOL   H19020034   0.542   0.209   5.367 -0.2206 -0.2659  1.5230
   83MOL   H19120035   0.647   0.181   5.142 -0.6145  0.0113 -0.7311
   83MOL   H19220036   0.651   0.339   5.201  0.4949 -0.2413 -0.5750
   83MOL   H19320037   0.798   0.241   5.216  0.3014  2.2371  1.0970
   83MOL   C19420038   0.584   7.690   5.487  0.7110 -0.1655 -0.6123
   83MOL   C19520039   0.426   7.693   5.492 -0.2850 -0.6054 -0.7390
   83MOL   C19620040   0.363   7.669   5.630 -0.1686  1.4946 -0.3304
   83MOL   C19720041   0.441   7.702   5.757  0.0047 -0.1077 -0.2454
   83MOL   H19820042   0.622   0.049   5.566 -2.0276  0.2851  0.3932
   83MOL   H19920043   0.628   7.590   5.491  0.7867 -0.3052 -3.7359
   83MOL   H20020044   0.395   0.091   5.485  1.3409  0.0490  1.1438
   83MOL   H20120045   0.358   7.561   5.643  1.3168  1.5521  0.9984
   83MOL   H20220046   0.261   7.704   5.640 -0.0530  1.7843 -0.1674
   83MOL   H20320047   0.379   7.702   5.846 -1.7596 -1.3160 -1.4317
   83MOL   H20420048   0.533   7.644   5.771 -1.1804 -1.8217  0.6318
   83MOL   H20520049   0.472   0.100   5.764 -0.5663 -0.0576  1.9133
   83MOL   C20620050   0.365   7.623   5.367  0.0198 -0.5927 -0.6258
   83MOL   C20720051   0.208   7.640   5.355  0.6424 -0.0312 -0.9226
   83MOL   C20820052   0.131   7.520   5.418 -0.0651  0.0375 -0.1523
   83MOL   C20920053   7.694   7.542   5.461  0.3513  0.3260  0.2735
   83MOL   H21020054   0.388   7.517   5.372 -0.5362 -0.6368  1.5067
   83MOL   H21120055   0.414   7.657   5.276  2.8649  2.9618  2.0568
   83MOL   H21220056   0.175   0.024   5.406 -0.0313 -1.0571  0.4839
   83MOL   H21320057   0.193   7.489   5.503  0.3576  0.4621 -0.2977
   83MOL   H21420058   0.141   7.441   5.344  1.1427  1.5273 -1.6147
   83MOL   H21520059   7.639   7.593   5.381  1.2788  1.0856  0.1098
   83MOL   H21620060   7.642   7.447   5.470  1.4462 -0.2760  0.2776
   83MOL   H21720061   7.675   7.601   5.551 -0.1360 -0.7373  0.8713
   83MOL   C21820062   0.175   7.660   5.205 -0.6341  1.0806  0.8033
   83MOL   C21920063   0.210   0.094   5.150  0.8546  0.4944 -0.0126
   83MOL   C22020064   0.127   0.206   5.214 -0.3988 -0.3796  0.3247
   83MOL   C22120065   0.176   0.346   5.160 -0.2006 -0.0215  0.8707
   83MOL   H22220066   0.070   7.643   5.181 -0.4839 -0.0040  0.9015
   83MOL   H22320067   0.230   7.581   5.154  2.2770  1.4867  3.1713
   83MOL   H22420068   0.314   0.118   5.171  1.1874 -1.4550  0.6919
   83MOL   H22520069   0.135   0.207   5.323  0.2097 -0.2674  0.2834
   83MOL   H22620070   0.020   0.193   5.201 -0.1372 -1.2677 -1.0426
   83MOL   H22720071   0.281   0.358   5.188 -0.0515 -0.2395  0.4181
   83MOL   H22820072   0.175   0.358   5.052  0.8249 -0.7580  0.7663
   83MOL   H22920073   0.105   0.419   5.198 -1.7799 -0.9081 -0.3456
   83MOL   C23020074   0.195   0.085   5.000  0.0003 -0.4598 -0.0082
   83MOL   C23120075   0.328   0.093   4.922  0.3744 -0.5132 -0.2696
   83MOL   C23220076   0.324   0.106   4.768  0.0994 -0.1837 -0.0345
   83MOL   C23320077   0.461   0.115   4.697 -0.7602  0.3629  0.2853
   83MOL   H23420078   0.124   0.161   4.967  2.7302  1.4636 -1.6926
   83MOL   H23520079   0.140   7.701   4.972  0.6425 -0.9688  0.3703
   83MOL   H23620080   0.391   0.175   4.957 -0.3499  0.7919 -1.9962
   83MOL   H23720081   0.261   0.191   4.741  1.2370  0.3885 -0.9693
   83MOL   H23820082   0.269   0.017   4.738 -0.3985 -0.3489  1.3539
   83MOL   H23920083   0.448   0.130   4.589 -2.3278 -0.6159  0.3192
   83MOL   H24020084   0.522   0.192   4.742  1.7793 -1.5102  0.1666
   83MOL   H24120085   0.530   0.031   4.701 -1.9518 -0.6688 -0.1752
   83MOL   H24220086   0.389   0.006   4.947 -0.5979 -0.5754  1.9391
   84MOL     C120087   2.388   1.992   6.275 -0.6445  0.1696 -0.1061
   84MOL     C220088   2.541   2.011   6.291  0.0917  0.0521  0.3261
   84MOL     C320089   2.575   2.099   6.411 -0.3323  0.4990  0.4835
   84MOL     C420090   2.533   2.243   6.386  0.5868  0.1272 -0.0325
   84MOL     H520091   2.349   1.953   6.369 -0.9002 -0.1308 -0.3416
   84MOL     H620092   2.338   2.085   6.247  2.7233  1.7737 -1.1200
   84MOL     H720093   2.562   1.907   6.315  1.4573  0.2012 -0.1845
   84MOL     H820094   2.680   2.093   6.438 -0.7159 -1.0597  1.6969
   84MOL     H920095   2.528   2.063   6.502 -0.6875 -0.0285  0.0982
   84MOL    H1020096   2.574   2.285   6.294  0.5146 -0.7350 -0.4587
   84MOL    H1120097   2.424   2.245   6.378  0.5481 -1.0674  0.1869
   84MOL    H1220098   2.566   2.302   6.471 -1.8703  1.7420 -0.1484
   84MOL    H1320099   2.369   1.914   6.202 -1.6090  0.5000 -0.2112
   84MOL    C1420100   2.608   2.050   6.161 -0.1349 -0.0659  0.6029
   84MOL    C1520101   2.763   2.029   6.156  0.0194 -0.0667  0.0054
   84MOL    C1620102   2.827   2.120   6.043 -0.0004 -0.3729 -0.7101
   84MOL    C1720103   2.836   2.265   6.080 -0.0866 -0.0030  0.2641
   84MOL    H1820104   2.576   2.148   6.127  0.6237 -0.3448 -0.9949
   84MOL    H1920105   2.564   1.981   6.088 -1.6527  1.6530 -0.1415
   84MOL    H2020106   2.803   2.069   6.249  0.6604  0.5856 -0.5435
   84MOL    H2120107   2.779   2.106   5.946 -1.3830 -1.2123  0.0863
   84MOL    H2220108   2.924   2.076   6.016  0.3521  0.6859 -1.2010
   84MOL    H2320109   2.831   2.280   6.188 -2.8977 -0.9567  0.3120
   84MOL    H2420110   2.929   2.308   6.045  0.5257 -1.6011 -0.1178
   84MOL    H2520111   2.752   2.317   6.033 -0.3616 -1.4935 -0.9189
   84MOL    C2620112   2.794   1.877   6.143 -0.1792  0.0500  0.2778
   84MOL    C2720113   2.933   1.850   6.196  0.1091 -0.0892  0.0299
   84MOL    C2820114   3.027   1.771   6.103 -0.0052 -0.2122  0.2808
   84MOL    C2920115   2.979   1.635   6.074  1.4785 -0.4583 -0.0233
   84MOL    H3020116   2.792   1.845   6.039  0.4422  0.0981  0.2461
   84MOL    H3120117   2.722   1.807   6.186 -0.5787 -0.6263 -1.4350
   84MOL    H3220118   2.980   1.947   6.207  0.5460 -0.4007  0.9733
   84MOL    H3320119   3.124   1.769   6.152 -0.9313  1.8214  2.3425
   84MOL    H3420120   3.043   1.822   6.008  0.9993 -2.2436 -0.6609
   84MOL    H3520121   3.060   1.567   6.047 -0.8134 -2.4541 -2.1237
   84MOL    H3620122   2.933   1.582   6.157  0.4740 -2.8174 -2.0426
   84MOL    H3720123   2.901   1.634   5.999  1.9712  1.0708 -0.5886
   84MOL    C3820124   2.921   1.790   6.337 -0.0146  0.1935  0.2422
   84MOL    C3920125   3.054   1.765   6.416 -0.6560  0.4770  0.4740
   84MOL    C4020126   3.028   1.666   6.524 -0.3310 -0.5208  0.6088
   84MOL    C4120127   3.023   1.518   6.480  0.6702  0.0105  0.2265
   84MOL    H4220128   2.868   1.694   6.334 -0.5653  0.3430  3.1349
   84MOL    H4320129   2.850   1.840   6.403  0.0907 -1.0393  1.3299
   84MOL    H4420130   3.120   1.713   6.345 -3.1295 -1.4689 -0.4711
   84MOL    H4520131   2.952   1.708   6.589 -1.0560 -0.1377 -0.4703
   84MOL    H4620132   3.108   1.668   6.598 -1.2681 -4.5872  1.8865
   84MOL    H4720133   2.968   1.504   6.387  0.3261 -0.2789  0.4759
   84MOL    H4820134   3.122   1.481   6.454  0.5171  1.3690 -2.5615
   84MOL    H4920135   2.987   1.449   6.555  1.4379 -0.8736 -0.2005
   84MOL    C5020136   3.120   1.900   6.464  0.2467 -0.2425 -0.2128
   84MOL    C5120137   3.252   1.943   6.380 -0.1268  0.2456  0.0692
   84MOL    C5220138   3.368   1.840   6.402 -0.8117  0.1453  0.1920
   84MOL    C5320139   3.414   1.812   6.550  0.9464 -0.7023  0.1114
   84MOL    H5420140   3.153   1.899   6.568 -0.9915  1.9785  0.2207
   84MOL    H5520141   3.043   1.976   6.471 -1.3011 -1.7179 -0.8682
   84MOL    H5620142   3.219   1.932   6.277  0.9795  0.9255 -0.3577
   84MOL    H5720143   3.451   1.884   6.347 -0.0236  0.1689  1.4099
   84MOL    H5820144   3.345   1.742   6.360 -1.5421 -0.3833  1.8163
   84MOL    H5920145   3.507   1.756   6.557  1.1245 -0.5389 -0.9093
   84MOL    H6020146   3.434   1.905   6.603  1.6951 -0.0832 -1.2207
   84MOL    H6120147   3.337   1.766   6.612 -1.2046  1.2842 -1.0145
   84MOL    C6220148   3.294   2.082   6.416 -0.5281 -0.0178 -0.0350
   84MOL    C6320149   3.215   2.194   6.349  0.1973 -0.4079 -0.1999
   84MOL    C6420150   3.242   2.221   6.199  0.2076  0.3720 -0.2114
   84MOL    C6520151   3.389   2.253   6.156  0.2658 -0.8495  0.4881
   84MOL    H6620152   3.400   2.093   6.390  0.0395 -0.8524  1.8931
   84MOL    H6720153   3.302   2.105   6.522  1.3626  1.2552 -0.4302
   84MOL    H6820154   3.112   2.159   6.345  0.2377 -0.4696 -0.7858
   84MOL    H6920155   3.169   2.292   6.161 -1.6710 -1.0657  0.6640
   84MOL    H7020156   3.219   2.134   6.138 -2.1534  1.4807 -0.9665
   84MOL    H7120157   3.462   2.180   6.191  0.2114 -0.3802  1.5937
   84MOL    H7220158   3.396   2.272   6.049 -1.1236  2.2540  0.8815
   84MOL    H7320159   3.421   2.348   6.198 -1.5076 -0.4114  0.8847
   84MOL    C7420160   3.225   2.319   6.434 -0.5081 -0.2584 -0.2227
   84MOL    C7520161   3.117   2.334   6.547 -0.0382  0.2960  0.0145
   84MOL    C7620162   2.986   2.403   6.490  0.4494 -0.3082 -0.3595
   84MOL    C7720163   2.863   2.367   6.571 -0.1560 -0.3928 -0.0009
   84MOL    H7820164   3.207   2.399   6.362  0.1950  0.3013  0.2057
   84MOL    H7920165   3.330   2.332   6.461  0.0997 -0.3837 -2.4129
   84MOL    H8020166   3.100   2.228   6.567  3.5372 -0.7505 -1.9637
   84MOL    H8120167   2.966   2.362   6.391  2.8665 -0.5337 -0.8008
   84MOL    H8220168   2.993   2.512   6.493  0.6036 -0.3375  2.1158
   84MOL    H8320169   2.803   2.454   6.598 -0.9134 -0.4852 -1.3327
   84MOL    H8420170   2.809   2.288   6.519  0.8812 -0.6812 -0.6579
   84MOL    H8520171   2.884   2.323   6.668 -0.3670 -1.9048 -0.6179
   84MOL    C8620172   3.170   2.401   6.677  0.3862  0.1701  0.3475
   84MOL    C8720173   3.262   2.305   6.769  0.1900 -0.2783 -0.4372
   84MOL    C8820174   3.179   2.185   6.821 -0.2970 -0.1391 -1.0109
   84MOL    C8920175   3.259   2.089   6.913  0.2980  0.0933  0.2519
   84MOL    H9020176   3.093   2.444   6.743 -0.1886  0.1658 -0.3170
   84MOL    H9120177   3.232   2.484   6.644 -1.8246  1.4869 -0.6633
   84MOL    H9220178   3.337   2.272   6.697  1.8926  0.0204  1.1578
   84MOL    H9320179   3.141   2.127   6.737 -0.6796 -1.2863 -0.0647
   84MOL    H9420180   3.091   2.225   6.872  0.3034 -1.2533  0.9349
   84MOL    H9520181   3.198   1.999   6.924  0.4809 -0.2155 -1.1611
   84MOL    H9620182   3.350   2.057   6.863  2.2958  1.5555  2.8336
   84MOL    H9720183   3.277   2.135   7.010 -0.8575  2.5648 -0.6584
   84MOL    C9820184   3.336   2.386   6.882 -0.1919  0.3413  0.8744
   84MOL    C9920185   3.437   2.495   6.844 -0.4464 -0.7635  0.3733
   84MOL   C10020186   3.559   2.450   6.765  0.8822  0.1535  0.0110
   84MOL   C10120187   3.634   2.552   6.693  0.0890  0.4175 -0.2274
   84MOL   H10220188   3.381   2.319   6.956 -1.4998 -2.5082 -0.8420
   84MOL   H10320189   3.258   2.434   6.940 -1.3443 -0.2322 -0.1875
   84MOL   H10420190   3.374   2.556   6.778  0.4388 -1.9876 -1.6571
   84MOL   H10520191   3.529   2.364   6.705 -0.3655 -0.4501  1.4588
   84MOL   H10620192   3.622   2.409   6.844  0.9669  0.5813  0.1694
   84MOL   H10720193   3.677   2.633   6.753 -1.4055 -0.1450  1.6387
   84MOL   H10820194   3.718   2.512   6.636 -1.6582 -0.6038 -2.1576
   84MOL   H10920195   3.578   2.592   6.609  1.8086  1.1590 -1.0632
   84MOL   C11020196   3.481   2.578   6.969 -0.0289  0.6842  0.3046
   84MOL   C11120197   3.378   2.634   7.072 -0.2663 -0.5709  0.2324
   84MOL   C11220198   3.265   2.728   7.019  0.1987  0.3205 -0.5204
   84MOL   C11320199   3.311   2.844   6.932 -0.3635  0.5830  0.1820
   84MOL   H11420200   3.548   2.658   6.937  0.5781 -0.0944 -0.3717
   84MOL   H11520201   3.548   2.505   7.014  0.1111 -0.9503 -2.4692
   84MOL   H11620202   3.323   2.552   7.119 -1.5245  0.0256 -0.1882
   84MOL   H11720203   3.202   2.771   7.097 -0.5404 -1.4727 -0.1106
   84MOL   H11820204   3.201   2.665   6.957  0.9899 -0.5869 -0.4117
   84MOL   H11920205   3.368   2.917   6.991 -0.2719  0.3340  0.4030
   84MOL   H12020206   3.370   2.814   6.845  0.3937 -1.8257  1.4680
   84MOL   H12120207   3.229   2.903   6.892 -2.2748 -2.0019  0.1645
   84MOL   C12220208   3.456   2.696   7.188 -0.0499 -0.4713  0.1962
   84MOL   C12320209   3.509   2.585   7.280 -0.6965  0.6719 -0.8681
   84MOL   C12420210   3.400   2.529   7.376  0.3815  0.1844 -0.8164
   84MOL   C12520211   3.425   2.391   7.421  0.0379 -0.0540  0.2816
   84MOL   H12620212   3.395   2.761   7.251  1.4879 -0.2736  1.5367
   84MOL   H12720213   3.530   2.762   7.144 -0.1761 -1.0280 -0.8539
   84MOL   H12820214   3.532   2.500   7.215  1.3277 -0.3848  1.1688
   84MOL   H12920215   3.300   2.528   7.333 -0.7462 -4.0425  1.6615
   84MOL   H13020216   3.408   2.585   7.469  0.3936 -1.4945  0.2139
   84MOL   H13120217   3.349   2.365   7.496 -0.2943 -1.0433 -0.3832
   84MOL   H13220218   3.426   2.315   7.344  0.2833  0.2643 -0.0276
   84MOL   H13320219   3.516   2.381   7.480 -0.3828  0.8804  1.1140
   84MOL   C13420220   3.643   2.627   7.351  0.6087 -0.0048 -0.2845
   84MOL   C13520221   3.767   2.654   7.259  0.5668 -0.3407 -0.0631
   84MOL   C13620222   3.812   2.525   7.198  0.2702 -0.1611  0.5163
   84MOL   C13720223   3.916   2.530   7.087 -0.1320  0.4974 -0.6220
   84MOL   H13820224   3.670   2.549   7.423  0.9620 -0.7327 -1.1909
   84MOL   H13920225   3.618   2.701   7.426  0.4334 -0.9170  0.5615
   84MOL   H14020226   3.736   2.726   7.183 -1.2880  0.0190  1.0113
   84MOL   H14120227   3.721   2.480   7.158  0.6244  1.8228 -2.6373
   84MOL   H14220228   3.840   2.448   7.270 -2.2495 -0.5719  1.1392
   84MOL   H14320229   4.014   2.566   7.121  0.0380 -1.2734  0.8155
   84MOL   H14420230   3.921   2.424   7.062 -1.0198 -0.3175  2.3794
   84MOL   H14520231   3.872   2.590   7.008 -0.1701  1.5967  0.2203
   84MOL   C14620232   3.890   2.713   7.335 -0.0188  0.0394  0.5334
   84MOL   C14720233   3.864   2.851   7.404 -0.1564 -0.5393 -0.3038
   84MOL   C14820234   3.859   2.971   7.307 -0.2519 -0.0592  0.3211
   84MOL   C14920235   3.814   3.108   7.375 -0.1296 -0.4873  0.4995
   84MOL   H15020236   3.976   2.727   7.269  0.2133  1.9067  1.1986
   84MOL   H15120237   3.926   2.637   7.404 -0.7636 -1.9843 -1.2624
   84MOL   H15220238   3.767   2.873   7.449  0.0718 -1.6281  0.7589
   84MOL   H15320239   3.789   2.943   7.228 -1.3089  0.0589  1.2034
   84MOL   H15420240   3.957   2.989   7.262  0.2164 -0.2418  1.2584
   84MOL   H15520241   3.736   3.107   7.451 -1.6070 -1.3288 -0.9990
   84MOL   H15620242   3.899   3.149   7.429  0.2563 -0.1317 -0.3682
   84MOL   H15720243   3.783   3.178   7.297  0.3838 -1.4740 -0.5994
   84MOL   C15820244   3.961   2.858   7.525 -0.2297 -0.2683  0.2359
   84MOL   C15920245   3.925   2.771   7.649 -0.3867 -0.0875 -0.2785
   84MOL   C16020246   3.840   2.867   0.038  0.3287 -0.0218  0.5659
   84MOL   C16120247   3.702   2.910   7.691  0.0116  1.0767 -0.8305
   84MOL   H16220248   3.961   2.963   7.555 -1.4986 -0.0863 -0.3293
   84MOL   H16320249   4.056   2.820   7.488 -0.1646 -1.7732  1.9199
   84MOL   H16420250   3.865   2.684   7.624  1.7130 -1.1904 -1.6950
   84MOL   H16520251   3.888   2.961   0.065 -0.3427  0.1589  1.1483
   84MOL   H16620252   3.833   2.837   0.143 -0.6315  0.3807  0.6203
   84MOL   H16720253   3.641   2.835   7.639 -0.5491  0.5552  0.5748
   84MOL   H16820254   3.645   2.954   0.066  1.2248 -2.1378  1.8967
   84MOL   H16920255   3.717   2.997   7.628  0.1035 -0.5691 -3.1716
   84MOL   C17020256   4.054   2.727   0.022 -0.1222  0.4978 -0.2179
   84MOL   C17120257   4.135   2.612   7.677 -0.8053 -0.5801  0.4875
   84MOL   C17220258   4.071   2.478   0.014 -0.2845 -0.3568  0.3029
   84MOL   C17320259   3.968   2.413   7.628  0.1838 -0.1821  0.8386
   84MOL   H17420260   4.026   2.719   0.127  1.5991 -1.2773  0.1228
   84MOL   H17520261   4.126   2.809   0.017  0.5066 -0.0172  0.4343
   84MOL   H17620262   4.144   2.616   7.568 -0.6813  0.4173  0.5299
   84MOL   H17720263   4.017   2.490   0.108 -1.3438 -0.5864 -0.2655
   84MOL   H17820264   4.151   2.407   0.035 -1.4837 -1.7301  0.2982
   84MOL   H17920265   3.865   2.412   7.664 -1.1953 -0.3055 -2.9468
   84MOL   H18020266   3.960   2.466   7.534  1.1432  1.7396  1.8149
   84MOL   H18120267   4.003   2.310   7.626 -0.9062 -0.6556  3.3929
   84MOL   C18220268   4.284   2.632   0.009  0.6843 -0.5495 -0.7015
   84MOL   C18320269   4.370   2.640   7.595  0.4681  0.5332 -0.3389
   84MOL   C18420270   4.506   2.598   7.635 -0.1471  0.7905  0.9194
   84MOL   C18520271   4.586   2.691   0.017  0.2492 -0.4474  0.6538
   84MOL   H18620272   4.310   2.540   0.060  0.6010 -1.0093 -1.4783
   84MOL   H18720273   4.295   2.712   0.082  1.5535 -2.7198  1.6146
   84MOL   H18820274   4.332   2.565   7.526 -1.3642  1.5558 -0.4703
   84MOL   H18920275   4.559   2.575   7.542 -0.6665 -2.6594  1.3945
   84MOL   H19020276   4.502   2.504   7.690  0.9106 -0.3369 -0.8552
   84MOL   H19120277   4.688   2.660   0.040  0.8409  2.2063  1.8083
   84MOL   H19220278   4.597   2.784   7.666  3.0828 -0.6011  0.8559
   84MOL   H19320279   4.527   2.702   0.108  0.5757  3.3719  0.5146
   84MOL   C19420280   4.365   2.782   7.531  0.2751  0.1249 -0.3819
   84MOL   C19520281   4.434   2.790   7.387 -0.5883  0.5151  1.0463
   84MOL   C19620282   4.437   2.927   7.336 -0.2089  0.1711  0.2459
   84MOL   C19720283   4.482   3.038   7.434  0.1278  0.5718 -0.1754
   84MOL   H19820284   4.392   2.852   7.611  1.4733 -1.1279  0.3284
   84MOL   H19920285   4.258   2.801   7.524 -0.2416 -2.5892 -0.2981
   84MOL   H20020286   4.540   2.768   7.401 -1.2421 -1.6040  2.9510
   84MOL   H20120287   4.350   2.955   7.275  0.3133 -0.9818 -1.0538
   84MOL   H20220288   4.517   2.914   7.263  0.6041  4.3327  0.2546
   84MOL   H20320289   4.511   3.124   7.374  0.2657  0.4634 -0.2646
   84MOL   H20420290   4.401   3.064   7.502  0.4965  1.1104  0.0662
   84MOL   H20520291   4.571   3.003   7.486  0.1148 -3.6302 -2.7673
   84MOL   C20620292   4.358   2.701   7.281  0.2616 -0.3620 -0.9903
   84MOL   C20720293   4.443   2.574   7.251 -0.0304  0.5095 -0.3291
   84MOL   C20820294   4.545   2.609   7.145 -0.0078 -0.7568 -0.3272
   84MOL   C20920295   4.634   2.505   7.088 -0.2779  0.4697  0.3248
   84MOL   H21020296   4.333   2.754   7.188  0.5407  0.2447 -0.7210
   84MOL   H21120297   4.257   2.691   7.320  0.5523 -0.8905 -0.3754
   84MOL   H21220298   4.489   2.540   7.344 -1.0183 -0.8702 -0.3238
   84MOL   H21320299   4.618   2.675   7.193 -1.4776 -0.9868  2.2947
   84MOL   H21420300   4.501   2.663   7.062  1.0913 -1.6460 -1.5225
   84MOL   H21520301   4.720   2.544   7.033 -0.8474 -0.1520 -1.0396
   84MOL   H21620302   4.675   2.443   7.168 -2.5725  1.0512  1.9764
   84MOL   H21720303   4.581   2.439   7.019 -0.5982 -0.1519  1.1490
   84MOL   C21820304   4.340   2.465   7.215 -0.1063  0.2186 -0.0709
   84MOL   C21920305   4.282   2.373   7.319 -0.4250  0.2962 -0.0497
   84MOL   C22020306   4.388   2.300   7.410  0.1934  0.1367  0.2819
   84MOL   C22120307   4.326   2.225   7.527 -0.0152 -0.3924 -0.4972
   84MOL   H22220308   4.382   2.402   7.136 -0.6166  0.8527 -0.8501
   84MOL   H22320309   4.263   2.520   7.162 -1.7239 -2.2793 -0.3970
   84MOL   H22420310   4.229   2.448   7.377 -1.4730  0.9961 -1.8528
   84MOL   H22520311   4.455   2.376   7.451 -0.5607  1.3043 -0.6136
   84MOL   H22620312   4.454   2.235   7.352 -0.3115  1.3118 -1.6584
   84MOL   H22720313   4.410   2.194   7.590  1.5734 -1.8110 -3.2000
   84MOL   H22820314   4.251   2.284   7.580  0.2781 -1.6062  1.2942
   84MOL   H22920315   4.283   2.129   7.497 -1.6694 -0.3410  1.6288
   84MOL   C23020316   4.176   2.280   7.257  0.2526  0.3799 -0.7052
   84MOL   C23120317   4.227   2.169   7.159 -0.2443  0.2953  0.5485
   84MOL   C23220318   4.113   2.077   7.091 -0.0509  0.3122 -0.1233
   84MOL   C23320319   4.052   1.986   7.195  0.1171 -0.7688 -0.1483
   84MOL   H23420320   4.108   2.338   7.194 -0.3012  0.5578  0.0420
   84MOL   H23520321   4.117   2.235   7.338  0.9394 -1.5891 -1.2583
   84MOL   H23620322   4.275   2.205   7.068  0.1326 -3.6540 -0.9419
   84MOL   H23720323   4.156   2.018   7.010 -0.6254  0.0267 -0.2184
   84MOL   H23820324   4.024   2.131   7.060  0.7024  1.9550  0.5131
   84MOL   H23920325   3.952   1.958   7.162  0.6163 -1.6270 -0.9512
   84MOL   H24020326   4.115   1.900   7.214  1.0651  0.1520  0.9182
   84MOL   H24120327   4.036   2.040   7.289 -0.3668  0.3365 -0.8469
   84MOL   H24220328   4.309   2.113   7.205 -0.0068  0.6442  0.5533
   85MOL     C120329   6.388   6.132   4.668 -0.5105  0.0032 -0.0373
   85MOL     C220330   6.470   6.267   4.693  0.8254  0.5353 -0.1263
   85MOL     C320331   6.614   6.240   4.745  0.6521  0.1599  1.1998
   85MOL     C420332   6.709   6.186   4.639  0.2621 -0.2494  0.3152
   85MOL     H520333   6.439   6.060   4.604 -0.9966 -0.0850 -0.3211
   85MOL     H620334   6.378   6.081   4.764  2.7027 -2.3119 -0.8421
   85MOL     H720335   6.478   6.313   4.595 -0.8708  0.6703 -0.2291
   85MOL     H820336   6.612   6.165   4.824 -1.3788  0.0604  1.1001
   85MOL     H920337   6.662   6.329   4.785 -0.3110  0.1608  2.3899
   85MOL    H1020338   6.807   6.156   4.677 -0.6112 -1.4371  1.6659
   85MOL    H1120339   6.672   6.085   4.622  0.1507 -0.4584  1.7535
   85MOL    H1220340   6.723   6.237   4.544 -1.8340  0.3644  0.3163
   85MOL    H1320341   6.284   6.139   4.636  0.2718  1.2345 -2.4324
   85MOL    C1420342   6.386   6.344   4.792  0.4828  0.6510 -0.1698
   85MOL    C1520343   6.260   6.422   4.732  0.1688 -0.5516 -1.2111
   85MOL    C1620344   6.308   6.548   4.657  0.3324 -0.3787 -0.0197
   85MOL    C1720345   6.197   6.627   4.587 -0.0111  0.0721 -0.3287
   85MOL    H1820346   6.445   6.419   4.846 -0.4761  0.2671  1.4493
   85MOL    H1920347   6.360   6.283   4.879 -1.9472  2.2814  0.2976
   85MOL    H2020348   6.209   6.355   4.663 -0.1633 -1.5649 -0.0219
   85MOL    H2120349   6.381   6.529   4.579 -1.1232 -1.0486 -1.2356
   85MOL    H2220350   6.356   6.607   4.735  0.0479  2.8364 -2.2077
   85MOL    H2320351   6.227   6.687   4.501 -0.7189 -0.2888 -0.8339
   85MOL    H2420352   6.115   6.563   4.554 -0.9301  0.1248  1.7746
   85MOL    H2520353   6.155   6.688   4.667  1.1810 -0.8699  1.0385
   85MOL    C2620354   6.155   6.457   4.836  0.2742 -0.0335  0.2073
   85MOL    C2720355   6.080   6.340   4.909 -0.7754 -0.0294  0.0680
   85MOL    C2820356   5.989   6.257   4.810 -0.4443 -0.2183 -0.6898
   85MOL    C2920357   5.885   6.340   4.739  0.0893 -0.3017  0.0576
   85MOL    H3020358   6.069   6.510   4.794 -0.2949 -0.0717  1.3040
   85MOL    H3120359   6.202   6.535   4.896 -1.5497  1.8969 -0.8389
   85MOL    H3220360   6.153   6.274   4.957 -0.2128  0.0589 -0.6416
   85MOL    H3320361   5.959   6.166   4.862 -0.5579  0.6431  0.7746
   85MOL    H3420362   6.052   6.215   4.731  0.2425  0.0093 -0.2721
   85MOL    H3520363   5.822   6.269   4.685  0.2345  0.8432 -1.6486
   85MOL    H3620364   5.824   6.392   4.813  1.9753  0.0257  1.4194
   85MOL    H3720365   5.926   6.400   4.658  2.1284  0.3731  1.5673
   85MOL    C3820366   5.995   6.404   5.020  0.2603 -0.6480 -0.5128
   85MOL    C3920367   6.078   6.440   5.150 -0.1504 -0.1500 -0.7590
   85MOL    C4020368   6.045   6.345   5.273  0.2605  0.1110 -0.2040
   85MOL    C4120369   6.104   6.204   5.254 -0.2961 -0.6149 -0.1914
   85MOL    H4220370   5.915   6.334   5.048  0.0362 -1.9126 -4.1001
   85MOL    H4320371   5.949   6.491   4.974  1.4620  0.4816  0.3890
   85MOL    H4420372   6.186   6.437   5.135 -0.0925  0.8146 -0.5705
   85MOL    H4520373   5.937   6.341   5.284  0.3116 -1.8057 -0.3461
   85MOL    H4620374   6.087   6.389   5.363  2.1731 -2.4295  0.1909
   85MOL    H4720375   6.057   6.154   5.169  0.7220 -1.0193 -0.5273
   85MOL    H4820376   6.213   6.192   5.248 -0.0874  1.1711 -0.0543
   85MOL    H4920377   6.083   6.139   5.338  1.5321  0.5172  1.1702
   85MOL    C5020378   6.045   6.590   5.191 -0.8064  0.1769  0.7295
   85MOL    C5120379   6.113   6.707   5.106 -0.7523  0.5542 -0.0119
   85MOL    C5220380   6.248   6.756   5.158 -0.4613  0.2330  0.1154
   85MOL    C5320381   6.309   6.856   5.056  0.2324 -0.4108 -0.1285
   85MOL    H5420382   6.079   6.603   5.294 -2.0031  0.5281  1.0958
   85MOL    H5520383   5.936   6.583   5.188 -0.8962  0.2905  3.0121
   85MOL    H5620384   6.121   6.681   5.000 -1.4248  1.5227 -0.3015
   85MOL    H5720385   6.313   6.669   5.169 -1.3663 -0.1253  3.2487
   85MOL    H5820386   6.242   6.799   5.258  1.1828 -0.4221  0.5079
   85MOL    H5920387   6.280   6.956   5.086 -0.1132 -0.6038  0.1849
   85MOL    H6020388   6.418   6.863   5.052  0.3004 -2.0013 -1.6739
   85MOL    H6120389   6.292   6.823   4.954  1.0981 -1.0994 -0.0616
   85MOL    C6220390   6.014   6.821   5.115  0.3308 -0.0387 -0.2929
   85MOL    C6320391   5.906   6.813   5.000 -0.8105  0.1822 -0.9405
   85MOL    C6420392   5.952   6.882   4.876  0.1384  0.5104  0.0081
   85MOL    C6520393   5.895   6.814   4.754 -0.1574 -0.1428 -0.2782
   85MOL    H6620394   6.063   6.918   5.107  0.4008  0.0495  1.0496
   85MOL    H6720395   5.961   6.824   5.210 -1.3189  0.2040 -1.1979
   85MOL    H6820396   5.898   6.706   4.978  2.0664 -0.0358 -1.1052
   85MOL    H6920397   6.060   6.884   4.863  0.2660  1.9830  1.0951
   85MOL    H7020398   5.911   6.983   4.878  0.4167  0.6276 -0.3253
   85MOL    H7120399   5.958   6.855   4.676  1.1585 -0.2273  0.7196
   85MOL    H7220400   5.896   6.706   4.747 -0.4263 -0.1904  0.3386
   85MOL    H7320401   5.790   6.841   4.739 -0.5582 -2.8139 -2.5628
   85MOL    C7420402   5.770   6.859   5.051  0.3003  0.2270 -0.0531
   85MOL    C7520403   5.706   6.776   5.150  0.2313 -0.0216  0.7515
   85MOL    C7620404   5.624   6.670   5.070 -0.1374  0.1526  0.2065
   85MOL    C7720405   5.620   6.533   5.135 -0.1881 -0.1162  0.0732
   85MOL    H7820406   5.703   6.874   4.966  1.1102 -0.5948 -0.8442
   85MOL    H7920407   5.790   6.952   5.104  0.9379 -0.1718  0.4147
   85MOL    H8020408   5.782   6.730   5.213  1.6476 -1.9281 -2.2408
   85MOL    H8120409   5.674   6.654   4.974 -0.2405 -0.0117  0.1791
   85MOL    H8220410   5.522   6.688   5.037 -0.4650  1.0286  1.6725
   85MOL    H8320411   5.564   6.542   5.228 -1.1920 -1.7461 -0.3475
   85MOL    H8420412   5.568   6.458   5.075  0.2800 -1.2772  1.1000
   85MOL    H8520413   5.719   6.495   5.159  0.3486  2.2444  1.8070
   85MOL    C8620414   5.616   6.871   5.246 -0.3481  0.1582 -0.4170
   85MOL    C8720415   5.685   6.878   5.386 -0.2162 -0.3862  0.9841
   85MOL    C8820416   5.680   6.745   5.459  0.1891 -0.1725 -0.6471
   85MOL    C8920417   5.545   6.701   5.499 -0.0491  0.8922 -0.5791
   85MOL    H9020418   5.514   6.833   5.254 -0.0875 -0.1970  1.2980
   85MOL    H9120419   5.602   6.970   5.203 -0.0508  0.1435 -0.5473
   85MOL    H9220420   5.789   6.896   5.360 -0.8799 -0.3877 -1.7876
   85MOL    H9320421   5.730   6.772   5.552 -0.1076  0.3346 -0.6338
   85MOL    H9420422   5.739   6.666   5.412 -1.6433 -3.7662  2.7908
   85MOL    H9520423   5.501   6.679   5.401  0.2189 -0.2753 -0.4450
   85MOL    H9620424   5.543   6.608   5.556  1.7466  1.3054  0.1770
   85MOL    H9720425   5.483   6.779   5.544 -0.9394 -0.2288  0.1696
   85MOL    C9820426   5.646   7.000   5.462 -0.7376  0.0469  0.3336
   85MOL    C9920427   5.756   7.053   5.562 -0.7437 -0.3314 -0.0119
   85MOL   C10020428   5.705   7.089   5.703  0.1279 -0.3790  0.0944
   85MOL   C10120429   5.619   6.980   5.774  0.6014  0.5784  0.0416
   85MOL   H10220430   5.549   6.983   5.509 -0.7898  0.6548  0.4421
   85MOL   H10320431   5.638   7.075   5.384  1.8532 -0.7801 -0.7723
   85MOL   H10420432   5.827   6.970   5.569  0.4232  0.3031 -3.3686
   85MOL   H10520433   5.641   7.173   5.675 -1.7354 -2.8462 -3.4367
   85MOL   H10620434   5.785   7.125   5.767 -1.2399 -0.8575  2.1356
   85MOL   H10720435   5.674   6.892   5.807 -1.0865  0.4870  2.7618
   85MOL   H10820436   5.566   7.037   5.850  1.0414 -0.3153  1.0258
   85MOL   H10920437   5.538   6.939   5.713  1.7384 -0.0090 -1.1040
   85MOL   C11020438   5.841   7.168   5.497 -0.0477 -0.1479 -0.1284
   85MOL   C11120439   5.985   7.176   5.553 -0.7793  0.2107  0.7124
   85MOL   C11220440   6.059   7.302   5.498  0.0724 -0.0831  0.2779
   85MOL   C11320441   6.162   7.365   5.595  0.5062  0.0756 -0.3713
   85MOL   H11420442   5.795   7.264   5.522 -1.7371 -1.2388  1.0688
   85MOL   H11520443   5.843   7.165   5.388 -1.9971  1.0125 -0.2226
   85MOL   H11620444   5.963   7.202   5.656 -0.4046  0.4681  0.7262
   85MOL   H11720445   5.992   7.379   5.461  1.0227  1.7883  2.3514
   85MOL   H11820446   6.107   7.268   5.406  0.9807  0.8223  0.3965
   85MOL   H11920447   6.255   7.308   5.594  0.7684  0.4991  0.4271
   85MOL   H12020448   6.198   7.464   5.566  1.9615 -0.4029 -0.2294
   85MOL   H12120449   6.124   7.378   5.696  0.8148 -2.8538  0.1802
   85MOL   C12220450   6.077   7.054   5.536  0.4703  0.5753  0.4892
   85MOL   C12320451   6.089   6.970   5.662 -0.9511  0.8088 -1.2294
   85MOL   C12420452   6.170   7.036   5.775  0.0086  0.2232  0.3465
   85MOL   C12520453   6.324   7.059   5.748  0.3032 -0.3866 -0.0519
   85MOL   H12620454   6.180   7.085   5.517  0.2214  0.9442 -0.2534
   85MOL   H12720455   6.048   6.995   5.450  1.9942 -1.2028  1.1459
   85MOL   H12820456   5.989   6.959   5.706 -0.6040  2.1726 -0.0675
   85MOL   H12920457   6.159   6.988   5.873 -0.3649  0.7111  0.5428
   85MOL   H13020458   6.117   7.131   5.769 -2.9060 -1.3700 -0.0950
   85MOL   H13120459   6.351   7.111   5.655  0.2273 -3.4176 -1.8309
   85MOL   H13220460   6.377   7.113   5.826 -1.8590  1.6541  0.0704
   85MOL   H13320461   6.369   6.961   5.739  0.8168 -0.3898  2.2664
   85MOL   C13420462   6.145   6.828   5.644  0.2170  0.6115 -0.1740
   85MOL   C13520463   6.103   6.710   5.739 -0.2844  0.2686  0.7499
   85MOL   C13620464   6.194   6.598   5.729 -0.0825  1.1465 -0.1780
   85MOL   C13720465   6.212   6.535   5.593  0.3389 -0.0054  0.3087
   85MOL   H13820466   6.254   6.822   5.638  0.2678 -0.3914  1.3681
   85MOL   H13920467   6.117   6.806   5.541 -1.5276 -3.1442  1.0378
   85MOL   H14020468   6.124   6.729   5.844  2.5791 -0.0506  0.2754
   85MOL   H14120469   6.167   6.515   5.794 -0.4143  2.6324  1.6268
   85MOL   H14220470   6.292   6.640   5.754  0.2953  0.4990 -0.5638
   85MOL   H14320471   6.271   6.590   5.520 -0.4014 -0.6026 -0.7475
   85MOL   H14420472   6.253   6.434   5.595  1.2842  0.3855  1.9810
   85MOL   H14520473   6.111   6.513   5.558  0.0275 -0.1783  1.2848
   85MOL   C14620474   5.951   6.679   5.715 -0.2331  0.3118  0.2517
   85MOL   C14720475   5.884   6.599   5.831 -0.1279  0.1929 -0.1899
   85MOL   C14820476   5.760   6.532   5.795  0.3986 -0.6501  0.0077
   85MOL   C14920477   5.783   6.420   5.693  0.1719 -0.0797 -0.6172
   85MOL   H15020478   5.945   6.625   5.620 -2.2775  3.3704 -1.4388
   85MOL   H15120479   5.896   6.771   5.698  0.1419  0.5497  0.3276
   85MOL   H15220480   5.950   6.513   5.838 -0.7344 -0.2915 -0.4750
   85MOL   H15320481   5.697   6.615   5.762 -0.8233 -1.5576  0.0161
   85MOL   H15420482   5.715   6.495   5.887 -0.8160 -0.2473 -0.4144
   85MOL   H15520483   5.863   6.349   5.710 -0.1360  0.0852  1.6954
   85MOL   H15620484   5.689   6.369   5.669  0.9036 -0.7027 -2.1957
   85MOL   H15720485   5.809   6.461   5.596 -0.9287 -1.4044 -1.4933
   85MOL   C15820486   5.882   6.673   5.968 -0.3446 -0.9721 -0.1538
   85MOL   C15920487   5.895   6.584   6.087 -0.3270  0.3406  0.4094
   85MOL   C16020488   5.826   6.650   6.209  0.6156  0.1042 -0.2541
   85MOL   C16120489   5.876   6.781   6.270  0.3461  0.2751  0.3926
   85MOL   H16220490   5.785   6.721   5.979 -0.6571 -1.2560 -1.5556
   85MOL   H16320491   5.953   6.755   5.970 -2.4873  0.9461 -0.8787
   85MOL   H16420492   5.846   6.487   6.076  0.0464  0.3850 -1.8381
   85MOL   H16520493   5.814   6.577   6.289 -1.7649  1.9168  1.1000
   85MOL   H16620494   5.725   6.674   6.177  0.8994  1.0363 -0.4766
   85MOL   H16720495   5.800   6.819   6.337  0.4201  1.9763 -0.4648
   85MOL   H16820496   5.974   6.769   6.317  1.5038  0.1611 -1.9190
   85MOL   H16920497   5.889   6.864   6.200 -1.1130 -0.9755 -1.4040
   85MOL   C17020498   6.045   6.556   6.114 -0.0188  0.3308 -0.1260
   85MOL   C17120499   6.079   6.450   6.216  0.6808  1.1939 -0.0390
   85MOL   C17220500   6.231   6.471   6.253  0.1602  0.1929  0.3516
   85MOL   C17320501   6.262   6.603   6.328  0.0200 -0.0201 -0.0560
   85MOL   H17420502   6.098   6.650   6.132  1.0971 -0.4639  0.8403
   85MOL   H17520503   6.090   6.513   6.024  1.0089 -1.1805  1.0864
   85MOL   H17620504   6.019   6.459   6.306  2.4755  1.1959  1.1855
   85MOL   H17720505   6.301   6.436   6.176 -1.6314 -0.4225 -1.0211
   85MOL   H17820506   6.246   6.401   6.335  2.4779  3.2623  2.6833
   85MOL   H17920507   6.171   6.647   6.370  0.4272 -0.0456  0.8633
   85MOL   H18020508   6.324   6.590   6.417  0.5545  1.0929 -0.2577
   85MOL   H18120509   6.313   6.675   6.265  0.6681  1.0751  1.6755
   85MOL   C18220510   6.062   6.296   6.163  0.3769 -0.3526  0.1428
   85MOL   C18320511   6.071   6.184   6.270 -0.7208 -0.0400  0.4166
   85MOL   C18420512   6.067   6.038   6.213 -1.0789 -0.3474  0.3334
   85MOL   C18520513   6.209   5.972   6.178 -0.3824  0.6457  0.7184
   85MOL   H18620514   6.142   6.266   6.094 -2.2910 -3.0640 -1.8990
   85MOL   H18720515   5.964   6.283   6.117 -0.6783  1.7355  1.7628
   85MOL   H18820516   6.170   6.188   6.315 -0.0982 -0.6571 -0.8626
   85MOL   H18920517   6.015   6.032   6.117 -1.3857  0.9287  0.4146
   85MOL   H19020518   6.015   5.963   6.272 -1.3096 -1.8075 -1.6411
   85MOL   H19120519   6.184   5.866   6.171 -0.3967  0.6866  0.1795
   85MOL   H19220520   6.259   6.017   6.093 -2.4097  0.2913 -0.6981
   85MOL   H19320521   6.284   5.976   6.257 -0.1709  3.2941  0.4478
   85MOL   C19420522   5.967   6.204   6.390  0.0941 -0.2201  0.5533
   85MOL   C19520523   6.028   6.241   6.533  0.0946 -0.4760 -0.0477
   85MOL   C19620524   6.098   6.111   6.585 -0.2517  0.0385  0.2911
   85MOL   C19720525   6.180   6.118   6.717  0.7410 -0.2854 -0.2744
   85MOL   H19820526   5.911   6.112   6.406  2.3352 -1.7637 -0.1721
   85MOL   H19920527   5.898   6.278   6.351  1.3280  0.7798  0.2385
   85MOL   H20020528   6.106   6.313   6.509 -2.3704  2.8989  1.5193
   85MOL   H20120529   6.164   6.075   6.506  2.1215  0.5957  1.9801
   85MOL   H20220530   6.020   6.036   6.594  0.5217 -0.8475 -0.3540
   85MOL   H20320531   6.215   6.022   6.755  1.0600  0.4266  1.2758
   85MOL   H20420532   6.257   6.189   6.687 -1.2596  0.8345 -2.9003
   85MOL   H20520533   6.129   6.170   6.798 -0.6389  1.4696 -2.2191
   85MOL   C20620534   5.916   6.282   6.631  0.6953 -0.1406 -0.4324
   85MOL   C20720535   5.880   6.431   6.618 -0.2353 -0.0746  0.0059
   85MOL   C20820536   5.994   6.523   6.666 -0.0972  0.3172  0.0949
   85MOL   C20920537   5.966   6.674   6.629  0.9787 -0.1431  0.0214
   85MOL   H21020538   5.941   6.268   6.736 -0.3385 -0.4795 -0.2223
   85MOL   H21120539   5.832   6.214   6.617  1.2983 -1.2034  1.0495
   85MOL   H21220540   5.860   6.436   6.511 -2.5245 -2.3816  0.2497
   85MOL   H21320541   6.093   6.503   6.624  0.0560 -0.6285  0.8818
   85MOL   H21420542   6.004   6.512   6.774 -1.8605  0.3735  0.2731
   85MOL   H21520543   6.055   6.736   6.624  0.7494  0.2833  1.0595
   85MOL   H21620544   5.892   6.686   6.550  2.6082 -0.6393 -1.6005
   85MOL   H21720545   5.911   6.720   6.711  2.9495 -0.8426  1.7647
   85MOL   C21820546   5.755   6.456   6.702  0.1216 -0.3579  0.6157
   85MOL   C21920547   5.633   6.368   6.652 -1.0429 -0.0135  0.3325
   85MOL   C22020548   5.584   6.384   6.503 -0.0441  0.1563  0.0967
   85MOL   C22120549   5.564   6.529   6.448  0.0252  0.0632 -0.1692
   85MOL   H22220550   5.727   6.559   6.684  2.9485  0.0155 -2.0790
   85MOL   H22320551   5.778   6.450   6.808 -0.8966 -1.1667  0.7966
   85MOL   H22420552   5.649   6.261   6.670  1.3749  0.5277  1.5789
   85MOL   H22520553   5.488   6.334   6.493  0.7023 -1.2420 -0.2088
   85MOL   H22620554   5.661   6.337   6.443 -0.5500  0.7453 -1.0323
   85MOL   H22720555   5.548   6.536   6.341 -1.0474 -0.9925 -0.0866
   85MOL   H22820556   5.469   6.565   6.489 -0.2267 -2.2556  1.3855
   85MOL   H22920557   5.638   6.601   6.483 -0.0254  0.5451 -1.0339
   85MOL   C23020558   5.516   6.390   6.752 -0.4902  0.4661  0.2640
   85MOL   C23120559   5.389   6.305   6.736 -0.5899 -0.3733  0.1278
   85MOL   C23220560   5.306   6.289   6.862 -0.2811  0.2064 -0.6433
   85MOL   C23320561   5.165   6.230   6.829  0.8140 -0.3224 -0.3615
   85MOL   H23420562   5.487   6.495   6.748 -1.1185  0.3191  0.8614
   85MOL   H23520563   5.552   6.370   6.853  0.7557  0.9505 -0.0856
   85MOL   H23620564   5.321   6.349   6.664  0.4384  0.4350 -0.3568
   85MOL   H23720565   5.296   6.373   6.932 -0.4223 -1.3025  1.1904
   85MOL   H23820566   5.356   6.218   6.928 -2.3182 -0.3431  0.3577
   85MOL   H23920567   5.095   6.299   6.783 -1.0550 -0.7605  1.7716
   85MOL   H24020568   5.165   6.133   6.778 -0.0308 -0.0875 -0.8066
   85MOL   H24120569   5.125   6.218   6.929  0.4478  1.4009 -0.2828
   85MOL   H24220570   5.421   6.207   6.700 -2.4074 -0.8777 -0.1779
   86MOL     C120571   4.765   4.298   6.934  0.4250 -0.1044 -0.2601
   86MOL     C220572   4.681   4.264   6.803 -0.1282  0.1341  0.0328
   86MOL     C320573   4.749   4.312   6.672 -0.1445  0.5942  0.0653
   86MOL     C420574   4.887   4.243   6.655  0.3215  0.3300 -0.2746
   86MOL     H520575   4.711   4.278   7.027  0.0943 -0.6193 -0.5635
   86MOL     H620576   4.854   4.236   6.935 -0.1435 -0.9168  0.3077
   86MOL     H720577   4.670   4.159   6.776  0.0501  0.3404 -0.8794
   86MOL     H820578   4.761   4.420   6.674 -0.5415  0.6908 -1.9138
   86MOL     H920579   4.697   4.282   6.581 -1.1542  0.8776  0.5455
   86MOL    H1020580   4.939   4.259   6.561  1.6049  2.4188  0.7516
   86MOL    H1120581   4.959   4.279   6.729 -1.2692 -1.2902  2.1623
   86MOL    H1220582   4.881   4.136   6.672  0.1679 -0.0459 -2.5419
   86MOL    H1320583   4.812   4.396   6.941 -0.7949  0.4369  0.5139
   86MOL    C1420584   4.533   4.306   6.820 -0.4279 -0.6235 -0.8127
   86MOL    C1520585   4.501   4.459   6.828  0.4211  0.4697 -0.4396
   86MOL    C1620586   4.393   4.477   6.942 -0.4942  0.3951 -0.0123
   86MOL    C1720587   4.267   4.380   6.943  0.3127  0.1902  0.1100
   86MOL    H1820588   4.493   4.263   6.912 -0.1740  1.2830  0.2264
   86MOL    H1920589   4.468   4.259   6.747  0.7035 -0.5168 -1.9035
   86MOL    H2020590   4.594   4.493   6.873  1.7929 -0.6326 -2.3337
   86MOL    H2120591   4.360   4.580   6.951 -0.6607  0.6550 -2.9311
   86MOL    H2220592   4.440   4.466   7.039 -0.4963  0.2970 -0.0220
   86MOL    H2320593   4.289   4.280   6.981 -4.0509 -0.2305  1.8975
   86MOL    H2420594   4.188   4.426   7.003 -2.0322 -0.7563 -2.1423
   86MOL    H2520595   4.216   4.364   6.848  0.6319 -0.7262  0.0818
   86MOL    C2620596   4.470   4.523   6.691  0.2951  0.2577  0.0025
   86MOL    C2720597   4.433   4.674   6.680  0.0700  0.4016  0.1248
   86MOL    C2820598   4.328   4.692   6.568 -0.1823 -0.4434 -0.0553
   86MOL    C2920599   4.270   4.836   6.559  0.0602  0.0100  0.2669
   86MOL    H3020600   4.385   4.462   6.663 -1.0089  2.2030 -0.3986
   86MOL    H3120601   4.544   4.493   6.617 -0.6117  1.5884 -1.4955
   86MOL    H3220602   4.395   4.704   6.777  2.7310  1.3338  0.9364
   86MOL    H3320603   4.239   4.628   6.566 -0.1705 -0.4498 -0.5132
   86MOL    H3420604   4.357   4.671   6.465 -1.3521 -1.4913 -0.1903
   86MOL    H3520605   4.243   4.865   6.660 -1.4454 -0.4558  0.0083
   86MOL    H3620606   4.346   4.903   6.520  0.0994 -0.0578  0.2286
   86MOL    H3720607   4.186   4.839   6.489  0.2208 -2.3399 -0.0633
   86MOL    C3820608   4.551   4.762   6.638  0.8871 -0.0771  0.8094
   86MOL    C3920609   4.667   4.768   6.735  0.0330  0.0949 -0.3999
   86MOL    C4020610   4.608   4.814   6.877 -0.3615  0.1162  0.2756
   86MOL    C4120611   4.554   4.959   6.888 -0.1153 -0.3402 -0.3364
   86MOL    H4220612   4.516   4.864   6.624  2.7496  0.7204  1.8398
   86MOL    H4320613   4.588   4.734   6.539 -0.3779  2.2258 -0.3545
   86MOL    H4420614   4.701   4.669   6.767 -0.5286  0.1839  0.4992
   86MOL    H4520615   4.675   4.794   6.961  0.9357  1.4259 -0.4228
   86MOL    H4620616   4.526   4.752   6.912  1.3669 -0.5478  3.4007
   86MOL    H4720617   4.509   4.998   6.979  0.4887 -0.7015  0.1139
   86MOL    H4820618   4.635   5.029   6.867 -0.8717  0.3336 -1.0813
   86MOL    H4920619   4.477   4.977   6.812 -0.9768 -0.7436  0.4332
   86MOL    C5020620   4.785   4.856   6.688 -0.1088 -0.0521 -0.3593
   86MOL    C5120621   4.902   4.866   6.783  1.2895 -1.1521  0.3107
   86MOL    C5220622   5.006   4.967   6.733  1.0566 -0.0827  0.0741
   86MOL    C5320623   5.062   4.937   6.590 -0.5510  0.3003 -0.4822
   86MOL    H5420624   4.751   4.958   6.672 -0.2515 -0.2485 -1.3510
   86MOL    H5520625   4.819   4.836   6.587  0.7320 -2.2693  0.3198
   86MOL    H5620626   4.861   4.896   6.880  0.8025 -0.1276 -0.2055
   86MOL    H5720627   5.086   4.978   6.806  3.1150 -0.5015 -2.0752
   86MOL    H5820628   4.956   5.064   6.734  0.0865 -0.5728  0.2459
   86MOL    H5920629   4.991   4.895   6.518 -1.8454  0.5139  0.6549
   86MOL    H6020630   5.108   5.022   6.540 -0.9626  0.9487  0.2266
   86MOL    H6120631   5.134   4.855   6.593 -1.8074 -0.8760 -1.5182
   86MOL    C6220632   4.971   4.725   6.801 -0.1315  0.2434 -0.0011
   86MOL    C6320633   5.087   4.712   6.897  0.1171 -0.6166 -0.0163
   86MOL    C6420634   5.147   4.566   6.897 -0.3775  0.1860 -0.1566
   86MOL    C6520635   5.226   4.527   6.770 -0.2484 -0.0328 -0.1643
   86MOL    H6620636   5.007   4.696   6.703 -1.2182  0.4222 -0.4555
   86MOL    H6720637   4.898   4.651   6.834  1.2538 -1.9566 -1.7861
   86MOL    H6820638   5.167   4.780   6.866  0.7919 -0.9537  0.9498
   86MOL    H6920639   5.063   4.498   6.907 -0.3504 -0.0232 -1.3343
   86MOL    H7020640   5.201   4.541   6.988 -3.1786  0.1241  1.5391
   86MOL    H7120641   5.322   4.577   6.769 -0.1282 -0.2673 -0.6244
   86MOL    H7220642   5.251   4.421   6.767 -0.8067 -0.1999  0.8473
   86MOL    H7320643   5.178   4.564   6.679 -1.3367 -0.8509  0.0641
   86MOL    C7420644   5.061   4.757   7.040 -0.1297 -0.2573 -0.0720
   86MOL    C7520645   5.173   4.759   7.149  0.4367  0.1635 -0.0391
   86MOL    C7620646   5.121   4.790   7.300  0.2282  0.0117  0.0898
   86MOL    C7720647   5.058   4.924   7.321 -0.0635 -0.0638  0.2421
   86MOL    H7820648   4.976   4.696   7.071 -0.6180  0.6006  0.3181
   86MOL    H7920649   5.022   4.859   7.046 -1.3206 -0.7867  1.3919
   86MOL    H8020650   5.220   4.661   7.155  0.5255  0.3004  1.5990
   86MOL    H8120651   5.209   4.782   7.364 -0.7838 -2.2643  1.2434
   86MOL    H8220652   5.057   4.708   7.332  0.0216  0.9446  2.1279
   86MOL    H8320653   5.034   4.944   7.425  0.9544 -1.0009  0.6713
   86MOL    H8420654   5.127   5.005   7.297  0.7819 -0.6475  0.6536
   86MOL    H8520655   4.967   4.922   7.262  0.3188 -1.2635 -0.3425
   86MOL    C8620656   5.292   4.853   7.108  0.8174 -0.0204 -0.1933
   86MOL    C8720657   5.414   4.846   7.202  0.6551 -0.6866 -0.9480
   86MOL    C8820658   5.529   4.934   7.143 -0.4256 -0.8550  0.5721
   86MOL    C8920659   5.507   5.080   7.146  0.1149  0.3758 -0.3023
   86MOL    H9020660   5.258   4.957   7.109 -0.7043 -0.3715 -4.4200
   86MOL    H9120661   5.319   4.844   7.003  1.2792  1.1411 -0.1871
   86MOL    H9220662   5.388   4.898   7.295  1.9334 -0.4152 -0.7357
   86MOL    H9320663   5.558   4.915   7.039 -0.3609  0.3495  0.3589
   86MOL    H9420664   5.622   4.918   7.197  0.3716 -0.8663 -0.7643
   86MOL    H9520665   5.593   5.125   7.096 -0.4700  0.1939 -1.4939
   86MOL    H9620666   5.423   5.109   7.082 -0.4086  0.0056  0.2187
   86MOL    H9720667   5.496   5.123   7.245 -1.0394  0.7404 -0.5789
   86MOL    C9820668   5.469   4.706   7.248 -0.2981  0.0043 -0.1124
   86MOL    C9920669   5.580   4.696   7.357 -0.0971  0.0941 -0.5164
   86MOL   C10020670   5.605   4.551   7.396  0.2356  0.6901 -0.0426
   86MOL   C10120671   5.478   4.470   7.443  0.2650 -0.6073 -0.2682
   86MOL   H10220672   5.513   4.668   7.155  0.5754  4.9398 -1.8479
   86MOL   H10320673   5.380   4.654   7.283 -1.3409  0.7750 -1.5940
   86MOL   H10420674   5.672   4.737   7.316 -1.2341  1.7227 -1.4795
   86MOL   H10520675   5.686   4.536   7.468 -0.8430  0.3850  1.1225
   86MOL   H10620676   5.642   4.495   7.310 -0.2316  0.5138 -0.1266
   86MOL   H10720677   5.419   4.512   7.525 -2.3656 -2.6417 -1.0642
   86MOL   H10820678   5.402   4.465   7.366 -2.0697 -0.7809  1.9927
   86MOL   H10920679   5.485   4.362   7.456 -1.5828 -1.0221 -2.4785
   86MOL   C11020680   5.548   4.774   7.490 -0.6850  0.2566  0.2255
   86MOL   C11120681   5.602   4.919   7.512  0.6146 -0.2235 -0.0004
   86MOL   C11220682   5.759   4.909   7.535  0.2515  0.0756  0.2411
   86MOL   C11320683   5.825   5.046   7.520  0.2745  0.4263 -0.2610
   86MOL   H11420684   5.602   4.725   7.571  0.7517  1.5747  0.0743
   86MOL   H11520685   5.444   4.769   7.524 -0.7839  3.8139  0.5568
   86MOL   H11620686   5.586   4.975   7.420 -1.2249  1.4988  1.3325
   86MOL   H11720687   5.811   4.840   7.469  3.0523  1.4933  0.8684
   86MOL   H11820688   5.767   4.882   7.640 -1.8753 -1.7954 -0.0422
   86MOL   H11920689   5.774   5.120   7.582 -0.1527  0.3089 -0.4724
   86MOL   H12020690   5.930   5.042   7.550  1.0857  1.4284 -2.8309
   86MOL   H12120691   5.817   5.083   7.418 -2.0201  2.2082  0.5155
   86MOL   C12220692   5.520   4.996   7.628 -0.5824 -0.2947 -0.9232
   86MOL   C12320693   5.365   5.013   7.617  0.3044 -0.8387 -0.2152
   86MOL   C12420694   5.321   5.125   7.512 -0.3220  0.3734  0.5831
   86MOL   C12520695   5.345   5.270   7.550 -0.8993  0.6826  0.2674
   86MOL   H12620696   5.557   5.097   7.645 -1.8888 -0.0576  0.6373
   86MOL   H12720697   5.535   4.947   0.018 -2.0319 -0.4215 -0.7481
   86MOL   H12820698   5.315   4.929   7.569  2.0778 -0.7339 -2.3259
   86MOL   H12920699   5.216   5.113   7.486 -0.1572 -1.7272  0.7700
   86MOL   H13020700   5.378   5.105   7.422 -0.2648 -2.7115  1.2280
   86MOL   H13120701   5.443   5.269   7.596 -1.4483 -1.2255  1.4290
   86MOL   H13220702   5.329   5.333   7.463  1.1476  2.1763  0.9233
   86MOL   H13320703   5.267   5.303   7.620  0.3169 -2.7704  3.4400
   86MOL   C13420704   5.311   5.035   0.057 -0.0420  0.9877 -0.5189
   86MOL   C13520705   5.158   5.006   0.062 -0.7614 -0.6682 -0.0577
   86MOL   C13620706   5.088   5.058   0.190  0.2236 -0.5353  0.5201
   86MOL   C13720707   5.062   5.208   0.187 -0.2414 -0.0304 -0.4020
   86MOL   H13820708   5.327   5.136   0.095  1.6906  0.9241 -1.0145
   86MOL   H13920709   5.356   4.973   0.135 -1.5204  2.6144  1.6896
   86MOL   H14020710   5.122   5.066   7.684  2.1734  0.9054 -0.2401
   86MOL   H14120711   5.135   5.026   0.283  2.8182 -4.4598 -2.0072
   86MOL   H14220712   4.987   5.017   0.196  0.5740 -1.2655  1.6170
   86MOL   H14320713   5.002   5.237   0.101  2.6574  1.2277 -2.0462
   86MOL   H14420714   5.023   5.239   0.285 -0.7690 -0.8390 -0.3517
   86MOL   H14520715   5.152   5.268   0.174  0.1114 -1.0379 -2.8471
   86MOL   C14620716   5.106   4.860   0.019 -0.0868 -0.2291 -0.1315
   86MOL   C14720717   5.175   4.733   0.078  0.4005  0.5066  0.2768
   86MOL   C14820718   5.130   4.598   0.018 -0.2456  0.5920  0.5027
   86MOL   C14920719   4.983   4.561   0.052  0.1932 -0.5549  0.1920
   86MOL   H15020720   5.112   4.850   7.617  1.8332  0.6862 -0.1331
   86MOL   H15120721   4.999   4.853   0.040  0.3327  1.7996  3.1666
   86MOL   H15220722   5.283   4.746   0.074  0.4992 -0.5350 -0.7930
   86MOL   H15320723   5.193   4.513   0.046 -1.4965 -1.3446 -2.3594
   86MOL   H15420724   5.119   4.606   7.616  0.1129  0.1854  0.4308
   86MOL   H15520725   4.913   4.641   0.029  3.1366  2.3545  1.0163
   86MOL   H15620726   4.961   4.472   7.698  2.8164 -0.7540 -0.5413
   86MOL   H15720727   4.983   4.533   0.157  0.0418  0.1434  0.3790
   86MOL   C15820728   5.155   4.745   0.234  0.7711 -0.0745  0.3201
   86MOL   C15920729   5.207   4.629   0.317 -0.0236 -0.8580  0.1350
   86MOL   C16020730   5.141   4.623   0.462 -0.2558  0.2150  0.3968
   86MOL   C16120731   5.005   4.551   0.449  0.0726  0.0652  0.3652
   86MOL   H16220732   5.046   4.740   0.237  0.8158 -2.7746 -0.9172
   86MOL   H16320733   5.183   4.839   0.282  0.3898  0.9653 -1.4398
   86MOL   H16420734   5.182   4.538   0.263  0.9114 -0.5605 -0.8226
   86MOL   H16520735   5.121   4.721   0.503 -0.8023 -0.6154  2.1580
   86MOL   H16620736   5.207   4.565   0.526 -0.3642 -0.3816 -0.0143
   86MOL   H16720737   4.931   4.588   0.378 -0.9099  0.6951  1.6863
   86MOL   H16820738   5.024   4.453   0.404 -1.1250  0.4071 -0.8985
   86MOL   H16920739   4.960   4.526   0.545 -0.3670 -2.3593 -0.4281
   86MOL   C17020740   5.361   4.633   0.331 -0.5370 -0.1752 -0.4387
   86MOL   C17120741   5.435   4.493   0.321 -0.6665  0.0771  0.0660
   86MOL   C17220742   5.399   4.406   0.443  0.3191 -0.6010  0.1154
   86MOL   C17320743   5.457   4.456   0.582 -0.2409  0.0998  0.2482
   86MOL   H17420744   5.393   4.687   0.420  3.6955 -0.1619 -1.8437
   86MOL   H17520745   5.396   4.704   0.255  1.2766 -1.6969 -1.0808
   86MOL   H17620746   5.406   4.444   0.228 -0.1728  1.3959 -0.7968
   86MOL   H17720747   5.451   4.312   0.423 -2.0657 -1.5580 -1.8212
   86MOL   H17820748   5.292   4.385   0.442  0.1267  0.3707  0.3734
   86MOL   H17920749   5.424   4.554   0.614  0.7694 -0.0640  1.8175
   86MOL   H18020750   5.438   4.375   0.653 -1.3928 -0.8974 -1.1528
   86MOL   H18120751   5.565   4.463   0.591 -0.0696 -0.3791 -1.2541
   86MOL   C18220752   5.591   4.501   0.318  0.7412  0.6201 -0.0699
   86MOL   C18320753   5.666   4.551   0.191  0.5581  0.1209 -0.4815
   86MOL   C18420754   5.621   4.479   0.063 -0.4096  0.3083  0.1416
   86MOL   C18520755   5.616   4.321   0.070 -0.2972 -0.1526 -0.0953
   86MOL   H18620756   5.634   4.403   0.336  0.3173  0.4945  0.2672
   86MOL   H18720757   5.610   4.567   0.402 -3.3553  1.6293  0.1891
   86MOL   H18820758   5.640   4.655   0.175 -2.5762 -0.4058  0.8774
   86MOL   H18920759   5.689   4.505   7.688  1.2471 -1.5705  0.8891
   86MOL   H19020760   5.525   4.521   0.034 -0.1981  1.3810  0.9896
   86MOL   H19120761   5.625   4.287   7.673 -0.3370 -1.0045  0.1791
   86MOL   H19220762   5.691   4.287   0.141  0.8016  2.3349 -0.0255
   86MOL   H19320763   5.522   4.281   0.106 -0.6374  0.0046 -0.8033
   86MOL   C19420764   5.817   4.554   0.224 -0.2931  0.9606  0.2008
   86MOL   C19520765   5.859   4.674   0.311 -0.1532 -0.0907 -0.1542
   86MOL   C19620766   5.967   4.764   0.250 -0.3316 -0.0800 -0.1496
   86MOL   C19720767   5.934   4.816   0.113  0.6896 -0.3042  0.9102
   86MOL   H19820768   5.862   4.553   0.125 -0.8288  2.2954 -0.0623
   86MOL   H19920769   5.843   4.454   0.259  0.7642  0.6861 -1.3077
   86MOL   H20020770   5.770   4.736   0.320 -0.9799 -0.8390 -2.8158
   86MOL   H20120771   6.056   4.701   0.243  0.5453  0.7349  2.8938
   86MOL   H20220772   5.979   4.854   0.311 -3.6523  0.4343 -0.1662
   86MOL   H20320773   5.837   4.778   0.081  0.2393  0.7542  0.9784
   86MOL   H20420774   5.933   4.925   0.101  0.4912 -0.6502 -2.8469
   86MOL   H20520775   6.000   4.773   0.038 -1.8207  0.4681 -1.8013
   86MOL   C20620776   5.890   4.625   0.462  0.6037 -0.6605  0.0649
   86MOL   C20720777   5.871   4.736   0.566  0.6519 -0.5078 -0.0265
   86MOL   C20820778   5.946   4.707   0.698  0.2935  0.6207  0.1737
   86MOL   C20920779   6.100   4.678   0.680  0.3193 -0.9142 -0.2761
   86MOL   H21020780   5.983   4.569   0.467  1.0495 -0.1886 -2.4783
   86MOL   H21120781   5.825   4.544   0.495  2.1002 -1.5482  0.8808
   86MOL   H21220782   5.905   4.834   0.534  0.2548 -0.5890 -0.7150
   86MOL   H21320783   5.897   4.636   0.764 -1.3085  2.1336  0.6460
   86MOL   H21420784   5.938   4.798   0.757 -1.8440 -0.7028  1.9956
   86MOL   H21520785   6.121   4.585   0.626 -0.3276  0.6040 -3.2094
   86MOL   H21620786   6.139   4.761   0.622 -0.3970  1.0923  2.0378
   86MOL   H21720787   6.155   4.681   0.775 -1.9346 -0.6913  1.0715
   86MOL   C21820788   5.719   4.760   0.604  0.4965  0.1783  0.1259
   86MOL   C21920789   5.683   4.892   0.676 -0.4561  0.1684 -0.2890
   86MOL   C22020790   5.614   4.875   0.810 -0.1769  0.1050  0.3550
   86MOL   C22120791   5.464   4.842   0.799 -0.0829 -0.1673 -0.1998
   86MOL   H22220792   5.682   4.669   0.650  0.3512 -0.0503 -0.4314
   86MOL   H22320793   5.665   4.761   0.509 -0.0825 -0.0364  0.4478
   86MOL   H22420794   5.782   4.930   0.701 -0.3699  0.1739 -0.6317
   86MOL   H22520795   5.615   4.970   0.864 -1.1625 -0.3462  1.1951
   86MOL   H22620796   5.666   4.797   0.866  1.3024  0.7898 -0.0544
   86MOL   H22720797   5.415   4.828   0.895 -1.0848  0.2753 -0.6398
   86MOL   H22820798   5.427   4.934   0.754  1.4824  0.1088 -0.9546
   86MOL   H22920799   5.452   4.755   0.734  1.7983  0.4872 -1.4471
   86MOL   C23020800   5.607   4.995   0.587 -0.5261 -0.4111  0.0335
   86MOL   C23120801   5.689   5.035   0.462  0.5202  0.0865  0.4142
   86MOL   C23220802   5.620   5.134   0.372 -0.8076  0.6764 -0.1963
   86MOL   C23320803   5.718   5.196   0.274 -0.9098 -0.3731 -0.0456
   86MOL   H23420804   5.571   5.084   0.639  2.3721  0.5118  0.5707
   86MOL   H23520805   5.518   4.946   0.547 -0.8191  0.7705 -0.7674
   86MOL   H23620806   5.791   5.059   0.494 -0.2411  1.0762  2.2229
   86MOL   H23720807   5.559   5.204   0.429  0.9741  0.9358  1.4469
   86MOL   H23820808   5.547   5.091   0.304 -0.0996  1.4883 -1.4757
   86MOL   H23920809   5.798   5.251   0.322 -1.3329  0.1880  0.0201
   86MOL   H24020810   5.752   5.108   0.218 -0.4513  1.7208 -3.1644
   86MOL   H24120811   5.672   5.260   0.199  1.0628  1.6639  0.4305
   86MOL   H24220812   5.708   4.946   0.402  2.2849 -0.2333  1.4217
   87MOL     C120813   2.291   6.057   2.777  0.7907  0.0093  0.6036
   87MOL     C220814   2.215   6.189   2.780  0.0605  0.4353  0.0671
   87MOL     C320815   2.309   6.302   2.734 -0.2810 -0.1527 -0.1449
   87MOL     C420816   2.442   6.336   2.808 -0.3129  0.3345 -0.1841
   87MOL     H520817   2.225   5.976   2.746 -0.3155  0.8793  0.6531
   87MOL     H620818   2.362   6.055   2.694  0.0268 -2.7408 -0.0418
   87MOL     H720819   2.130   6.181   2.711 -2.0894  1.4029  2.4961
   87MOL     H820820   2.244   6.389   2.728  1.8804  1.5315  0.0578
   87MOL     H920821   2.330   6.271   2.631  1.2850  0.4186 -0.0145
   87MOL    H1020822   2.486   6.418   2.751 -1.3420  0.1661 -1.2235
   87MOL    H1120823   2.431   6.384   2.906 -2.2998  0.5031 -0.4733
   87MOL    H1220824   2.515   6.255   2.801  0.5069  0.7978  2.3227
   87MOL    H1320825   2.348   6.048   2.869  0.3952 -2.7593  0.6167
   87MOL    C1420826   2.167   6.225   2.929  0.5106  0.1997 -0.1420
   87MOL    C1520827   2.067   6.120   2.989 -0.1534  0.3922  0.3983
   87MOL    C1620828   1.943   6.089   2.897 -0.2987 -0.2229  0.0143
   87MOL    C1720829   1.872   6.215   2.855 -0.2343  0.6757  0.0423
   87MOL    H1820830   2.137   6.330   2.933  1.1654  0.4323 -1.2242
   87MOL    H1920831   2.260   6.217   2.985  1.6071 -2.1567 -2.1645
   87MOL    H2020832   2.111   6.020   2.986 -3.2853 -1.0165 -0.1173
   87MOL    H2120833   1.868   6.036   2.955  1.1027 -1.7819  0.4489
   87MOL    H2220834   1.965   6.025   2.811 -1.3990 -3.8498  2.2962
   87MOL    H2320835   1.928   6.272   2.780  0.7743 -0.3679 -0.0103
   87MOL    H2420836   1.783   6.193   2.796  0.2102 -2.0021  0.3313
   87MOL    H2520837   1.850   6.280   2.940 -1.3382  0.2745  0.0657
   87MOL    C2620838   2.024   6.158   3.138  0.1889  0.2281  0.3215
   87MOL    C2720839   2.128   6.168   3.252  0.3080  0.3596 -0.1475
   87MOL    C2820840   2.233   6.055   3.242  0.3501  0.4644  0.0686
   87MOL    C2920841   2.345   6.069   3.342 -0.3889  0.0719 -0.2407
   87MOL    H3020842   1.962   6.072   3.166  0.4812  0.8185  2.8648
   87MOL    H3120843   1.957   6.244   3.139 -0.7563 -0.4749 -0.6176
   87MOL    H3220844   2.164   6.270   3.256  0.9236  0.1635 -0.6802
   87MOL    H3320845   2.288   6.042   3.149  0.1262  3.2275 -0.4997
   87MOL    H3420846   2.191   5.957   3.265 -0.1374  0.2595 -1.6014
   87MOL    H3520847   2.308   6.090   3.443 -1.7519 -2.6972 -0.1346
   87MOL    H3620848   2.418   5.988   3.345 -1.5683 -0.9479  1.3975
   87MOL    H3720849   2.398   6.160   3.313 -0.9743  0.8527  1.0503
   87MOL    C3820850   2.049   6.154   3.388 -0.6209 -0.0269  0.4759
   87MOL    C3920851   1.937   6.257   3.417 -0.1933  0.3087  0.0507
   87MOL    C4020852   1.996   6.396   3.428 -0.2403  0.0121  0.3915
   87MOL    C4120853   1.903   6.518   3.445 -0.1938  0.6839 -0.4384
   87MOL    H4220854   2.121   6.182   3.465 -1.0248  0.7876  0.5636
   87MOL    H4320855   2.014   6.052   3.396  0.1140 -0.4178 -1.1617
   87MOL    H4420856   1.865   6.261   3.335  3.1954  0.7554 -3.0310
   87MOL    H4520857   2.061   6.416   3.343  3.1433  1.1386  3.1554
   87MOL    H4620858   2.060   6.396   3.515 -0.0964 -2.7440  0.3174
   87MOL    H4720859   1.838   6.540   3.529 -0.0815 -2.3236  0.5032
   87MOL    H4820860   1.966   6.606   3.463 -2.0976  1.8747  0.5196
   87MOL    H4920861   1.847   6.529   3.352 -1.3639  0.7799  0.2726
   87MOL    C5020862   1.874   6.221   3.557  0.0591  0.5428  0.3386
   87MOL    C5120863   1.784   6.093   3.556 -0.4906 -0.2767 -0.2091
   87MOL    C5220864   1.665   6.094   3.464  0.2014 -0.3580  0.0671
   87MOL    C5320865   1.557   6.201   3.494 -0.0259 -0.6410  0.8668
   87MOL    H5420866   1.806   6.301   3.587  0.7689  0.8249  1.2191
   87MOL    H5520867   1.955   6.209   3.629  2.0418  0.9634 -1.7425
   87MOL    H5620868   1.861   6.021   3.528  0.1657  0.4240 -0.2226
   87MOL    H5720869   1.612   5.999   3.457  0.1376 -0.3100 -0.1155
   87MOL    H5820870   1.710   6.101   3.365  3.1888  2.0071  1.5038
   87MOL    H5920871   1.591   6.304   3.480 -0.6902 -0.6170 -0.7126
   87MOL    H6020872   1.472   6.180   3.429  0.3833 -2.9670  1.0450
   87MOL    H6120873   1.528   6.201   3.599  0.5228 -2.3082  1.0377
   87MOL    C6220874   1.751   6.069   3.705  0.6078  0.4617  0.9641
   87MOL    C6320875   1.676   5.936   3.756  0.0683 -0.4340 -0.0478
   87MOL    C6420876   1.624   5.943   3.899 -0.5139  0.1025 -0.5046
   87MOL    C6520877   1.527   5.840   3.950  0.0307 -0.4267 -0.3553
   87MOL    H6620878   1.698   6.159   3.737  2.1392  1.0043  2.0105
   87MOL    H6720879   1.845   6.083   3.758  0.4511  2.3246  0.7974
   87MOL    H6820880   1.582   5.935   3.700  0.2757  0.5581 -0.4377
   87MOL    H6920881   1.567   6.035   3.904 -0.3545  0.1422  0.6930
   87MOL    H7020882   1.706   5.953   3.970  1.6915 -0.8529 -2.8185
   87MOL    H7120883   1.441   5.828   3.885 -0.0129 -3.1759  0.1380
   87MOL    H7220884   1.563   5.737   3.945 -2.5824 -1.3252 -1.0556
   87MOL    H7320885   1.502   5.861   4.054 -0.6975 -1.1160 -0.3849
   87MOL    C7420886   1.746   5.805   3.718  0.1164  0.2433  0.1251
   87MOL    C7520887   1.893   5.782   3.764  0.5363 -0.6565 -0.4950
   87MOL    C7620888   1.973   5.705   3.659  0.5174 -0.3928 -0.6746
   87MOL    C7720889   2.114   5.658   3.695 -0.1636  0.5751  0.1065
   87MOL    H7820890   1.748   5.810   3.609  1.0806  2.8699  0.2254
   87MOL    H7920891   1.684   5.720   3.746  0.3980  0.0138  0.0555
   87MOL    H8020892   1.942   5.879   3.775  1.6488 -1.2489 -0.2640
   87MOL    H8120893   1.985   5.770   3.573 -0.5553  1.2634  0.4018
   87MOL    H8220894   1.921   5.621   3.613  0.3562  1.0430 -3.1634
   87MOL    H8320895   2.171   5.591   3.630 -0.3207  0.8484 -0.3105
   87MOL    H8420896   2.191   5.733   3.713  0.1085  0.9137 -2.2612
   87MOL    H8520897   2.096   5.606   3.790 -3.1747  0.1951 -0.6215
   87MOL    C8620898   1.889   5.713   3.907 -0.1716  0.2408 -0.1058
   87MOL    C8720899   1.968   5.790   4.025  0.8121 -0.2703 -0.3026
   87MOL    C8820900   2.116   5.812   3.991 -0.1344  0.1904  0.0012
   87MOL    C8920901   2.180   5.920   4.075  0.5128  0.0900 -0.2325
   87MOL    H9020902   1.923   5.611   3.895 -3.1622 -0.7096 -0.8013
   87MOL    H9120903   1.782   5.713   3.925 -0.2336 -1.1923 -0.4567
   87MOL    H9220904   1.929   5.891   4.014 -0.6945 -0.8935 -0.8471
   87MOL    H9320905   2.122   5.832   3.884 -1.3809  0.1951 -0.0734
   87MOL    H9420906   2.160   5.715   4.012 -0.1555  0.1214 -0.2707
   87MOL    H9520907   2.165   5.907   4.183  3.3893  0.7488  0.2681
   87MOL    H9620908   2.288   5.924   4.064  0.4880 -0.9407 -0.9373
   87MOL    H9720909   2.154   6.021   4.045 -0.2697  1.4139  4.4864
   87MOL    C9820910   1.938   5.731   4.163  0.0026 -0.0443  0.4794
   87MOL    C9920911   1.819   5.788   4.239 -0.1031 -0.7461  0.3886
   87MOL   C10020912   1.830   5.936   4.269 -0.1709  0.0491 -0.3079
   87MOL   C10120913   1.921   5.974   4.386 -0.0999  0.2721 -0.0326
   87MOL   H10220914   2.021   5.729   4.233 -0.3123 -1.4886  0.8252
   87MOL   H10320915   1.936   5.625   4.139  2.3020  0.2636 -1.2464
   87MOL   H10420916   1.734   5.774   4.173  0.4450 -0.3712 -0.4021
   87MOL   H10520917   1.734   5.985   4.281  0.6262  1.7986 -0.8996
   87MOL   H10620918   1.859   5.994   4.181 -0.3130 -1.0040 -1.0608
   87MOL   H10720919   1.947   6.078   4.366  0.0174  0.1656 -0.4561
   87MOL   H10820920   1.865   5.968   4.479 -0.7097  0.2761 -0.4000
   87MOL   H10920921   2.009   5.911   4.399  0.3177  1.1301  1.3999
   87MOL   C11020922   1.784   5.709   4.368  0.2155  0.0203 -0.3144
   87MOL   C11120923   1.718   5.576   4.340  0.2183  0.3865  0.2066
   87MOL   C11220924   1.563   5.583   4.348  0.0900 -0.6152 -0.1014
   87MOL   C11320925   1.495   5.464   4.280  0.4055 -0.6566 -0.6423
   87MOL   H11420926   1.713   5.762   4.432  0.5747 -3.1691  2.8673
   87MOL   H11520927   1.876   5.696   4.425 -0.1734 -0.4729  0.2090
   87MOL   H11620928   1.733   5.557   4.234 -0.3719 -0.9627  0.3567
   87MOL   H11720929   1.527   5.679   4.311  3.6201  0.8424  0.1046
   87MOL   H11820930   1.526   5.593   4.450 -1.2754  2.3345 -0.8279
   87MOL   H11920931   1.403   5.496   4.230  0.5112 -0.0430 -0.4443
   87MOL   H12020932   1.554   5.417   4.202  2.4276  0.5562  0.1317
   87MOL   H12120933   1.456   5.389   4.348  1.3719 -1.1412 -0.6266
   87MOL   C12220934   1.772   5.460   4.423 -0.4493  0.2543 -0.3728
   87MOL   C12320935   1.923   5.422   4.406  0.1199  0.3618  0.5396
   87MOL   C12420936   1.938   5.289   4.327 -0.2626 -0.3012  0.3461
   87MOL   C12520937   1.898   5.291   4.175 -0.6712  0.3945  0.4727
   87MOL   H12620938   1.700   5.377   4.418 -1.9396  1.4507  0.8036
   87MOL   H12720939   1.766   5.486   4.528 -2.7830 -0.2625 -0.3315
   87MOL   H12820940   1.959   5.504   4.344 -2.2733 -1.0856 -2.9104
   87MOL   H12920941   1.875   5.218   4.380 -0.5504 -0.8320 -0.6925
   87MOL   H13020942   2.044   5.265   4.328 -0.1393  0.2379  0.6149
   87MOL   H13120943   1.792   5.313   4.168 -0.0974  3.0180 -0.5217
   87MOL   H13220944   1.933   5.380   4.122 -1.1807  0.4031  0.1529
   87MOL   H13320945   1.929   5.195   4.134 -1.3948  0.8455 -1.1592
   87MOL   C13420946   2.013   5.440   4.530 -0.4760  0.5876  0.2457
   87MOL   C13520947   2.168   5.438   4.516 -0.2268 -0.1039  0.8336
   87MOL   C13620948   2.228   5.410   4.651  0.3164 -0.9804 -0.2580
   87MOL   C13720949   2.382   5.387   4.644  0.8414 -0.0982  0.6996
   87MOL   H13820950   1.977   5.368   4.604 -0.1429  0.2222  0.0547
   87MOL   H13920951   1.981   5.537   4.569 -0.8333  1.2225 -1.5913
   87MOL   H14020952   2.189   5.347   4.460 -0.6923 -0.4623  1.2205
   87MOL   H14120953   2.187   5.317   4.690  2.1985 -0.8384  2.1279
   87MOL   H14220954   2.205   5.498   4.711  1.3509 -0.7504 -0.1955
   87MOL   H14320955   2.413   5.340   4.738 -2.2236 -0.6151  1.5234
   87MOL   H14420956   2.406   5.310   4.571 -2.4473  0.0936 -0.6519
   87MOL   H14520957   2.445   5.475   4.633  0.9955 -0.6076 -2.8255
   87MOL   C14620958   2.221   5.563   4.442 -0.3445  0.9760  1.2274
   87MOL   C14720959   2.332   5.540   4.338  0.2726 -0.1263 -0.0455
   87MOL   C14820960   2.390   5.668   4.291 -0.3821 -0.0059 -0.2538
   87MOL   C14920961   2.475   5.744   4.396 -0.1822  0.0945  0.8353
   87MOL   H15020962   2.254   5.634   4.518 -0.3997  0.5993  1.6018
   87MOL   H15120963   2.148   5.628   4.393 -4.0543 -3.7288  0.1177
   87MOL   H15220964   2.417   5.482   4.373  0.8371  1.5071  1.3636
   87MOL   H15320965   2.301   5.725   4.267 -1.2541 -1.2604 -0.0388
   87MOL   H15420966   2.445   5.651   4.198 -0.8169 -1.2006 -0.3034
   87MOL   H15520967   2.438   5.767   4.496  0.0348  1.2694  0.6522
   87MOL   H15620968   2.562   5.687   4.429 -0.2307 -0.5669 -0.1488
   87MOL   H15720969   2.526   5.830   4.352  2.0146  0.1238  3.3386
   87MOL   C15820970   2.279   5.465   4.213  0.5485 -0.2134  0.5618
   87MOL   C15920971   2.369   5.381   4.113  0.3552 -0.2678 -1.1142
   87MOL   C16020972   2.328   5.404   3.972  0.9128  0.3226  0.3727
   87MOL   C16120973   2.192   5.356   3.932 -0.6311  0.0448 -0.3470
   87MOL   H16220974   2.216   5.535   4.159 -1.1069 -3.5167 -1.9443
   87MOL   H16320975   2.211   5.386   4.246 -1.4412  0.4350 -1.7941
   87MOL   H16420976   2.463   5.434   4.132  0.0957 -0.8814  2.2444
   87MOL   H16520977   2.405   5.369   3.903  0.1335 -1.1557  0.2291
   87MOL   H16620978   2.336   5.509   3.944  2.4653 -0.2630 -1.4020
   87MOL   H16720979   2.194   5.247   3.933  2.7311  0.0373  1.4886
   87MOL   H16820980   2.115   5.391   4.001 -0.1680 -0.7670  0.5997
   87MOL   H16920981   2.169   5.378   3.828 -1.2862  0.2199 -0.1721
   87MOL   C17020982   2.392   5.239   4.166  0.4603  0.3197 -0.2153
   87MOL   C17120983   2.501   5.165   4.085  0.4367  0.1104 -0.4672
   87MOL   C17220984   2.497   5.009   4.117  0.4662  0.0602  0.3846
   87MOL   C17320985   2.528   4.961   4.260  0.2911 -0.7851  0.2444
   87MOL   H17420986   2.294   5.194   4.155 -0.9192  2.8924  1.1982
   87MOL   H17520987   2.413   5.241   4.273  0.0343 -0.1515 -0.1258
   87MOL   H17620988   2.460   5.169   3.985 -1.9985 -1.2657  0.4352
   87MOL   H17720989   2.548   4.944   4.046 -0.2064  1.0283 -1.0225
   87MOL   H17820990   2.395   4.972   4.102  0.3593 -0.4313  2.2691
   87MOL   H17920991   2.497   4.860   4.287 -0.3455 -0.5666  0.3280
   87MOL   H18020992   2.630   4.984   4.290  0.5280 -0.4830 -0.7902
   87MOL   H18120993   2.470   5.028   4.323  2.7683  1.1378  0.5697
   87MOL   C18220994   2.644   5.229   4.105  0.5551  0.1947  0.3668
   87MOL   C18320995   2.715   5.295   3.983 -0.1357 -0.2288 -0.3996
   87MOL   C18420996   2.752   5.195   3.867 -0.6963  0.3180 -0.3290
   87MOL   C18520997   2.850   5.083   3.900  0.8852 -0.1680 -0.5005
   87MOL   H18620998   2.705   5.155   4.156  1.4501  1.7547  1.6126
   87MOL   H18720999   2.642   5.311   4.177 -0.6715  0.2596  0.2686
   87MOL   H18821000   2.628   5.344   3.940 -0.4136 -0.7569 -0.4419
   87MOL   H18921001   2.791   5.260   3.789  1.0705  1.0399  1.1356
   87MOL   H19021002   2.661   5.146   3.833 -0.5234  1.1188 -1.9879
   87MOL   H19121003   2.945   5.127   3.930 -0.7334  2.0660  1.5304
   87MOL   H19221004   2.821   5.025   3.987 -0.8784  1.1005 -0.1992
   87MOL   H19321005   2.860   5.017   3.814  0.2095 -2.8798  1.4556
   87MOL   C19421006   2.831   5.402   4.012 -0.3527 -0.3489 -0.5016
   87MOL   C19521007   2.801   5.543   4.057  0.6112 -0.0649  0.1403
   87MOL   C19621008   2.735   5.618   3.944 -0.1964  0.0396 -0.0797
   87MOL   C19721009   2.649   5.748   3.975 -0.0821 -0.1857  0.3119
   87MOL   H19821010   2.904   5.411   3.931  2.5541 -0.6140  1.9829
   87MOL   H19921011   2.897   5.358   4.088 -0.6229 -3.4634 -1.9647
   87MOL   H20021012   2.723   5.551   4.134  0.4029 -1.6452  0.1162
   87MOL   H20121013   2.663   5.560   3.887  1.5896 -2.1233 -0.2062
   87MOL   H20221014   2.808   5.631   3.864 -0.7411 -0.8819 -0.7369
   87MOL   H20321015   2.711   5.821   4.027  0.8790 -0.4388 -0.4672
   87MOL   H20421016   2.614   5.790   3.881  1.5603 -0.8932 -0.6396
   87MOL   H20521017   2.561   5.708   4.024  1.3250 -2.3241  1.1732
   87MOL   C20621018   2.922   5.619   4.102 -0.1224 -0.1163  0.4033
   87MOL   C20721019   2.972   5.569   4.239 -0.2502 -0.6419 -0.5448
   87MOL   C20821020   2.985   5.695   4.332  0.2188  0.7301 -0.3933
   87MOL   C20921021   2.846   5.739   4.384  0.0137  0.0449 -0.3082
   87MOL   H21021022   2.886   5.722   4.106  1.3469  0.3582  1.7536
   87MOL   H21121023   2.998   5.611   4.025  1.7318 -1.1137  2.2976
   87MOL   H21221024   2.892   5.513   4.287 -1.0645  0.3277 -0.7472
   87MOL   H21321025   3.028   5.782   4.282  1.5131  1.0193  1.1943
   87MOL   H21421026   3.039   5.668   4.423  0.4908  0.3907 -0.6547
   87MOL   H21521027   2.786   5.764   4.296  2.8816 -0.3687 -2.4584
   87MOL   H21621028   2.792   5.661   4.436 -2.7870  0.9586 -1.7092
   87MOL   H21721029   2.850   5.817   4.460 -1.1841 -0.9773  0.8322
   87MOL   C21821030   3.107   5.504   4.230  0.2767 -0.1896  0.0159
   87MOL   C21921031   3.128   5.396   4.337 -0.5617 -0.1075 -0.0419
   87MOL   C22021032   3.281   5.381   4.349  0.0674  0.7266 -0.0847
   87MOL   C22121033   3.344   5.464   4.454 -0.1233  0.8296 -0.3328
   87MOL   H22221034   3.191   5.574   4.219  0.2059 -0.4715 -2.7728
   87MOL   H22321035   3.114   5.438   4.144 -0.8838 -2.4874  1.6592
   87MOL   H22421036   3.096   5.448   4.427  0.7307  1.7365 -0.6250
   87MOL   H22521037   3.340   5.396   4.258  0.3774  2.6908  0.4160
   87MOL   H22621038   3.301   5.280   4.384  1.0255  0.9178 -0.0428
   87MOL   H22721039   3.322   5.569   4.435  3.4323  1.6265 -0.4821
   87MOL   H22821040   3.307   5.437   4.552 -0.4912  1.0940 -0.3989
   87MOL   H22921041   3.453   5.455   4.460 -0.1906  0.8689  1.0461
   87MOL   C23021042   3.051   5.265   4.298 -0.2566  0.1670  0.0435
   87MOL   C23121043   3.067   5.139   4.387  0.7712  0.3267  0.5366
   87MOL   C23221044   2.989   5.013   4.333  0.4836 -0.0898  0.1190
   87MOL   C23321045   2.979   4.897   4.433 -0.3385  0.3644 -0.3383
   87MOL   H23421046   3.084   5.233   4.199  0.6631 -0.7307  0.6379
   87MOL   H23521047   2.944   5.284   4.291 -0.2931  0.2251  0.7939
   87MOL   H23621048   3.172   5.110   4.392  0.6503 -0.1884  0.1519
   87MOL   H23721049   3.030   4.983   4.237 -2.0414 -1.1555 -0.6749
   87MOL   H23821050   2.882   5.030   4.322  0.7901  2.1488  0.2483
   87MOL   H23921051   3.063   4.828   4.437  0.0770  0.8083 -1.3187
   87MOL   H24021052   2.972   4.937   4.535 -2.7591 -0.1301 -0.2775
   87MOL   H24121053   2.888   4.841   4.411  0.1121  0.0449 -1.3913
   87MOL   H24221054   3.026   5.172   4.482 -1.6425 -1.8550  0.3062
   88MOL     C121055   6.038   5.790   3.069 -0.1509  0.0694 -0.3014
   88MOL     C221056   5.988   5.935   3.064 -0.6150 -0.2107 -0.2024
   88MOL     C321057   5.841   5.932   3.086 -0.7997 -0.4726 -0.3581
   88MOL     C421058   5.768   6.060   3.110 -0.0878 -0.1164 -0.0616
   88MOL     H521059   5.995   5.735   2.986 -1.6197 -0.6074  0.8993
   88MOL     H621060   6.147   5.785   3.071 -0.1101  0.9164  0.1777
   88MOL     H721061   6.036   5.988   3.146  0.6622 -1.0719 -0.3672
   88MOL     H821062   5.832   5.877   3.179  1.0299  0.4873  0.4073
   88MOL     H921063   5.779   5.877   3.015 -0.4714 -0.8603 -0.3469
   88MOL    H1021064   5.763   6.120   3.019  1.3210 -0.5162 -0.4202
   88MOL    H1121065   5.664   6.053   3.142 -0.7539  3.0557 -1.3802
   88MOL    H1221066   5.825   6.126   3.177  0.5137  0.5058 -1.1711
   88MOL    H1321067   6.004   5.735   3.157  0.1781 -1.4112 -1.0959
   88MOL    C1421068   6.026   6.004   2.929 -0.3506 -0.0565  0.5202
   88MOL    C1521069   6.180   6.006   2.887 -0.3463  0.2468 -0.6004
   88MOL    C1621070   6.269   6.077   2.991 -0.7774 -0.0775  0.0966
   88MOL    C1721071   6.215   6.219   3.045 -0.5109  0.2036  0.3024
   88MOL    H1821072   5.987   6.106   2.927  0.4987  0.2741  0.0826
   88MOL    H1921073   5.968   5.953   2.852  0.3327 -1.8328  1.1540
   88MOL    H2021074   6.223   5.906   2.877  2.8637  1.3095  1.6168
   88MOL    H2121075   6.366   6.091   2.943  0.0165  0.0738  1.6993
   88MOL    H2221076   6.282   5.997   3.065 -2.9702  0.1916  0.7913
   88MOL    H2321077   6.279   6.260   3.124  0.3285  0.0817 -0.3072
   88MOL    H2421078   6.218   6.285   2.959 -0.9213  0.5392  0.5496
   88MOL    H2521079   6.112   6.223   3.080 -1.0087 -0.8120 -1.0407
   88MOL    C2621080   6.195   6.061   2.741 -0.1983 -0.6723 -0.6370
   88MOL    C2721081   6.328   6.055   2.665  0.5455  0.0521 -0.9724
   88MOL    C2821082   6.307   6.124   2.528 -0.8834  0.3660  0.1143
   88MOL    C2921083   6.221   6.047   2.427  0.3178 -0.1709 -0.2144
   88MOL    H3021084   6.157   6.163   2.738  1.3322 -0.0602  0.0842
   88MOL    H3121085   6.125   6.002   2.682 -0.0206  0.2201 -1.7596
   88MOL    H3221086   6.401   6.114   2.719 -0.3319  0.3337 -0.0850
   88MOL    H3321087   6.405   6.159   2.494 -0.5075 -1.8763 -1.1686
   88MOL    H3421088   6.252   6.217   2.545 -0.1619  1.0432 -1.1775
   88MOL    H3521089   6.121   6.025   2.463  0.5960  1.4237  1.6049
   88MOL    H3621090   6.191   6.103   2.338 -0.2354 -0.0403  0.0488
   88MOL    H3721091   6.270   5.956   2.392 -0.0811 -0.7388  0.6914
   88MOL    C3821092   6.401   5.920   2.650 -0.0577 -0.2227 -0.1229
   88MOL    C3921093   6.549   5.928   2.608  0.3714 -0.1861  0.1560
   88MOL    C4021094   6.580   5.905   2.459  0.3006 -0.3265  0.2868
   88MOL    C4121095   6.555   5.765   2.404  0.0738  0.3119  0.3838
   88MOL    H4221096   6.360   5.845   2.582  0.6931  0.0482 -0.8876
   88MOL    H4321097   6.401   5.858   2.740 -2.3806 -1.7943 -1.1390
   88MOL    H4421098   6.570   6.034   2.624 -1.7684  0.3676 -0.5207
   88MOL    H4521099   6.686   5.933   2.454  0.3176 -0.6521 -1.8179
   88MOL    H4621100   6.530   5.966   2.384 -0.2620 -0.9728  0.1274
   88MOL    H4721101   6.566   5.767   2.296 -1.4266  2.6250  0.2362
   88MOL    H4821102   6.617   5.681   2.437 -0.4645 -1.1654 -2.1744
   88MOL    H4921103   6.450   5.736   2.412  0.0884 -0.4752 -1.9850
   88MOL    C5021104   6.644   5.842   2.699 -0.2906  0.4141 -0.0334
   88MOL    C5121105   6.660   5.900   2.843 -0.0952 -0.2997  0.0006
   88MOL    C5221106   6.754   6.025   2.849 -0.1645 -0.1357 -0.1459
   88MOL    C5321107   6.900   5.998   2.817 -0.1848  0.4341  0.4514
   88MOL    H5421108   6.742   5.836   2.652  0.6348 -0.1217  1.9303
   88MOL    H5521109   6.602   5.742   2.692  0.2438  0.2778 -1.5754
   88MOL    H5621110   6.561   5.931   2.879  0.3302  0.1719  0.7937
   88MOL    H5721111   6.747   6.082   2.942  0.1321 -0.4577  0.0764
   88MOL    H5821112   6.714   6.100   2.780  2.1558  0.4018 -0.9685
   88MOL    H5921113   6.956   6.091   2.832 -0.2053  0.4968  0.1553
   88MOL    H6021114   6.942   5.919   2.879 -2.0937 -1.9117 -1.1501
   88MOL    H6121115   6.917   5.971   2.713 -3.0034  0.7893 -0.1538
   88MOL    C6221116   6.707   5.792   2.943 -0.6321  0.0976  0.0484
   88MOL    C6321117   6.622   5.763   3.070  0.2524 -0.4360  0.4704
   88MOL    C6421118   6.478   5.701   3.043 -0.5960 -0.2931 -0.2307
   88MOL    C6521119   6.480   5.562   2.980 -0.2417 -0.0274 -0.3614
   88MOL    H6621120   6.807   5.799   2.986 -0.4343 -1.1593 -0.2036
   88MOL    H6721121   6.713   5.697   2.891  0.1252 -0.5926  1.3557
   88MOL    H6821122   6.688   5.693   3.121 -0.1497  1.0376  3.1425
   88MOL    H6921123   6.422   5.763   2.973 -1.5837 -2.2989 -1.2537
   88MOL    H7021124   6.413   5.687   3.129 -2.0075  2.6946 -0.7294
   88MOL    H7121125   6.386   5.510   2.968 -1.2569  1.8421 -0.8032
   88MOL    H7221126   6.519   5.575   2.879 -0.9669 -1.1075 -0.7897
   88MOL    H7321127   6.549   5.498   3.034 -0.1634  0.2595 -0.1210
   88MOL    C7421128   6.611   5.893   3.161  0.5493  0.1892  0.4175
   88MOL    C7521129   6.575   5.864   3.312  0.8096 -0.0907  0.0289
   88MOL    C7621130   6.517   5.992   3.381 -0.0641 -0.4993 -0.2027
   88MOL    C7721131   6.606   6.117   3.393 -0.2484  0.3967  0.1800
   88MOL    H7821132   6.537   5.962   3.121 -0.1562 -1.2193 -0.7390
   88MOL    H7921133   6.701   5.951   3.141  0.3352 -0.0701 -1.3576
   88MOL    H8021134   6.496   5.789   3.315  1.3107 -0.6111  0.0477
   88MOL    H8121135   6.466   5.979   3.476  0.1984  0.3691  0.0580
   88MOL    H8221136   6.434   6.026   3.319 -0.7724  1.0580  1.5772
   88MOL    H8321137   6.681   6.104   3.472  0.3635  0.2920 -0.4189
   88MOL    H8421138   6.674   6.134   3.310 -0.3546 -0.9558 -0.2016
   88MOL    H8521139   6.550   6.209   3.404 -0.5989  0.2197 -0.1362
   88MOL    C8621140   6.698   5.810   3.392 -0.0972 -0.0634  0.4768
   88MOL    C8721141   6.676   5.786   3.544  1.0550 -0.2904 -0.2213
   88MOL    C8821142   6.820   5.760   3.607  0.6769  0.2547  0.2501
   88MOL    C8921143   6.905   5.880   3.612  0.0427  0.0416 -0.6151
   88MOL    H9021144   6.779   5.879   3.368  0.1588 -1.0005 -1.4115
   88MOL    H9121145   6.731   5.719   3.343  0.2128 -0.0930  0.7416
   88MOL    H9221146   6.620   5.864   3.596 -3.2740 -0.1810 -4.7333
   88MOL    H9321147   6.866   5.691   3.536 -0.1382  0.3781 -0.4115
   88MOL    H9421148   6.807   5.724   3.709 -2.0409  3.1314  0.9839
   88MOL    H9521149   6.923   5.920   3.513 -0.5332  2.2620  0.1361
   88MOL    H9621150   6.863   5.967   3.664 -0.0980  0.2633 -1.0981
   88MOL    H9721151   6.998   5.846   3.657  0.3459  0.8952 -0.5871
   88MOL    C9821152   6.581   5.667   3.571 -0.0967 -0.0455  0.4508
   88MOL    C9921153   6.433   5.702   3.602 -0.0671 -0.5260 -0.1254
   88MOL   C10021154   6.416   5.761   3.742  0.4681  0.4428  0.4797
   88MOL   C10121155   6.299   5.858   3.760 -0.7844  0.2363  0.2084
   88MOL   H10221156   6.610   5.595   3.648 -2.0680  0.4928  1.7339
   88MOL   H10321157   6.590   5.611   3.478  2.6361  1.1279 -0.0499
   88MOL   H10421158   6.402   5.774   3.526  0.0159 -0.1919  0.1560
   88MOL   H10521159   6.499   5.827   3.767 -1.1417  1.3693  3.5068
   88MOL   H10621160   6.422   5.685   3.819 -1.8235  1.7809  2.0111
   88MOL   H10721161   6.294   5.907   3.857  2.2234 -0.7725  0.9118
   88MOL   H10821162   6.298   5.947   3.696  2.3259 -0.7055 -1.2617
   88MOL   H10921163   6.205   5.802   3.759 -0.8853  0.3931 -1.8955
   88MOL   C11021164   6.348   5.574   3.599 -0.0894  0.1943 -0.1440
   88MOL   C11121165   6.308   5.545   3.451  0.0238 -0.1745 -0.2905
   88MOL   C11221166   6.204   5.650   3.395  0.6515  0.0096 -0.2087
   88MOL   C11321167   6.069   5.652   3.463 -0.2475 -0.2115 -0.3734
   88MOL   H11421168   6.250   5.584   3.645 -0.1771 -2.3886  0.2756
   88MOL   H11521169   6.400   5.490   3.644  2.0670  1.3562 -0.3668
   88MOL   H11621170   6.389   5.548   3.378  1.1592 -0.3322  0.9432
   88MOL   H11721171   6.182   5.622   3.292  0.1837  1.3674 -0.4759
   88MOL   H11821172   6.246   5.750   3.388 -0.0384  0.3560  0.4928
   88MOL   H11921173   6.074   5.659   3.571 -0.2965  1.5493 -0.4764
   88MOL   H12021174   6.005   5.735   3.434 -2.0246 -0.3624  2.8641
   88MOL   H12121175   6.015   5.560   3.442 -2.1280  0.5985  0.7956
   88MOL   C12221176   6.253   5.397   3.435 -0.2819 -0.3317  0.3110
   88MOL   C12321177   6.347   5.279   3.391 -0.0262 -0.0057 -0.0189
   88MOL   C12421178   6.440   5.256   3.502  0.5301 -1.1112  0.3353
   88MOL   C12521179   6.530   5.131   3.480  0.3293 -0.7879  0.3784
   88MOL   H12621180   6.169   5.400   3.365 -0.8410 -1.5953  0.9147
   88MOL   H12721181   6.209   5.361   3.528 -0.3270 -2.0365 -0.3497
   88MOL   H12821182   6.277   5.195   3.391 -0.2527  0.1773 -0.9228
   88MOL   H12921183   6.377   5.235   3.589 -0.3069 -1.3164 -0.3240
   88MOL   H13021184   6.510   5.337   3.523 -0.7454  0.0440  0.2130
   88MOL   H13121185   6.620   5.148   3.421  0.3640 -2.4659 -0.0958
   88MOL   H13221186   6.555   5.094   3.579  0.2881 -0.7098  0.4173
   88MOL   H13321187   6.473   5.050   3.434 -2.5322  1.3836 -0.0667
   88MOL   C13421188   6.399   5.297   3.244 -0.2760  0.2042 -0.6318
   88MOL   C13521189   6.360   5.176   3.152 -0.3615  0.1436  0.1311
   88MOL   C13621190   6.449   5.185   3.026  0.2702 -0.3922 -0.6608
   88MOL   C13721191   6.593   5.149   3.065 -0.2967 -1.2304  0.0839
   88MOL   H13821192   6.506   5.310   3.260 -0.3626  1.3990 -1.0020
   88MOL   H13921193   6.361   5.383   3.190 -0.5864  0.1612 -0.4853
   88MOL   H14021194   6.379   5.085   3.209 -2.2439 -0.9407 -0.9219
   88MOL   H14121195   6.419   5.278   2.979  0.6561 -0.4370 -0.9990
   88MOL   H14221196   6.424   5.105   2.956 -0.5068  0.3707 -1.2490
   88MOL   H14321197   6.662   5.107   2.991  0.5966 -0.0155  0.2057
   88MOL   H14421198   6.642   5.242   3.096  2.0002 -2.9018  1.6060
   88MOL   H14521199   6.594   5.088   3.155  0.2018  0.2131  1.0725
   88MOL   C14621200   6.208   5.176   3.120  0.0449 -0.5530  0.8937
   88MOL   C14721201   6.152   5.074   3.021 -0.0454 -0.5071  0.1263
   88MOL   C14821202   6.008   5.107   2.983 -0.0575 -0.3425  0.2657
   88MOL   C14921203   5.896   5.089   3.094 -0.6670 -0.2719 -0.6290
   88MOL   H15021204   6.177   5.274   3.083  3.2058 -0.1490 -0.8501
   88MOL   H15121205   6.152   5.162   3.213  0.2930 -0.1505  1.1054
   88MOL   H15221206   6.203   5.084   2.925 -2.2510  1.6550 -0.8754
   88MOL   H15321207   5.975   5.041   2.903 -1.0515 -0.8408  1.0778
   88MOL   H15421208   6.010   5.209   2.945 -1.0910  0.3198  1.9707
   88MOL   H15521209   5.807   5.145   3.063  0.7408  1.9517 -0.7472
   88MOL   H15621210   5.866   4.985   3.105 -2.5569  0.1276 -1.7752
   88MOL   H15721211   5.935   5.134   3.185  1.6748 -2.8659 -0.2835
   88MOL   C15821212   6.168   4.930   3.078 -0.6324 -0.8375 -0.7863
   88MOL   C15921213   6.290   4.839   3.027  0.4261 -0.4398  0.0267
   88MOL   C16021214   6.289   4.831   2.871 -0.7068 -0.1297  0.4619
   88MOL   C16121215   6.405   4.752   2.807 -0.0755 -0.1892  0.0248
   88MOL   H16221216   6.073   4.877   3.070 -1.3065 -0.0107  1.4587
   88MOL   H16321217   6.169   4.951   3.184  1.4095  1.7077 -1.2611
   88MOL   H16421218   6.383   4.884   3.062 -0.2238 -0.3510  1.6917
   88MOL   H16521219   6.290   4.929   2.824 -0.4097 -1.4247 -2.3266
   88MOL   H16621220   6.193   4.795   2.836 -0.0802 -0.1418 -1.2736
   88MOL   H16721221   6.392   4.746   2.699 -2.2050  1.8773  0.1114
   88MOL   H16821222   6.501   4.799   2.828 -0.1236  0.0675 -0.3276
   88MOL   H16921223   6.405   4.646   2.828 -0.6554 -0.2487 -0.2735
   88MOL   C17021224   6.265   4.700   3.098  0.1714 -0.2939  0.0980
   88MOL   C17121225   6.400   4.626   3.132 -0.4323 -0.0158 -0.2742
   88MOL   C17221226   6.371   4.469   3.137  0.3603  0.6168 -0.4397
   88MOL   C17321227   6.301   4.400   3.016 -0.6898 -0.2138 -0.4135
   88MOL   H17421228   6.223   4.635   3.021  3.0776 -0.3211 -1.5441
   88MOL   H17521229   6.199   4.695   3.185 -0.0444  0.2756 -0.0333
   88MOL   H17621230   6.463   4.648   3.047  1.5951  3.2498  1.9548
   88MOL   H17721231   6.331   4.431   3.231 -0.4989  1.5392 -0.4226
   88MOL   H17821232   6.468   4.419   3.136  0.1067  0.1130 -0.0133
   88MOL   H17921233   6.278   4.295   3.033 -1.9658  0.3113  1.2261
   88MOL   H18021234   6.198   4.434   3.010 -0.2147  1.1500 -1.0602
   88MOL   H18121235   6.350   4.404   2.918 -0.4984  0.1321 -0.3022
   88MOL   C18221236   6.462   4.685   3.262 -0.5984 -0.2005 -0.7796
   88MOL   C18321237   6.621   4.666   3.276  0.5640  0.0708  0.8266
   88MOL   C18421238   6.665   4.683   3.426  0.1198  0.5316 -0.0377
   88MOL   C18521239   6.637   4.822   3.488  0.2277 -0.4549 -0.6120
   88MOL   H18621240   6.414   4.644   3.351  2.3720  0.9751  1.4641
   88MOL   H18721241   6.438   4.790   3.271 -0.8272 -0.3992  1.2884
   88MOL   H18821242   6.643   4.562   3.252 -4.5010 -1.1339  0.7579
   88MOL   H18921243   6.769   4.653   3.440 -0.3104 -0.0539  2.2074
   88MOL   H19021244   6.613   4.607   3.484  0.7739  0.8562  0.9997
   88MOL   H19121245   6.715   4.835   3.563 -1.3983  2.0875  0.7086
   88MOL   H19221246   6.650   4.904   3.419 -2.2290 -0.3691 -1.0313
   88MOL   H19321247   6.537   4.830   3.532  0.7099  1.3259  0.1769
   88MOL   C19421248   6.698   4.750   3.169 -0.0944 -0.3729 -0.3352
   88MOL   C19521249   6.859   4.753   3.180  0.4523  0.7771 -0.4852
   88MOL   C19621250   6.920   4.851   3.076 -0.2173 -0.1372  0.3044
   88MOL   C19721251   6.895   4.812   2.928  0.0594  0.2313 -0.6230
   88MOL   H19821252   6.656   4.850   3.159  0.4291 -0.2580 -1.4608
   88MOL   H19921253   6.674   4.713   3.069  1.1174  2.3320 -1.6665
   88MOL   H20021254   6.896   4.785   3.277  1.0037 -0.9856 -0.0887
   88MOL   H20121255   7.027   4.857   3.096  0.4156  1.3327 -3.1478
   88MOL   H20221256   6.888   4.951   3.105 -0.9434 -0.2411 -0.1225
   88MOL   H20321257   6.789   4.811   2.905  0.0062 -1.2802 -0.3665
   88MOL   H20421258   6.948   4.883   2.865  3.2356 -0.5006  1.1115
   88MOL   H20521259   6.941   4.717   2.899  1.6527  1.2979 -1.6561
   88MOL   C20621260   6.913   4.609   3.151 -0.0037  0.2156 -0.0866
   88MOL   C20721261   7.066   4.588   3.166 -0.0193  0.2802 -0.7950
   88MOL   C20821262   7.100   4.449   3.116  0.2612  0.5448  0.1336
   88MOL   C20921263   7.089   4.423   2.965 -0.5417  0.6458 -0.5525
   88MOL   H21021264   6.875   4.575   3.054  2.4298  1.1350 -1.3910
   88MOL   H21121265   6.879   4.532   3.221  0.6569  0.9506  1.0475
   88MOL   H21221266   7.122   4.655   3.101  0.3841  0.3841 -0.3461
   88MOL   H21321267   7.038   4.386   3.179  0.9899 -1.9415 -1.5462
   88MOL   H21421268   7.201   4.422   3.148  0.1677 -2.0747 -1.6478
   88MOL   H21521269   6.987   4.399   2.935 -0.3220 -2.8202  1.1888
   88MOL   H21621270   7.135   4.512   2.922  0.1205  1.1936  1.2265
   88MOL   H21721271   7.147   4.332   2.948  0.0023  1.1271 -1.2586
   88MOL   C21821272   7.111   4.601   3.317 -0.1267  0.2509 -0.4383
   88MOL   C21921273   7.252   4.658   3.327  0.5588 -0.3163 -0.3700
   88MOL   C22021274   7.320   4.629   3.462 -1.4057 -0.8408  0.2876
   88MOL   C22121275   7.407   4.505   3.445 -0.0321 -0.6234  0.1577
   88MOL   H22221276   7.109   4.501   3.362 -0.5026  0.5331  0.1752
   88MOL   H22321277   7.047   4.657   3.384  0.4366  1.7375 -1.1304
   88MOL   H22421278   7.297   4.603   3.244  0.3059 -0.6889 -0.2624
   88MOL   H22521279   7.263   4.614   3.553 -2.1773 -0.9265 -0.2100
   88MOL   H22621280   7.380   4.712   3.499 -1.4078 -1.6173  2.0904
   88MOL   H22721281   7.348   4.414   3.432  0.0748 -0.4582 -1.5237
   88MOL   H22821282   7.479   4.514   3.364 -1.0725 -1.1089 -0.8297
   88MOL   H22921283   7.462   4.495   3.539  0.0166 -1.2977  0.0620
   88MOL   C23021284   7.263   4.805   3.287  0.6201  0.5706  0.1816
   88MOL   C23121285   7.340   4.841   3.156  0.2946 -0.0863 -0.4813
   88MOL   C23221286   7.496   4.818   3.167 -0.5710 -0.8259 -0.7491
   88MOL   C23321287   7.581   4.865   3.047 -0.0259  0.9744  0.1897
   88MOL   H23421288   7.293   4.874   3.366 -0.4058 -0.7520  1.7727
   88MOL   H23521289   7.163   4.846   3.281 -1.1194 -3.3840  0.2729
   88MOL   H23621290   7.298   4.792   3.068  0.1177 -0.3471 -0.2514
   88MOL   H23721291   7.506   4.711   3.183 -0.9659 -1.0071 -1.7276
   88MOL   H23821292   7.531   4.867   3.258  1.0584  0.4064 -2.0018
   88MOL   H23921293   7.592   4.974   3.044 -0.4932  0.9899 -2.6707
   88MOL   H24021294   7.679   4.817   3.045 -0.9644 -0.9075 -1.6955
   88MOL   H24121295   7.535   4.845   2.950 -0.4425  2.0121  0.1648
   88MOL   H24221296   7.324   4.948   3.144 -0.6358 -0.2443 -0.6882
   89MOL     C121297   5.424   4.768   6.097 -0.0543  0.6831 -0.2546
   89MOL     C221298   5.444   4.922   6.111 -0.2349  0.4091 -0.9063
   89MOL     C321299   5.473   4.994   5.975  0.6801 -0.0781 -0.4219
   89MOL     C421300   5.346   4.986   5.887 -0.3217 -0.3283  0.4239
   89MOL     H521301   5.351   4.745   6.019  1.8579 -0.3748 -1.7935
   89MOL     H621302   5.518   4.721   6.069  0.6559  1.6306  0.5183
   89MOL     H721303   5.342   4.952   6.137  0.6522  1.4481  1.4973
   89MOL     H821304   5.552   4.941   5.923  0.4647  0.2922 -1.1215
   89MOL     H921305   5.498   5.100   5.980 -1.6569  0.4550  0.8015
   89MOL    H1021306   5.333   4.891   5.834  0.2489  0.8742 -1.9604
   89MOL    H1121307   5.247   5.006   5.928 -0.4470 -2.7049  1.3701
   89MOL    H1221308   5.341   5.058   5.805 -0.8293 -1.3528 -0.4663
   89MOL    H1321309   5.398   4.716   6.189 -1.7720 -2.1608 -2.2629
   89MOL    C1421310   5.549   4.962   6.215 -0.3872 -0.0634  0.3520
   89MOL    C1521311   5.485   5.025   6.344 -0.1893  0.2662  0.4707
   89MOL    C1621312   5.478   5.177   6.329  0.2500  0.0020 -0.0422
   89MOL    C1721313   5.349   5.218   6.253  0.7240 -0.1948  0.3211
   89MOL    H1821314   5.621   5.027   6.165  0.5334 -0.5784  0.9986
   89MOL    H1921315   5.605   4.870   6.231 -0.7705 -1.0627 -3.5700
   89MOL    H2021316   5.383   4.986   6.352 -0.0320 -0.5285 -1.0389
   89MOL    H2121317   5.569   5.214   6.283 -0.3063  1.6293  0.1392
   89MOL    H2221318   5.460   5.215   6.429 -2.1856  1.0179 -0.8246
   89MOL    H2321319   5.266   5.166   6.302 -0.9600  1.3133 -0.8803
   89MOL    H2421320   5.329   5.325   6.259  1.4433  0.2637 -4.0192
   89MOL    H2521321   5.355   5.193   6.147 -2.5577  0.2405 -0.0110
   89MOL    C2621322   5.576   4.986   6.465  0.4024  0.3038  0.0887
   89MOL    C2721323   5.518   4.859   6.543 -0.2649 -0.4495 -0.8483
   89MOL    C2821324   5.403   4.895   6.639 -0.0968  0.0090 -0.3900
   89MOL    C2921325   5.430   5.003   6.744 -0.5358  0.4341  0.7139
   89MOL    H3021326   5.592   5.072   6.530 -2.3300  0.9302 -0.0088
   89MOL    H3121327   5.674   4.953   6.429  0.1075 -0.6386  0.1307
   89MOL    H3221328   5.472   4.796   6.467  0.0979 -1.8956  0.1168
   89MOL    H3321329   5.374   4.807   6.697  1.8691 -0.2864  0.1711
   89MOL    H3421330   5.313   4.928   6.588 -0.9007 -0.0118  0.9900
   89MOL    H3521331   5.492   4.955   6.820  0.4985 -0.6116 -0.7770
   89MOL    H3621332   5.480   5.092   6.705  0.5707  1.4681  4.3161
   89MOL    H3721333   5.335   5.026   6.792  0.4070 -2.4407  4.1985
   89MOL    C3821334   5.631   4.769   6.610  0.5134  0.0124 -0.2272
   89MOL    C3921335   5.606   4.615   6.605  0.3031 -0.3906 -0.4016
   89MOL    C4021336   5.699   4.545   6.708  0.0746 -0.7568  0.2810
   89MOL    C4121337   5.658   4.571   6.857  0.0209  0.2348 -0.2693
   89MOL    H4221338   5.658   4.804   6.710  2.9884 -1.3545 -0.3838
   89MOL    H4321339   5.720   4.796   6.554  0.1371 -0.7645 -1.2015
   89MOL    H4421340   5.505   4.595   6.641 -0.2571  1.0973 -1.1132
   89MOL    H4521341   5.801   4.578   6.690  0.3481 -0.0681  2.8375
   89MOL    H4621342   5.705   4.437   6.691  0.0165 -0.4096 -1.9708
   89MOL    H4721343   5.692   4.672   6.879  0.0897 -0.3503  2.5121
   89MOL    H4821344   5.554   4.549   6.879 -0.4323  2.2484 -0.3429
   89MOL    H4921345   5.724   4.512   6.921  0.9110  1.3023 -0.1869
   89MOL    C5021346   5.620   4.556   6.463  0.0039 -0.2747 -0.1675
   89MOL    C5121347   5.552   4.420   6.441  0.1106  0.3170 -0.6388
   89MOL    C5221348   5.618   4.334   6.340  0.4485  0.2359  0.4477
   89MOL    C5321349   5.606   4.377   6.193 -0.0817  0.5936 -0.4229
   89MOL    H5421350   5.728   4.559   6.444 -0.2525 -1.0654 -1.8699
   89MOL    H5521351   5.580   4.614   6.380  0.2032  1.2932  0.8264
   89MOL    H5621352   5.585   4.370   6.532 -0.4220 -1.2603 -1.2858
   89MOL    H5721353   5.591   4.228   6.347 -2.6628  0.8272 -1.7412
   89MOL    H5821354   5.726   4.322   6.343  0.4169 -1.0448 -2.0768
   89MOL    H5921355   5.505   4.378   6.151 -0.4100  1.3125  0.3615
   89MOL    H6021356   5.651   4.471   6.162  0.2430  0.6125  0.1001
   89MOL    H6121357   5.654   4.297   6.137 -1.0264  1.0819 -1.9732
   89MOL    C6221358   5.395   4.424   6.438 -0.1767  0.4176  0.9255
   89MOL    C6321359   5.311   4.293   6.421  0.1869 -0.5117  0.3239
   89MOL    C6421360   5.163   4.323   6.389  0.1427 -0.4081  0.4782
   89MOL    C6521361   5.136   4.401   6.260 -0.0055  0.7039 -0.2493
   89MOL    H6621362   5.362   4.486   6.355 -2.6922 -0.8636  0.8983
   89MOL    H6721363   5.363   4.488   6.521  1.3418 -0.2010  2.0168
   89MOL    H6821364   5.372   4.246   6.344  0.6094 -0.1509  0.4394
   89MOL    H6921365   5.114   4.359   6.479  0.3023 -1.2090  0.8902
   89MOL    H7021366   5.116   4.225   6.387 -1.1156  0.2085 -0.5583
   89MOL    H7121367   5.029   4.394   6.242 -0.3598 -0.1405  1.9677
   89MOL    H7221368   5.176   4.503   6.263  0.6077  0.5228 -1.8331
   89MOL    H7321369   5.185   4.338   6.185  0.5143  0.4007  0.3324
   89MOL    C7421370   5.326   4.201   6.548  0.3482  0.5251  0.1721
   89MOL    C7521371   5.368   4.049   6.523 -0.0366 -0.7226  0.3366
   89MOL    C7621372   5.273   3.976   6.420 -0.2071  0.9962  0.3680
   89MOL    C7721373   5.134   3.939   6.477 -0.5070 -0.6144  0.2086
   89MOL    H7821374   5.226   4.193   6.590 -1.5449  2.1627 -3.7264
   89MOL    H7921375   5.383   4.240   6.632  2.7988 -2.2811 -0.0817
   89MOL    H8021376   5.457   4.053   6.460 -0.4092  2.7608 -0.0395
   89MOL    H8121377   5.324   3.889   6.379 -1.7526 -0.4181  1.3551
   89MOL    H8221378   5.258   4.043   6.336 -1.2373  1.9633  1.3081
   89MOL    H8321379   5.081   4.028   6.509 -1.1241 -0.4218 -1.3081
   89MOL    H8421380   5.071   3.894   6.399 -0.9530  2.0414 -1.0036
   89MOL    H8521381   5.146   3.874   6.564 -1.2393  0.6310  1.2395
   89MOL    C8621382   5.400   3.966   6.648 -0.5128  0.1158 -0.2370
   89MOL    C8721383   5.535   3.993   6.710  0.4729  0.4303 -0.8676
   89MOL    C8821384   5.653   3.915   6.644  0.2611 -0.3053 -0.2822
   89MOL    C8921385   5.788   3.981   6.641  0.1078  0.8984 -0.0178
   89MOL    H9021386   5.399   3.863   6.614 -0.1210  0.2070 -0.5205
   89MOL    H9121387   5.321   3.975   6.723 -1.2981  0.2548 -1.0686
   89MOL    H9221388   5.552   4.101   6.706  2.4822  0.2320  1.1451
   89MOL    H9321389   5.626   3.898   6.540 -1.3949  1.7318 -0.2115
   89MOL    H9421390   5.668   3.812   6.678  1.2413  0.0204  0.2783
   89MOL    H9521391   5.781   4.082   6.600  2.7932  2.2521  2.6546
   89MOL    H9621392   5.830   3.980   6.741  0.6436  0.2433 -0.2485
   89MOL    H9721393   5.861   3.918   6.590  0.2723  0.9705  0.1300
   89MOL    C9821394   5.536   3.965   6.865 -0.0047 -0.1900 -0.0407
   89MOL    C9921395   5.453   4.066   6.952  0.1606 -0.3458 -0.1859
   89MOL   C10021396   5.530   4.185   7.010 -0.0947 -1.0878 -0.1434
   89MOL   C10121397   5.443   4.312   7.019 -0.6116 -0.4066 -0.5983
   89MOL   H10221398   5.640   3.972   6.897  0.0225 -1.6238  0.2218
   89MOL   H10321399   5.501   3.864   6.882  0.7032 -0.7834 -1.9528
   89MOL   H10421400   5.371   4.101   6.890  1.2264  0.6072 -1.0825
   89MOL   H10521401   5.609   4.195   6.936  1.0099  0.2417  1.1940
   89MOL   H10621402   5.568   4.156   7.107 -0.8562  3.7268  1.7366
   89MOL   H10721403   5.425   4.358   6.922 -2.8030 -1.4212 -0.7060
   89MOL   H10821404   5.344   4.302   7.064 -0.0380 -0.9773  0.5605
   89MOL   H10921405   5.496   4.385   7.081  0.3921 -2.6413  1.2438
   89MOL   C11021406   5.388   3.986   7.070 -0.0168  0.4780  0.0290
   89MOL   C11121407   5.277   3.888   7.041  0.5483  0.1025  0.3149
   89MOL   C11221408   5.137   3.958   7.057 -0.1274  0.4638  0.1377
   89MOL   C11321409   5.021   3.878   6.989  0.9470  0.3266 -0.0182
   89MOL   H11421410   5.348   4.051   7.148  0.3071 -2.2643  2.6000
   89MOL   H11521411   5.475   3.938   7.116 -0.0858 -0.9001 -1.2291
   89MOL   H11621412   5.289   3.852   6.939 -1.3277  1.1323 -0.2923
   89MOL   H11721413   5.139   4.052   7.000 -0.3922  0.6147  0.3770
   89MOL   H11821414   5.123   3.985   7.161  0.7966  4.6043 -0.6898
   89MOL   H11921415   4.990   3.784   7.036 -0.8819 -0.0835 -1.9391
   89MOL   H12021416   4.930   3.935   6.974 -0.7674 -2.1974  0.3943
   89MOL   H12121417   5.045   3.855   6.885 -0.2285  2.0497 -0.6810
   89MOL   C12221418   5.287   3.773   7.146  0.0584 -0.3521 -0.0293
   89MOL   C12321419   5.383   3.654   7.115  0.2874 -0.8890 -0.4580
   89MOL   C12421420   5.326   3.561   7.008  0.4070  0.1906  0.1288
   89MOL   C12521421   5.418   3.441   6.970  0.4353  0.6122 -0.1687
   89MOL   H12621422   5.189   3.725   7.157 -1.3719  2.5520  0.4737
   89MOL   H12721423   5.313   3.827   7.237 -1.6458  0.8356 -0.2120
   89MOL   H12821424   5.484   3.686   7.089  0.9419 -0.9048  1.9403
   89MOL   H12921425   5.302   3.606   6.912  1.2797 -1.2354 -0.7886
   89MOL   H13021426   5.229   3.516   7.029  0.7778 -0.7898 -0.1913
   89MOL   H13121427   5.467   3.403   7.059  2.0421 -0.6546 -1.5498
   89MOL   H13221428   5.365   3.357   6.924  0.5419  0.3064  0.2620
   89MOL   H13321429   5.490   3.461   6.890 -0.1804  0.0325 -0.8810
   89MOL   C13421430   5.414   3.589   7.255  0.8233  0.2023 -0.2931
   89MOL   C13521431   5.309   3.489   7.313  0.0438  0.6485 -0.2573
   89MOL   C13621432   5.258   3.544   7.450  0.7184 -0.0373 -0.3049
   89MOL   C13721433   5.147   3.648   7.435  0.0079 -0.6052 -0.3227
   89MOL   H13821434   5.437   3.672   7.321  1.0454  1.1353 -1.5094
   89MOL   H13921435   5.510   3.537   7.254  0.3785 -0.6508  0.4787
   89MOL   H14021436   5.225   3.476   7.245 -0.3311  2.0591 -0.0792
   89MOL   H14121437   5.332   3.566   7.527 -0.3455 -0.3975  0.8371
   89MOL   H14221438   5.206   3.457   7.489 -0.0823 -0.0311 -1.3644
   89MOL   H14321439   5.076   3.618   7.358  0.4058 -1.5282 -0.3397
   89MOL   H14421440   5.083   3.655   7.523  0.5368  0.4854 -0.0147
   89MOL   H14521441   5.178   3.748   7.405  0.1009 -0.5759 -0.1264
   89MOL   C14621442   5.370   3.352   7.334 -0.7347 -1.0267  0.6571
   89MOL   C14721443   5.295   3.218   7.349 -0.2109  0.1450 -0.1177
   89MOL   C14821444   5.389   3.095   7.342  0.1656 -0.5734  0.5431
   89MOL   C14921445   5.518   3.116   7.416 -0.1574 -0.5008  0.2191
   89MOL   H15021446   5.445   3.372   7.410 -2.5517  1.6532  1.8113
   89MOL   H15121447   5.435   3.331   7.249  0.7246  2.2929  0.9119
   89MOL   H15221448   5.254   3.222   7.450 -0.3400 -0.5999 -0.1407
   89MOL   H15321449   5.414   3.079   7.237 -1.3738 -1.2558  0.2720
   89MOL   H15421450   5.334   3.012   7.385  0.5145 -0.7260  0.6951
   89MOL   H15521451   5.498   3.169   7.509 -1.4400 -0.5396 -0.0234
   89MOL   H15621452   5.556   3.018   7.444  0.7252 -0.9888 -2.5572
   89MOL   H15721453   5.595   3.171   7.361 -1.5430 -0.2254 -1.4698
   89MOL   C15821454   5.180   3.212   7.251  0.0404 -0.3774 -0.1178
   89MOL   C15921455   5.089   3.081   7.254 -0.6325 -0.0827  0.4580
   89MOL   C16021456   4.983   3.084   7.144 -0.1207 -0.4421  0.4211
   89MOL   C16121457   4.870   3.183   7.178 -0.8754  0.2101 -0.4938
   89MOL   H16221458   5.216   3.225   7.149 -0.1197  0.6373 -0.0472
   89MOL   H16321459   5.107   3.291   7.264 -1.1741 -1.2572 -1.4260
   89MOL   H16421460   5.152   2.997   7.224 -0.9815  0.1320 -0.9556
   89MOL   H16521461   4.944   2.989   7.107 -1.1649  0.8493 -1.9102
   89MOL   H16621462   5.025   3.131   7.055  0.1297 -1.7531 -0.1637
   89MOL   H16721463   4.807   3.209   7.092  0.9864  0.8640 -1.6854
   89MOL   H16821464   4.810   3.140   7.258 -0.0242 -0.8494 -0.4096
   89MOL   H16921465   4.909   3.277   7.217 -2.9477  2.0644 -2.6920
   89MOL   C17021466   5.029   3.048   7.397 -0.5233 -0.0729  0.4186
   89MOL   C17121467   4.964   2.908   7.411 -0.4803  0.1838  0.5732
   89MOL   C17221468   4.877   2.895   7.541 -0.4856 -0.4461  0.8785
   89MOL   C17321469   4.957   2.889   7.670 -0.3493  0.2187  0.8093
   89MOL   H17421470   4.967   3.131   7.430  2.2848  0.7888  3.8451
   89MOL   H17521471   5.111   3.049   7.469  0.1345 -0.8295 -0.3126
   89MOL   H17621472   4.890   2.918   7.332  1.2237 -0.2024 -1.1286
   89MOL   H17721473   4.802   2.815   7.540 -1.0345  0.0661 -0.2035
   89MOL   H17821474   4.824   2.989   7.550  1.0020  0.5303 -0.3755
   89MOL   H17921475   4.907   2.915   0.057 -0.6526 -0.4777  0.8429
   89MOL   H18021476   5.010   2.794   7.684 -0.0987  0.2051 -0.2039
   89MOL   H18121477   5.035   2.965   7.664 -0.5419  0.6263  3.1650
   89MOL   C18221478   5.064   2.795   7.394 -0.1503  0.1389  0.7465
   89MOL   C18321479   5.049   2.698   7.275  0.0012 -0.5211  0.5001
   89MOL   C18421480   4.914   2.634   7.268  0.6589  0.4475  0.3209
   89MOL   C18521481   4.888   2.537   7.385  0.1001 -0.4133  0.2229
   89MOL   H18621482   5.063   2.738   7.486 -2.4952 -1.1320 -0.0243
   89MOL   H18721483   5.165   2.836   7.395  0.0091 -0.2345  0.2268
   89MOL   H18821484   5.056   2.773   7.197  0.9030  0.5978  1.6350
   89MOL   H18921485   4.896   2.586   7.172  2.2815 -0.5870  0.5004
   89MOL   H19021486   4.835   2.709   7.266  0.9364  0.7712  1.3748
   89MOL   H19121487   4.867   2.586   7.480 -0.6646  0.5468 -0.4269
   89MOL   H19221488   4.804   2.472   7.357  0.2406  0.0623 -1.3176
   89MOL   H19321489   4.968   2.465   7.401 -1.0075 -1.8590 -0.6135
   89MOL   C19421490   5.166   2.602   7.250  0.4131 -0.8584  0.5758
   89MOL   C19521491   5.293   2.675   7.206 -0.2976 -0.2385  0.1770
   89MOL   C19621492   5.302   2.701   7.048  0.0022  0.3522 -0.6092
   89MOL   C19721493   5.390   2.821   7.020  0.1418 -0.0239  0.8532
   89MOL   H19821494   5.140   2.530   7.172 -1.5737  0.5606 -0.0970
   89MOL   H19921495   5.187   2.542   7.339 -0.2625 -4.7208 -1.7831
   89MOL   H20021496   5.304   2.772   7.254  2.3294  0.5396 -1.8375
   89MOL   H20121497   5.212   2.724   6.991 -0.4820 -0.2937 -0.1156
   89MOL   H20221498   5.342   2.611   7.001  0.3034 -0.4682  1.1873
   89MOL   H20321499   5.338   2.902   7.071 -1.2285  0.6950 -1.5963
   89MOL   H20421500   5.491   2.795   7.054  0.4673  0.2661  0.1219
   89MOL   H20521501   5.399   2.852   6.916  1.0912  0.3022  1.0269
   89MOL   C20621502   5.418   2.588   7.255 -0.0935 -0.2340  0.5219
   89MOL   C20721503   5.453   2.589   7.405  0.6722 -0.1565 -0.4729
   89MOL   C20821504   5.526   2.718   7.450 -0.2368  0.5022  0.1981
   89MOL   C20921505   5.654   2.748   7.368  0.1887 -0.3103 -0.0736
   89MOL   H21021506   5.505   2.617   7.196 -0.4977 -1.3066 -0.6207
   89MOL   H21121507   5.396   2.487   7.221 -2.9097  0.1604  1.0356
   89MOL   H21221508   5.364   2.582   7.467  2.2931  0.8608  2.0289
   89MOL   H21321509   5.559   2.713   7.554 -1.9048  0.2965  0.7190
   89MOL   H21421510   5.449   2.795   7.452 -1.9498 -1.1395 -1.2880
   89MOL   H21521511   5.699   2.835   7.417 -0.1094 -1.2186  1.8399
   89MOL   H21621512   5.730   2.670   7.370  0.7458  0.2394  0.7455
   89MOL   H21721513   5.620   2.778   7.269 -1.3129  0.2277  0.5908
   89MOL   C21821514   5.531   2.457   7.428 -0.2461  0.1224  0.4850
   89MOL   C21921515   5.440   2.333   7.453  0.2877  1.1724 -0.4712
   89MOL   C22021516   5.387   2.329   7.604  0.5850  0.6021  0.2847
   89MOL   C22121517   5.494   2.287   0.003 -0.5090  0.2952  0.1289
   89MOL   H22221518   5.595   2.473   7.514  1.6986 -1.3208 -0.6489
   89MOL   H22321519   5.601   2.434   7.348 -1.6141 -0.8504 -0.4734
   89MOL   H22421520   5.359   2.343   7.381  0.8854 -0.8952 -1.4741
   89MOL   H22521521   5.312   2.250   7.596  0.7151  0.2500  2.4087
   89MOL   H22621522   5.340   2.426   7.618  0.6792  0.3598  2.3637
   89MOL   H22721523   5.510   2.180   0.021 -0.1684  0.2140 -0.6335
   89MOL   H22821524   5.593   2.329   7.691 -0.2823 -0.8519 -1.4292
   89MOL   H22921525   5.466   2.322   0.102 -1.9527 -0.2862 -0.0459
   89MOL   C23021526   5.515   2.196   7.417 -0.0839  0.5860  0.5524
   89MOL   C23121527   5.439   2.067   7.449 -0.5087  0.2596 -0.1669
   89MOL   C23221528   5.495   1.941   7.383 -0.5564  0.2048  0.2566
   89MOL   C23321529   5.624   1.899   7.451  0.2914 -0.2883 -0.2658
   89MOL   H23421530   5.616   2.202   7.459  1.3304 -3.1298 -2.0698
   89MOL   H23521531   5.530   2.195   7.309  0.5894 -1.0375  0.6513
   89MOL   H23621532   5.428   2.054   7.557 -1.2844  1.1139 -0.1431
   89MOL   H23721533   5.513   1.957   7.276 -2.3977  0.9997  0.0514
   89MOL   H23821534   5.418   1.865   7.396  0.4543 -1.1048 -1.1348
   89MOL   H23921535   5.709   1.965   7.436 -0.7889  1.0599 -0.5057
   89MOL   H24021536   5.619   1.894   7.559  0.2159  0.4086 -0.2404
   89MOL   H24121537   5.656   1.800   7.417 -0.8252 -0.3142 -1.2804
   89MOL   H24221538   5.336   2.083   7.417 -1.1554  0.4404  1.9497
   90MOL     C121539   2.551   0.924   3.645 -0.5482  0.2219 -0.1114
   90MOL     C221540   2.500   0.796   3.715  0.3079 -0.1251 -0.7219
   90MOL     C321541   2.390   0.732   3.622  0.1648  0.1844  0.1301
   90MOL     C421542   2.448   0.644   3.513  0.2042  0.3453  0.1445
   90MOL     H521543   2.641   0.961   3.695 -1.7112  3.3329 -0.1858
   90MOL     H621544   2.576   0.902   3.541  1.2654  1.5033  0.0224
   90MOL     H721545   2.586   0.730   3.713  0.4993  0.1436 -1.4303
   90MOL     H821546   2.335   0.810   3.569  0.6716  0.1161 -0.5048
   90MOL     H921547   2.328   0.669   3.686  1.3950 -0.7392  0.4462
   90MOL    H1021548   2.406   0.643   3.413 -2.1982  1.2774  1.1153
   90MOL    H1121549   2.553   0.668   3.497 -0.5238  3.8379  0.1924
   90MOL    H1221550   2.447   0.540   3.546 -1.3504 -0.1446 -1.3846
   90MOL    H1321551   2.478   1.005   3.641 -1.6067 -0.7394 -0.4277
   90MOL    C1421552   2.436   0.830   3.857 -0.3775 -0.1991 -0.1842
   90MOL    C1521553   2.370   0.718   3.938  0.1716  0.2821 -0.0532
   90MOL    C1621554   2.309   0.792   4.063  0.8133  0.8397 -0.7118
   90MOL    C1721555   2.409   0.863   4.158  0.3023 -0.0951 -0.3005
   90MOL    H1821556   2.365   0.911   3.839 -1.8968 -1.3898  0.3120
   90MOL    H1921557   2.517   0.873   3.916  0.5269 -3.9178  1.3981
   90MOL    H2021558   2.291   0.667   3.882  0.9628 -0.3255 -0.6243
   90MOL    H2121559   2.252   0.717   4.118  0.7047  0.6496 -1.0817
   90MOL    H2221560   2.243   0.869   4.022  1.9972  1.6676 -1.1004
   90MOL    H2321561   2.453   0.797   4.233 -1.5563  0.3830  1.2746
   90MOL    H2421562   2.491   0.917   4.113  0.8573 -0.9947 -0.3892
   90MOL    H2521563   2.361   0.943   4.215  1.7260  0.4927  0.0850
   90MOL    C2621564   2.473   0.608   3.972 -0.5733  0.0437  0.8408
   90MOL    C2721565   2.475   0.489   3.872  0.3096 -0.4097  0.1216
   90MOL    C2821566   2.335   0.415   3.850 -0.2331 -0.0572  0.3237
   90MOL    C2921567   2.252   0.385   3.975  0.7969 -0.1494 -0.2253
   90MOL    H3021568   2.457   0.566   4.072  1.7645  1.5590  1.8941
   90MOL    H3121569   2.567   0.659   3.990 -0.9399  1.4128 -0.9795
   90MOL    H3221570   2.515   0.533   3.781 -0.1149  0.4090  0.3209
   90MOL    H3321571   2.352   0.320   3.799 -1.4431  0.0043 -0.2169
   90MOL    H3421572   2.281   0.473   3.775  2.2546  0.7934 -0.8885
   90MOL    H3521573   2.314   0.356   4.059  2.3332 -1.2240 -1.6825
   90MOL    H3621574   2.205   0.471   4.022  2.6126 -0.0584  1.4776
   90MOL    H3721575   2.189   0.296   3.964 -0.8578  0.6677  2.4068
   90MOL    C3821576   2.590   0.387   3.908  0.2885  0.2514  0.6918
   90MOL    C3921577   2.746   0.430   3.886 -0.2663 -0.3523  0.3266
   90MOL    C4021578   2.820   0.322   3.804  0.5153  0.1847 -0.8071
   90MOL    C4121579   2.786   0.313   3.652  0.0443 -0.2698 -0.0971
   90MOL    H4221580   2.571   0.290   3.860 -1.5516  0.0723  1.7291
   90MOL    H4321581   2.576   0.351   4.010  0.0320  1.4834  1.0946
   90MOL    H4421582   2.738   0.524   3.832 -2.9103 -0.8312 -0.1947
   90MOL    H4521583   2.812   0.228   3.859 -2.4237  1.9241  1.8829
   90MOL    H4621584   2.927   0.343   3.808  0.4681  0.1258  0.9359
   90MOL    H4721585   2.679   0.294   3.640 -0.1295 -0.8164  2.1279
   90MOL    H4821586   2.794   0.412   3.609 -1.5414 -0.1012 -0.0121
   90MOL    H4921587   2.853   0.240   3.606 -0.3371  0.6799 -2.2102
   90MOL    C5021588   2.823   0.450   4.021 -0.4154 -0.4354 -1.1040
   90MOL    C5121589   2.850   0.597   4.062  0.1477  0.6364 -0.6771
   90MOL    C5221590   2.924   0.684   3.959 -0.2865 -0.2012 -0.3842
   90MOL    C5321591   3.070   0.647   3.916  1.0365 -0.5661 -0.5450
   90MOL    H5421592   2.920   0.401   4.022 -0.4083 -0.4021  0.0812
   90MOL    H5521593   2.773   0.393   4.100 -1.3740  1.4134 -0.3575
   90MOL    H5621594   2.757   0.653   4.074  1.4519  2.6059  0.3638
   90MOL    H5721595   2.926   0.784   4.002 -1.7325  0.4556 -1.7708
   90MOL    H5821596   2.869   0.690   3.865 -0.8487  0.3076 -0.0191
   90MOL    H5921597   3.105   0.699   3.826 -1.5249 -2.0100 -2.4546
   90MOL    H6021598   3.146   0.648   3.994 -0.3434  3.8356  0.8999
   90MOL    H6121599   3.060   0.544   3.881 -0.0146 -0.7394  0.2408
   90MOL    C6221600   2.930   0.599   4.198  0.0575 -0.5264 -0.4336
   90MOL    C6321601   2.848   0.552   4.324  0.3431 -0.4971  0.6120
   90MOL    C6421602   2.704   0.615   4.344  0.2339 -0.3581  0.0648
   90MOL    C6521603   2.702   0.761   4.393  0.4684 -0.1821 -0.1839
   90MOL    H6621604   2.981   0.691   4.228  1.1086 -1.1507 -0.2730
   90MOL    H6721605   3.016   0.534   4.181  0.0665 -0.6309  0.0016
   90MOL    H6821606   2.823   0.447   4.313  0.2004 -0.4861  0.8378
   90MOL    H6921607   2.641   0.559   4.413 -1.4536  2.5286  0.9729
   90MOL    H7021608   2.647   0.600   4.252  2.1535 -1.4104 -0.9849
   90MOL    H7121609   2.777   0.821   4.342  0.3830 -0.8751 -1.1276
   90MOL    H7221610   2.604   0.808   4.380  0.4021 -0.0822  0.6548
   90MOL    H7321611   2.725   0.775   4.499 -0.5086  3.2829 -0.3781
   90MOL    C7421612   2.929   0.550   4.454 -0.1380  0.6902  1.1974
   90MOL    C7521613   2.879   0.488   4.583 -0.0816 -0.5115  0.0415
   90MOL    C7621614   2.968   0.544   4.701  0.5943  0.1599  0.0139
   90MOL    C7721615   2.986   0.697   4.719 -0.1452  0.8028 -0.5381
   90MOL    H7821616   2.927   0.654   4.486 -1.3319  0.6774  1.1708
   90MOL    H7921617   3.034   0.528   4.434 -0.2213  2.5322 -1.4667
   90MOL    H8021618   2.774   0.515   4.593 -0.1115 -1.3015  1.8779
   90MOL    H8121619   3.069   0.510   4.680  1.2975  0.3953  2.7405
   90MOL    H8221620   2.942   0.493   4.794 -1.2025 -0.3434 -0.7506
   90MOL    H8321621   2.886   0.737   4.703 -0.2175  1.6118  1.7052
   90MOL    H8421622   3.016   0.731   4.818  2.2049  2.1953 -1.6957
   90MOL    H8521623   3.068   0.731   4.656  1.3771 -3.0300 -0.7547
   90MOL    C8621624   2.890   0.331   4.579  0.0175 -0.3740 -0.7632
   90MOL    C8721625   2.827   0.251   4.690  0.0529 -0.7143  0.5387
   90MOL    C8821626   2.915   0.177   4.785 -0.2885  0.3217 -0.0453
   90MOL    C8921627   2.988   0.062   4.719  0.0757 -0.4280  0.0371
   90MOL    H9021628   2.990   0.292   4.558  0.2680 -1.0129  1.5037
   90MOL    H9121629   2.836   0.301   4.489 -0.3848 -0.8634 -0.3638
   90MOL    H9221630   2.782   0.323   4.758 -1.2147 -1.7656  0.8394
   90MOL    H9321631   2.848   0.139   4.862 -0.5895  0.4674 -0.2326
   90MOL    H9421632   2.977   0.251   4.836 -0.4255  1.0408 -0.9156
   90MOL    H9521633   3.062   0.024   4.789  3.0282  1.9740 -1.6907
   90MOL    H9621634   2.921   7.687   4.689 -0.5910  0.6853 -1.5547
   90MOL    H9721635   3.043   0.102   4.634 -0.3326  0.2507  0.0844
   90MOL    C9821636   2.709   0.158   4.644 -0.3175  0.0322  0.4566
   90MOL    C9921637   2.576   0.232   4.643  0.1386  0.3043  0.5538
   90MOL   C10021638   2.510   0.246   4.776 -0.0264 -0.3534  0.1709
   90MOL   C10121639   2.395   0.348   4.775 -0.0380  0.0641  0.3399
   90MOL   H10221640   2.684   0.079   4.714 -2.4364  2.0060  2.0084
   90MOL   H10321641   2.732   0.107   4.550 -0.6726 -1.5833  1.2489
   90MOL   H10421642   2.596   0.333   4.606 -2.5668  0.1346 -1.5734
   90MOL   H10521643   2.584   0.286   4.845 -1.2384  0.3111  1.1005
   90MOL   H10621644   2.482   0.147   4.811 -3.7560  0.5905  0.0138
   90MOL   H10721645   2.408   0.421   4.695  1.3010 -1.8325 -1.2164
   90MOL   H10821646   2.299   0.296   4.771 -0.0927  0.1698  0.2968
   90MOL   H10921647   2.384   0.402   4.868 -1.6638 -1.1653  0.8945
   90MOL   C11021648   2.489   0.144   4.546  0.0563  0.0728  0.3575
   90MOL   C11121649   2.507   0.152   4.392  0.2916 -0.1398  0.1737
   90MOL   C11221650   2.501   0.294   4.332  0.0366 -0.0996 -0.1740
   90MOL   C11321651   2.363   0.366   4.376  0.0547 -0.3757  0.0124
   90MOL   H11421652   2.385   0.166   4.571 -0.1283  0.7733 -0.9831
   90MOL   H11521653   2.509   0.041   4.574 -1.2421 -0.6361 -1.2401
   90MOL   H11621654   2.608   0.115   4.380  0.6562  0.8113  0.2547
   90MOL   H11721655   2.503   0.292   4.223  1.8305 -0.0593 -0.1465
   90MOL   H11821656   2.593   0.337   4.370 -0.1001  0.1801 -0.1568
   90MOL   H11921657   2.344   0.370   4.484 -1.9480 -2.9041 -0.1919
   90MOL   H12021658   2.375   0.468   4.339 -0.3539 -0.4196 -0.2417
   90MOL   H12121659   2.268   0.328   4.337 -0.4920  1.5003 -0.5238
   90MOL   C12221660   2.403   0.054   4.333 -0.8984  0.0064 -0.0837
   90MOL   C12321661   2.474   7.654   4.235  0.5868 -0.5199  0.3683
   90MOL   C12421662   2.544   0.002   4.112  0.2053 -0.1834  0.0559
   90MOL   C12521663   2.699   7.704   4.124  0.3596 -0.0840  0.3345
   90MOL   H12621664   2.323   0.101   4.276  0.0264  1.7052  0.0017
   90MOL   H12721665   2.349   0.000   4.412  0.3026 -3.3720 -1.4628
   90MOL   H12821666   2.544   7.597   4.297 -2.1356 -2.4322  1.7954
   90MOL   H12921667   2.525   0.107   4.091 -0.6749 -0.0092  1.6877
   90MOL   H13021668   2.505   7.646   4.031 -1.6733 -0.1392  0.8944
   90MOL   H13121669   2.741   7.605   4.138  3.2024  0.7465 -1.9926
   90MOL   H13221670   2.740   0.020   4.026  0.6080  1.1443  0.7007
   90MOL   H13321671   2.747   0.070   4.191 -2.4986  0.5755  1.7685
   90MOL   C13421672   2.372   7.551   4.196  0.6011  0.3698 -1.0361
   90MOL   C13521673   2.408   7.410   4.171 -0.3033  0.3606 -0.4826
   90MOL   C13621674   2.371   7.345   4.028 -0.3629 -0.2224 -0.4506
   90MOL   C13721675   2.218   7.325   4.004 -0.1457  0.1161 -0.7826
   90MOL   H13821676   2.318   7.590   4.110 -0.6404 -3.4936 -2.0926
   90MOL   H13921677   2.290   7.551   4.268  1.6234  0.9443  0.1604
   90MOL   H14021678   2.517   7.411   4.163  0.1027 -0.7949  3.7949
   90MOL   H14121679   2.409   7.243   4.021 -0.1160 -0.1327 -0.4093
   90MOL   H14221680   2.422   7.410   3.957  0.1582  0.1138  0.2361
   90MOL   H14321681   2.183   7.310   3.902  0.6247  1.7737 -1.3133
   90MOL   H14421682   2.176   7.238   4.055  3.2058 -0.8852  0.4721
   90MOL   H14521683   2.158   7.409   4.038 -0.1082  0.2909 -1.1475
   90MOL   C14621684   2.391   7.301   4.290 -0.8227 -0.3284  0.0618
   90MOL   C14721685   2.443   7.357   4.423  0.2623 -0.0920  0.0518
   90MOL   C14821686   2.596   7.333   4.428 -0.2665  0.5051  0.2745
   90MOL   C14921687   2.665   7.388   4.554 -0.4070  0.4309  0.1633
   90MOL   H15021688   2.443   7.211   4.256 -0.4610  0.6240 -1.9490
   90MOL   H15121689   2.286   7.273   4.287 -0.4261 -1.9665  0.7129
   90MOL   H15221690   2.433   7.465   4.436 -0.3320  0.3984 -3.8309
   90MOL   H15321691   2.642   7.393   4.348  0.3506 -0.7869 -0.3647
   90MOL   H15421692   2.631   7.237   4.391  0.7538  1.7797 -2.1968
   90MOL   H15521693   2.670   7.314   4.634 -1.2477  1.4886  1.2324
   90MOL   H15621694   2.768   7.420   4.536 -0.3919  0.7014  0.7145
   90MOL   H15721695   2.625   7.478   4.602  0.2225  1.8507 -1.9085
   90MOL   C15821696   2.364   7.288   4.533  0.2581 -0.3731 -0.0234
   90MOL   C15921697   2.231   7.367   4.560 -0.4615  0.8841  0.1207
   90MOL   C16021698   2.233   7.440   4.694 -0.3977 -0.2125 -0.1568
   90MOL   C16121699   2.311   7.567   4.685 -0.3646  0.3600 -0.6537
   90MOL   H16221700   2.429   7.291   4.620  0.0325  0.7908  0.1161
   90MOL   H16321701   2.349   7.183   4.511  0.6424 -0.4408  0.0412
   90MOL   H16421702   2.214   7.450   4.491 -3.1806  1.9480  1.9887
   90MOL   H16521703   2.278   7.381   4.773 -2.0062 -2.0186 -0.5432
   90MOL   H16621704   2.132   7.460   4.730  0.1253 -0.1693  1.2832
   90MOL   H16721705   2.311   7.629   4.595 -0.5468  0.7127 -0.4099
   90MOL   H16821706   2.290   7.619   4.778  0.2733 -0.6175  0.0468
   90MOL   H16921707   2.417   7.553   4.707 -0.9879 -1.9639  1.0114
   90MOL   C17021708   2.110   7.269   4.560 -0.4369  0.3968  1.0247
   90MOL   C17121709   1.976   7.336   4.520 -0.4024 -0.4843  0.1254
   90MOL   C17221710   1.863   7.296   4.620 -0.3036  0.2375  0.0717
   90MOL   C17321711   1.757   7.404   4.660 -0.0674 -0.0898 -0.0915
   90MOL   H17421712   2.101   7.215   4.654  0.1766  0.4071  1.0981
   90MOL   H17521713   2.140   7.193   4.487 -2.4100  1.5942 -1.1003
   90MOL   H17621714   1.994   7.441   4.542 -0.9337 -0.1593 -0.9461
   90MOL   H17721715   1.914   7.275   4.714  2.0045  1.6148 -0.8119
   90MOL   H17821716   1.809   7.205   4.594 -4.1700  2.1804  0.9554
   90MOL   H17921717   1.690   7.374   4.741 -3.5008  1.1789 -2.3578
   90MOL   H18021718   1.814   7.493   4.688  1.6510 -1.7130  1.6740
   90MOL   H18121719   1.698   7.443   4.577 -1.2370  0.4439  0.9653
   90MOL   C18221720   1.947   7.324   4.368  0.1743  0.3368 -0.1392
   90MOL   C18321721   1.834   7.413   4.315  0.1970 -0.8099  0.1474
   90MOL   C18421722   1.711   7.334   4.265 -0.4814 -0.5819 -0.0237
   90MOL   C18521723   1.749   7.237   4.150  0.0623  0.1548  0.0087
   90MOL   H18621724   1.931   7.217   4.354  2.0719 -0.1659  1.3481
   90MOL   H18721725   2.045   7.347   4.326  0.5070 -1.4194 -0.3720
   90MOL   H18821726   1.800   7.475   4.398 -0.0016 -0.1711 -0.4105
   90MOL   H18921727   1.632   7.408   4.250 -0.5881 -0.6421  0.2371
   90MOL   H19021728   1.684   7.271   4.350  1.8794 -1.9748 -0.2804
   90MOL   H19121729   1.835   7.171   4.158  0.1492  0.0377 -1.5926
   90MOL   H19221730   1.662   7.176   4.124  0.6295 -1.8741  2.6752
   90MOL   H19321731   1.782   7.301   4.068  0.9467 -1.5168 -0.9582
   90MOL   C19421732   1.879   7.512   4.206 -0.8567 -0.3491  0.1637
   90MOL   C19521733   1.876   7.663   4.247  0.5392  0.0046 -0.0824
   90MOL   C19621734   1.873   0.053   4.127 -0.3279  0.4028 -0.5869
   90MOL   C19721735   1.982   0.050   4.018 -0.7264  0.4141  0.6143
   90MOL   H19821736   1.807   7.501   4.125  1.1281 -0.1166 -1.6566
   90MOL   H19921737   1.980   7.483   4.176 -0.9468  0.1934 -0.6900
   90MOL   H20021738   1.782   7.677   4.301  0.5159  0.2913 -0.1953
   90MOL   H20121739   1.868   0.157   4.159  2.2948  0.0782  1.1065
   90MOL   H20221740   1.772   0.044   4.087 -1.1561 -0.5115  1.6285
   90MOL   H20321741   2.004   7.657   3.977  2.0789  1.3665 -0.2513
   90MOL   H20421742   1.963   0.114   3.932  0.2590  1.1455  0.9379
   90MOL   H20521743   2.083   0.079   4.046 -0.5190  1.5864 -1.3002
   90MOL   C20621744   1.986   7.703   4.348  0.3129  0.5424  0.2277
   90MOL   C20721745   1.956   0.122   4.436  0.1948 -0.3427  0.1558
   90MOL   C20821746   2.076   0.160   4.517  0.4367 -0.1203 -0.2734
   90MOL   C20921747   2.062   0.301   4.575 -0.5754  0.0766  0.1840
   90MOL   H21021748   2.081   0.006   4.295  0.2246 -0.9291 -0.1943
   90MOL   H21121749   2.004   7.619   4.415 -1.6187 -0.2523 -0.2207
   90MOL   H21221750   1.929   0.199   4.365 -1.4414  1.1173  2.2920
   90MOL   H21321751   2.168   0.155   4.460  0.4194 -1.0006 -0.2422
   90MOL   H21421752   2.094   0.091   4.600 -1.5327 -2.1787 -1.4656
   90MOL   H21521753   2.075   0.384   4.506 -3.0937 -0.7200 -1.3287
   90MOL   H21621754   1.966   0.316   4.625 -2.3268 -0.8703 -2.7399
   90MOL   H21721755   2.134   0.309   4.656 -2.0296 -1.4689  1.6892
   90MOL   C21821756   1.825   0.098   4.522 -0.5613 -0.0440  0.9438
   90MOL   C21921757   1.693   0.173   4.485  0.5946  0.0399 -0.8694
   90MOL   C22021758   1.689   0.316   4.543  0.1279  0.2519 -0.1139
   90MOL   C22121759   1.566   0.391   4.488  0.1405  0.5172 -0.3863
   90MOL   H22221760   1.840   0.114   4.628 -1.3148  0.9017  0.9104
   90MOL   H22321761   1.815   7.695   4.521 -3.3015  0.1527 -1.2764
   90MOL   H22421762   1.681   0.174   4.377  2.0284  0.0600 -1.0382
   90MOL   H22521763   1.778   0.358   4.495  0.3785 -0.8657 -0.6590
   90MOL   H22621764   1.702   0.320   4.651 -0.4438 -0.9918  0.0003
   90MOL   H22721765   1.480   0.350   4.541 -0.7700  1.4321 -1.1364
   90MOL   H22821766   1.572   0.495   4.521  1.5287  0.5331 -0.6927
   90MOL   H22921767   1.541   0.391   4.382  3.1775  2.3333 -1.1480
   90MOL   C23021768   1.576   0.082   4.526  0.7013  0.9344  0.0172
   90MOL   C23121769   1.553   7.677   4.423 -0.4501 -0.9586 -0.3746
   90MOL   C23221770   1.409   7.615   4.437  0.2329 -0.5627 -0.5101
   90MOL   C23321771   1.392   7.479   4.390  0.4332  0.6446  0.3295
   90MOL   H23421772   1.482   0.135   4.538 -0.3827 -0.5597 -1.6191
   90MOL   H23521773   1.593   0.036   4.624 -1.3441  1.1028  0.4669
   90MOL   H23621774   1.570   0.007   4.322 -1.2866 -0.2156 -0.2640
   90MOL   H23721775   1.337   7.683   4.391  0.2663 -0.9098 -1.0747
   90MOL   H23821776   1.389   7.623   4.544  0.4496 -2.0476 -0.3600
   90MOL   H23921777   1.465   7.406   4.425 -1.4614 -2.0573 -1.1523
   90MOL   H24021778   1.294   7.435   4.403  0.0958  1.1270 -0.5175
   90MOL   H24121779   1.401   7.488   4.281 -0.1200 -2.8232 -0.0530
   90MOL   H24221780   1.622   7.593   4.431 -0.9368 -1.3003  0.3488
   91MOL     C121781   3.676   5.230   2.202 -0.5221  0.6401 -0.6133
   91MOL     C221782   3.526   5.204   2.168 -0.1350  0.1580 -0.6992
   91MOL     C321783   3.450   5.111   2.273  1.0887  0.0764  0.3548
   91MOL     C421784   3.298   5.110   2.260 -0.2022  0.0975  0.2246
   91MOL     H521785   3.741   5.142   2.209 -1.2455  0.1078 -0.5547
   91MOL     H621786   3.728   5.290   2.128  2.7692 -0.6741  0.5071
   91MOL     H721787   3.475   5.300   2.182 -0.9327 -0.6238  2.1133
   91MOL     H821788   3.468   5.132   2.378 -0.5792 -1.5758  0.9877
   91MOL     H921789   3.488   5.009   2.266 -1.5488 -0.8571 -0.9866
   91MOL    H1021790   3.243   5.052   2.334 -0.8501  0.0696 -0.2687
   91MOL    H1121791   3.265   5.213   2.272  0.3400  0.0839  1.8562
   91MOL    H1221792   3.278   5.070   2.160  0.7709  2.5238 -0.9986
   91MOL    H1321793   3.687   5.286   2.295  0.6471 -4.1081  2.2932
   91MOL    C1421794   3.508   5.149   2.020  0.1541  0.4305 -0.4036
   91MOL    C1521795   3.543   5.234   1.897  0.2283 -0.3374  0.1160
   91MOL    C1621796   3.441   5.343   1.859 -0.4619  0.4330 -0.0056
   91MOL    C1721797   3.312   5.287   1.797  0.6821  0.0168  0.1454
   91MOL    H1821798   3.406   5.111   2.006 -0.0591  1.0154 -0.4583
   91MOL    H1921799   3.566   5.057   2.018 -0.3928  0.0675  0.3075
   91MOL    H2021800   3.634   5.290   1.918  1.2224 -1.3444 -1.4063
   91MOL    H2121801   3.473   5.423   1.793 -2.1951  0.6282 -0.6457
   91MOL    H2221802   3.419   5.395   1.952  1.4612 -1.6885  1.6962
   91MOL    H2321803   3.269   5.199   1.846  0.2691  0.8074  1.2397
   91MOL    H2421804   3.229   5.358   1.799  0.3229 -0.3667 -1.1265
   91MOL    H2521805   3.326   5.259   1.693 -0.0310 -1.1502  0.3566
   91MOL    C2621806   3.585   5.145   1.777  0.2342  0.1949  0.3920
   91MOL    C2721807   3.743   5.126   1.756  0.6533 -0.3733 -0.3053
   91MOL    C2821808   3.776   5.065   1.621  0.1716 -0.3038 -0.0561
   91MOL    C2921809   3.738   5.152   1.504  0.0048 -0.3075 -0.7889
   91MOL    H3021810   3.533   5.182   1.689 -1.5169  0.1557  1.3849
   91MOL    H3121811   3.545   5.044   1.790  1.5160 -0.2541  0.9648
   91MOL    H3221812   3.791   5.224   1.757  0.1111 -0.1072  1.5756
   91MOL    H3321813   3.710   4.978   1.618  0.9811 -0.9625  1.1088
   91MOL    H3421814   3.878   5.025   1.619  0.3314  0.1247 -1.5707
   91MOL    H3521815   3.633   5.183   1.501 -0.4501 -1.7910 -0.6422
   91MOL    H3621816   3.805   5.238   1.504 -1.0454  0.5229 -0.6829
   91MOL    H3721817   3.762   5.100   1.412 -0.9225 -1.0790 -0.6021
   91MOL    C3821818   3.808   5.052   1.876  0.3252  0.1712  0.4055
   91MOL    C3921819   3.961   5.050   1.880 -0.2829 -0.5090  0.3513
   91MOL    C4021820   4.017   4.917   1.937 -0.0267 -0.4135  1.0459
   91MOL    C4121821   3.986   4.891   2.084 -0.6593  0.1593  0.4959
   91MOL    H4221822   3.772   4.950   1.871  0.2391  0.1777  0.8724
   91MOL    H4321823   3.773   5.093   1.971 -2.8386 -2.1394  0.3064
   91MOL    H4421824   3.987   5.064   1.775 -3.1408 -0.0057 -0.3218
   91MOL    H4521825   4.124   4.914   1.915 -0.0076  2.7746  0.5060
   91MOL    H4621826   3.967   4.840   1.878 -0.7620  0.4519  0.5251
   91MOL    H4721827   4.021   4.976   2.142  0.8189  0.5371 -0.9276
   91MOL    H4821828   3.880   4.872   2.104 -0.3283 -0.6579  1.5092
   91MOL    H4921829   4.042   4.805   2.120 -2.1962 -0.4215  1.5897
   91MOL    C5021830   4.003   5.177   1.964 -0.3400  0.3727 -0.8196
   91MOL    C5121831   4.159   5.196   1.976  0.4180 -0.2469  0.0054
   91MOL    C5221832   4.190   5.284   2.102 -0.2495  0.3848 -0.3719
   91MOL    C5321833   4.182   5.207   2.237  0.6940  0.0346  0.8773
   91MOL    H5421834   3.964   5.155   2.063  0.0600  1.1153 -0.4919
   91MOL    H5521835   3.955   5.273   1.944 -0.6557  1.5500  4.6526
   91MOL    H5621836   4.204   5.098   1.993  0.9226 -0.1092 -0.4900
   91MOL    H5721837   4.140   5.381   2.102 -0.3415  0.3796  2.2400
   91MOL    H5821838   4.297   5.307   2.096  0.1135 -1.7969 -3.1985
   91MOL    H5921839   4.238   5.113   2.237  1.0997  0.2733 -0.0538
   91MOL    H6021840   4.219   5.281   2.309 -0.9092 -0.4663  2.2562
   91MOL    H6121841   4.086   5.165   2.266  0.7978 -1.0297 -0.2650
   91MOL    C6221842   4.215   5.260   1.844 -0.4552 -0.5441  0.3711
   91MOL    C6321843   4.305   5.155   1.759 -0.2095  0.2633  0.0437
   91MOL    C6421844   4.431   5.115   1.834  0.4836  0.1711 -0.0253
   91MOL    C6521845   4.479   4.974   1.812  0.3705 -0.1540  0.3297
   91MOL    H6621846   4.283   5.342   1.864  1.6496 -1.5860 -2.2072
   91MOL    H6721847   4.127   5.304   1.796  0.2372 -0.5768 -0.9494
   91MOL    H6821848   4.239   5.069   1.745  0.1706  0.0711 -0.5524
   91MOL    H6921849   4.411   5.115   1.941  0.1012  0.3807 -0.0977
   91MOL    H7021850   4.512   5.185   1.812  0.9952 -0.4445 -0.1202
   91MOL    H7121851   4.539   4.960   1.722  0.8758 -1.3044  0.8335
   91MOL    H7221852   4.556   4.948   1.884  0.7040 -0.5756 -0.1705
   91MOL    H7321853   4.399   4.901   1.822  1.2033 -1.3288 -1.3340
   91MOL    C7421854   4.346   5.203   1.615  0.0156 -0.1429  0.9925
   91MOL    C7521855   4.226   5.217   1.519  0.0314  0.0118 -0.1591
   91MOL    C7621856   4.196   5.080   1.452  0.6640 -0.4372  0.0371
   91MOL    C7721857   4.066   5.056   1.380  0.1846 -0.1451 -0.1922
   91MOL    H7821858   4.423   5.142   1.568  0.2635  2.0542 -1.6033
   91MOL    H7921859   4.387   5.304   1.623 -0.5013  0.1684 -0.1205
   91MOL    H8021860   4.141   5.252   1.576  0.4149  0.4508  0.1458
   91MOL    H8121861   4.182   5.013   1.537 -1.2328  0.9058  0.8149
   91MOL    H8221862   4.284   5.050   1.395  1.9450  0.7583  1.3557
   91MOL    H8321863   4.061   5.122   1.293  1.3082 -1.0081 -0.9191
   91MOL    H8421864   4.052   4.955   1.343  1.8520  0.8331 -3.6806
   91MOL    H8521865   3.977   5.086   1.436 -1.6732  0.2833 -3.3056
   91MOL    C8621866   4.256   5.322   1.408 -0.5829  0.6219  0.1345
   91MOL    C8721867   4.255   5.468   1.458  0.4976  0.1353  0.1760
   91MOL    C8821868   4.118   5.513   1.527 -0.2894  0.5512 -0.6613
   91MOL    C8921869   3.995   5.524   1.434 -0.3325 -0.0704  0.5109
   91MOL    H9021870   4.184   5.316   1.327 -0.6981  0.5074  0.2459
   91MOL    H9121871   4.349   5.302   1.355  0.6998  0.5576  2.3176
   91MOL    H9221872   4.332   5.489   1.533  0.9913  1.6991 -0.7487
   91MOL    H9321873   4.131   5.614   1.565  1.8196  0.2438 -0.4921
   91MOL    H9421874   4.090   5.462   1.619  1.3535  2.7402  1.1005
   91MOL    H9521875   4.020   5.594   1.354  1.4212 -0.3577  0.7854
   91MOL    H9621876   3.976   5.427   1.388  1.5198  0.7643 -2.1472
   91MOL    H9721877   3.902   5.563   1.475 -1.7866  0.2339 -2.8891
   91MOL    C9821878   4.291   5.557   1.330  0.0087  0.1184 -0.3673
   91MOL    C9921879   4.334   5.698   1.366  0.2594 -0.0015  0.0831
   91MOL   C10021880   4.341   5.784   1.238 -0.3728 -1.2666 -0.1535
   91MOL   C10121881   4.203   5.818   1.186 -0.1037  0.6620  0.4486
   91MOL   H10221882   4.204   5.556   1.264 -0.4773 -2.9711  0.2601
   91MOL   H10321883   4.369   5.511   1.269  0.2141  0.0495 -0.0543
   91MOL   H10421884   4.265   5.741   1.439 -1.0275 -1.6950 -0.1021
   91MOL   H10521885   4.397   5.731   1.161 -0.0028 -2.2217  0.7559
   91MOL   H10621886   4.386   5.880   1.264  0.4994 -1.2514 -1.6521
   91MOL   H10721887   4.138   5.741   1.145  2.3854 -1.2670 -0.0387
   91MOL   H10821888   4.152   5.886   1.254  1.1226  2.1453 -0.0936
   91MOL   H10921889   4.228   5.878   1.098  2.5521  2.8604  2.5931
   91MOL   C11021890   4.476   5.695   1.434  0.1778 -0.4460  0.8516
   91MOL   C11121891   4.507   5.802   1.532  0.7862 -0.5701  0.3342
   91MOL   C11221892   4.650   5.795   1.598 -0.3828 -0.4315  0.5875
   91MOL   C11321893   4.762   5.844   1.511 -0.1393 -0.2501 -0.8613
   91MOL   H11421894   4.546   5.710   1.351 -2.5003  3.4185 -0.8658
   91MOL   H11521895   4.504   5.600   1.478 -2.1650 -1.3885  0.3849
   91MOL   H11621896   4.502   5.896   1.476  0.8357 -1.2057 -0.7581
   91MOL   H11721897   4.665   5.690   1.627 -1.2388 -0.8118 -0.3305
   91MOL   H11821898   4.649   5.856   1.688 -0.3048  0.6807 -0.1668
   91MOL   H11921899   4.764   5.790   1.416  0.0090 -0.2082 -0.8821
   91MOL   H12021900   4.761   5.952   1.502 -1.8210 -0.2674 -1.0206
   91MOL   H12121901   4.858   5.818   1.557 -0.4324  1.0043  0.4799
   91MOL   C12221902   4.401   5.813   1.646 -0.0316 -0.0742 -0.4226
   91MOL   C12321903   4.373   5.962   1.691  0.6178 -0.2225  0.3737
   91MOL   C12421904   4.319   5.960   1.830 -0.3614 -0.3287 -0.1883
   91MOL   C12521905   4.425   5.915   1.932  0.1274  0.0586  0.0062
   91MOL   H12621906   4.449   5.746   1.719 -1.8519 -0.1174  0.7465
   91MOL   H12721907   4.309   5.758   1.627 -0.2041 -0.0764  0.4130
   91MOL   H12821908   4.463   6.024   1.690  0.8250 -0.4814  1.8585
   91MOL   H12921909   4.231   5.897   1.838 -1.9681  1.6840 -1.3137
   91MOL   H13021910   4.287   6.056   1.872  0.5148 -0.2275  0.2501
   91MOL   H13121911   4.522   5.953   1.902  0.0601 -0.1402 -0.4580
   91MOL   H13221912   4.406   5.944   2.036 -1.8426 -0.8223 -0.0822
   91MOL   H13321913   4.421   5.807   1.922 -2.3001  0.2338 -1.3004
   91MOL   C13421914   4.280   6.037   1.587 -0.1019  0.0019  0.1136
   91MOL   C13521915   4.264   6.192   1.622  0.4252 -0.3377 -0.0384
   91MOL   C13621916   4.114   6.233   1.618  0.1095  0.0207  0.8369
   91MOL   C13721917   4.013   6.160   1.702 -0.4941 -0.0022 -0.1676
   91MOL   H13821918   4.188   5.979   1.583 -1.1179  1.5897 -0.3618
   91MOL   H13921919   4.316   6.024   1.485  1.0938  3.3540  0.0379
   91MOL   H14021920   4.290   6.214   1.726  0.7021 -1.0257  0.0365
   91MOL   H14121921   4.082   6.240   1.514  0.1560  0.4974  0.8530
   91MOL   H14221922   4.111   6.341   1.630  1.7260  0.4933 -2.4400
   91MOL   H14321923   3.925   6.223   1.713 -1.5350 -1.3956 -0.3239
   91MOL   H14421924   3.993   6.055   1.680  0.3700 -0.1336 -0.3636
   91MOL   H14521925   4.059   6.158   1.801  0.7705  1.3826 -0.7147
   91MOL   C14621926   4.347   6.283   1.534 -0.2534  0.5347  0.2059
   91MOL   C14721927   4.503   6.269   1.541  0.3376 -0.7341 -0.0177
   91MOL   C14821928   4.559   6.318   1.675  0.7397 -0.0024 -0.2540
   91MOL   C14921929   4.701   6.273   1.702  0.7205  0.3374 -0.0409
   91MOL   H15021930   4.320   6.386   1.561  1.3390  0.9290  0.3589
   91MOL   H15121931   4.311   6.264   1.433 -0.8955 -0.9554  0.7010
   91MOL   H15221932   4.536   6.166   1.524  0.2170 -1.0486  1.5840
   91MOL   H15321933   4.497   6.282   1.757  0.9948  2.0192  0.8502
   91MOL   H15421934   4.553   6.427   1.674 -2.5427 -0.1308 -1.7800
   91MOL   H15521935   4.746   6.318   1.791 -0.2020  3.8820 -1.2565
   91MOL   H15621936   4.709   6.165   1.708 -2.5791 -0.0084 -0.8394
   91MOL   H15721937   4.776   6.304   1.629  3.0284 -1.8224  1.3228
   91MOL   C15821938   4.566   6.353   1.428  0.3967 -0.3855  0.1065
   91MOL   C15921939   4.628   6.276   1.305  0.5226 -0.0664 -0.0380
   91MOL   C16021940   4.733   6.366   1.234  0.7846  0.4472 -0.5498
   91MOL   C16121941   4.672   6.468   1.147  0.5522  0.1769  0.4850
   91MOL   H16221942   4.650   6.414   1.461  0.7784 -2.1051  2.4447
   91MOL   H16321943   4.499   6.434   1.402  0.5159  0.1817  1.5474
   91MOL   H16421944   4.680   6.190   1.346 -1.6885 -1.1893  0.4685
   91MOL   H16521945   4.806   6.307   1.179  0.2571  2.0597 -3.0666
   91MOL   H16621946   4.801   6.423   1.298  0.0391 -0.2019  0.8515
   91MOL   H16721947   4.596   6.522   1.202  0.6875  0.2890  0.5628
   91MOL   H16821948   4.738   6.542   1.102  0.5199 -0.3268 -0.4212
   91MOL   H16921949   4.622   6.410   1.069  2.2967 -0.3664 -0.2652
   91MOL   C17021950   4.528   6.211   1.212  0.8868  0.1095  0.5472
   91MOL   C17121951   4.593   6.107   1.111 -0.8224 -0.2554  0.6252
   91MOL   C17221952   4.499   6.068   0.999 -0.2141  0.0268 -0.1669
   91MOL   C17321953   4.480   6.154   0.874  0.0940  0.0910  0.7192
   91MOL   H17421954   4.468   6.285   1.159  2.2114  1.1976  0.5551
   91MOL   H17521955   4.463   6.154   1.280  1.5010 -1.3105 -0.0451
   91MOL   H17621956   4.677   6.159   1.064 -1.1868  0.5837  0.8954
   91MOL   H17721957   4.398   6.059   1.041 -0.1654  3.2128  0.7246
   91MOL   H17821958   4.521   5.971   0.954 -1.1334 -0.6460  0.8038
   91MOL   H17921959   4.472   6.261   0.894  0.1301 -0.1427  2.0367
   91MOL   H18021960   4.573   6.145   0.819 -1.0971 -0.6786 -1.2275
   91MOL   H18121961   4.408   6.120   0.800 -0.7644 -0.8817  1.9855
   91MOL   C18221962   4.643   5.972   1.166 -0.0383  0.2240  0.1030
   91MOL   C18321963   4.774   5.920   1.092  0.6185 -0.5608 -0.0776
   91MOL   C18421964   4.772   5.769   1.079  0.5091 -0.0400  0.2166
   91MOL   C18521965   4.668   5.705   0.976 -0.0548  0.4439 -0.4655
   91MOL   H18621966   4.565   5.897   1.157  0.6183 -0.2625 -1.8862
   91MOL   H18721967   4.667   5.980   1.272 -1.0937 -0.7125  0.4210
   91MOL   H18821968   4.753   5.950   0.989 -0.3253 -2.5205 -0.4799
   91MOL   H18921969   4.757   5.734   1.181 -1.1888 -1.5579 -0.5181
   91MOL   H19021970   4.867   5.740   1.035 -0.0808  0.9793 -1.7984
   91MOL   H19121971   4.694   5.614   0.923 -0.0498  0.9702 -1.3648
   91MOL   H19221972   4.579   5.674   1.031 -0.9526  3.5045 -0.0988
   91MOL   H19321973   4.638   5.775   0.898 -1.0594  0.2271 -0.2760
   91MOL   C19421974   4.888   5.983   1.156  0.4080  0.3803 -0.5795
   91MOL   C19521975   5.009   6.010   1.069 -0.2829 -0.3551  0.1340
   91MOL   C19621976   5.130   6.080   1.149  0.5670  0.2062 -0.0131
   91MOL   C19721977   5.186   6.000   1.267 -0.3318 -0.3521  0.2165
   91MOL   H19821978   4.921   5.917   1.237  0.1573  0.5297 -0.3536
   91MOL   H19921979   4.847   6.067   1.211 -0.8879  1.6861 -3.4432
   91MOL   H20021980   5.049   5.913   1.038  0.9776  0.3999 -0.6513
   91MOL   H20121981   5.095   6.177   1.184  0.1381  0.7990 -2.0129
   91MOL   H20221982   5.210   6.103   1.079  0.7743 -0.7706 -0.1069
   91MOL   H20321983   5.282   6.028   1.310  0.6675  0.7143 -2.6086
   91MOL   H20421984   5.109   5.980   1.342 -1.4110  0.7845 -0.5586
   91MOL   H20521985   5.213   5.906   1.220 -2.4371 -0.6784 -0.3971
   91MOL   C20621986   4.969   6.092   0.939  0.3398  0.0601  0.7147
   91MOL   C20721987   4.968   6.004   0.815 -0.1755 -0.2617  0.1808
   91MOL   C20821988   5.112   5.985   0.761 -0.0256  0.5136 -0.9151
   91MOL   C20921989   5.198   6.105   0.711  0.3411 -0.1779  0.0163
   91MOL   H21021990   5.029   6.182   0.931 -2.1268  1.7793  1.1325
   91MOL   H21121991   4.866   6.127   0.937 -0.0649 -1.0858  1.1646
   91MOL   H21221992   4.937   5.902   0.839  0.1509 -0.6186 -0.8834
   91MOL   H21321993   5.105   5.910   0.682 -2.0095 -1.6549  1.2487
   91MOL   H21421994   5.175   5.950   0.843 -1.1903  1.2115  0.2899
   91MOL   H21521995   5.195   6.179   0.792  1.0478  0.8583 -0.8867
   91MOL   H21621996   5.302   6.076   0.696  0.8212  2.3865 -1.9287
   91MOL   H21721997   5.172   6.153   0.616 -1.0381 -1.5491 -0.3199
   91MOL   C21821998   4.861   6.057   0.708  0.6399  0.7005  0.5005
   91MOL   C21921999   4.871   6.000   0.567 -0.0250  0.2234 -0.0171
   91MOL   C22022000   4.770   6.060   0.467 -0.6214  0.5203  0.3345
   91MOL   C22122001   4.805   6.204   0.421 -0.3598 -0.3487 -0.2708
   91MOL   H22222002   4.856   6.166   0.709  1.7471  0.7526  0.9191
   91MOL   H22322003   4.764   6.032   0.752  1.1615 -1.2038  0.6145
   91MOL   H22422004   4.968   6.023   0.524 -0.2582 -0.0227 -0.6722
   91MOL   H22522005   4.666   6.042   0.496 -0.7932 -1.2684 -1.2569
   91MOL   H22622006   4.772   5.998   0.377  2.1580  1.5329 -0.3422
   91MOL   H22722007   4.909   6.221   0.392 -0.3214 -0.7020 -0.3385
   91MOL   H22822008   4.742   6.246   0.343 -0.8449 -1.7342 -0.6484
   91MOL   H22922009   4.814   6.273   0.505  1.5089  0.3646 -1.0236
   91MOL   C23022010   4.854   5.851   0.552 -0.6994  0.4140  0.2443
   91MOL   C23122011   4.705   5.796   0.572 -0.6594 -0.2023  0.2275
   91MOL   C23222012   4.696   5.646   0.578 -0.1662  0.4447  1.0885
   91MOL   C23322013   4.743   5.583   0.449  0.0467  0.1012  0.3872
   91MOL   H23422014   4.917   5.791   0.618  1.0784 -0.0674 -1.8199
   91MOL   H23522015   4.892   5.817   0.456  1.0762  2.2216  0.2713
   91MOL   H23622016   4.655   5.844   0.656 -0.0333  0.8240  0.0327
   91MOL   H23722017   4.595   5.609   0.597 -0.2545  0.7059  1.1226
   91MOL   H23822018   4.758   5.621   0.664 -0.7220 -3.8608  0.3800
   91MOL   H23922019   4.682   5.627   0.371  1.1378  0.2747 -0.3734
   91MOL   H24022020   4.849   5.600   0.430 -0.0942  1.6782  0.9435
   91MOL   H24122021   4.733   5.475   0.461 -4.0336  0.5921  2.2734
   91MOL   H24222022   4.636   5.820   0.491  2.1764 -0.3141 -2.2980
   92MOL     C122023   6.113   0.629   2.460  0.0042 -0.6210 -0.1622
   92MOL     C222024   6.052   0.729   2.558 -0.0802 -0.1812  0.3505
   92MOL     C322025   6.070   0.689   2.707  0.0903 -0.2387 -0.5479
   92MOL     C422026   6.209   0.698   2.751 -0.2646  0.2546 -0.2312
   92MOL     H522027   6.080   0.527   2.476  0.9180 -0.8728  0.1083
   92MOL     H622028   6.092   0.652   2.355 -0.0161 -2.5785 -0.6087
   92MOL     H722029   6.097   0.828   2.550 -2.0455  0.7147  0.1112
   92MOL     H822030   6.030   0.589   2.727 -1.1801  0.4371  0.3722
   92MOL     H922031   6.012   0.763   2.762  0.0227 -0.8914  0.2692
   92MOL    H1022032   6.241   0.802   2.753 -0.7433  0.4112 -0.6554
   92MOL    H1122033   6.208   0.678   2.858  0.2968  2.5399  0.2244
   92MOL    H1222034   6.273   0.636   2.688  0.2945  1.1905 -0.6085
   92MOL    H1322035   6.220   0.628   2.480 -0.3316  1.0748  1.8087
   92MOL    C1422036   5.906   0.745   2.519  0.6372 -0.1777 -0.0039
   92MOL    C1522037   5.873   0.840   2.405  0.6550  0.0828  0.0904
   92MOL    C1622038   5.846   0.976   2.468 -0.5036 -0.1587  0.0515
   92MOL    C1722039   5.812   1.080   2.362  0.6076  0.3216 -0.2944
   92MOL    H1822040   5.856   0.783   2.608  2.8010 -0.0204  1.1690
   92MOL    H1922041   5.857   0.648   2.510  1.6935 -0.6437 -0.7647
   92MOL    H2022042   5.961   0.847   2.340  0.6573  0.9562  0.1709
   92MOL    H2122043   5.936   1.017   2.513 -0.2200 -0.8827  0.1420
   92MOL    H2222044   5.765   0.977   2.541 -0.9677  1.5274 -0.4598
   92MOL    H2322045   5.840   1.173   2.413  1.2671  0.7472 -1.4177
   92MOL    H2422046   5.883   1.064   2.281  2.4603  0.8314  1.1997
   92MOL    H2522047   5.707   1.084   2.333  0.3873 -0.8398  0.3213
   92MOL    C2622048   5.756   0.791   2.311 -0.1910  0.2966 -0.6266
   92MOL    C2722049   5.774   0.652   2.235 -0.4528  0.0716  0.7593
   92MOL    C2822050   5.814   0.675   2.086 -0.3947 -0.5937 -0.4852
   92MOL    C2922051   5.968   0.708   2.070 -0.0544  0.1354  0.2220
   92MOL    H3022052   5.734   0.868   2.237  1.2304  0.8720 -0.4604
   92MOL    H3122053   5.666   0.786   2.373 -0.2262  1.0402 -0.6154
   92MOL    H3222054   5.855   0.600   2.285  2.4259  2.5966 -1.0986
   92MOL    H3322055   5.749   0.752   2.044  0.3580 -1.6021 -3.6086
   92MOL    H3422056   5.783   0.591   2.024  0.3318 -2.5534  1.7330
   92MOL    H3522057   6.008   0.791   2.129  1.9530 -0.8535  0.2927
   92MOL    H3622058   6.025   0.619   2.097 -0.0171 -2.0423 -6.2752
   92MOL    H3722059   6.001   0.727   1.968  1.4093  2.0257  1.0280
   92MOL    C3822060   5.647   0.559   2.255 -0.1728 -0.9377 -0.2130
   92MOL    C3922061   5.651   0.417   2.190 -0.0871 -0.2530 -0.2099
   92MOL    C4022062   5.539   0.389   2.085 -0.1592 -0.8739  0.3177
   92MOL    C4122063   5.535   0.485   1.962 -0.0144 -0.9053 -0.4126
   92MOL    H4222064   5.551   0.603   2.226  0.1293  0.7316  1.2254
   92MOL    H4322065   5.650   0.544   2.363 -0.3012 -0.6901 -0.1730
   92MOL    H4422066   5.740   0.399   2.130 -0.4012 -2.2688 -0.1106
   92MOL    H4522067   5.439   0.389   2.128  0.8020 -0.1356  2.6246
   92MOL    H4622068   5.551   0.295   2.031  0.0783  0.3353 -1.8033
   92MOL    H4722069   5.457   0.445   1.896 -2.2637  0.6547  1.2579
   92MOL    H4822070   5.518   0.588   1.993 -0.4980 -0.5447 -1.8236
   92MOL    H4922071   5.631   0.469   1.911 -0.9232  0.6431 -2.7039
   92MOL    C5022072   5.652   0.303   2.292  0.0017 -0.5424  0.1574
   92MOL    C5122073   5.796   0.265   2.344  0.2000  0.1563  0.0525
   92MOL    C5222074   5.895   0.227   2.238 -0.5948 -0.0202  0.0575
   92MOL    C5322075   5.852   0.117   2.142  0.5003  0.9075  0.4819
   92MOL    H5422076   5.612   0.209   2.253  0.0446 -0.0696 -1.0162
   92MOL    H5522077   5.585   0.322   2.376 -0.8066 -1.4654 -0.2694
   92MOL    H5622078   5.843   0.347   2.398  0.7841  0.2850 -0.6638
   92MOL    H5722079   5.993   0.199   2.274 -0.5306 -1.4421 -1.1660
   92MOL    H5822080   5.917   0.319   2.183 -3.3888 -0.0623 -1.2140
   92MOL    H5922081   5.856   0.023   2.197 -0.4371 -0.1729 -1.2542
   92MOL    H6022082   5.755   0.135   2.096  0.0222  0.0565  1.1492
   92MOL    H6122083   5.927   0.105   2.064  2.9293 -0.1953  2.8757
   92MOL    C6222084   5.786   0.146   2.446  0.2685  0.2543  0.2518
   92MOL    C6322085   5.699   0.163   2.566  0.3813 -0.3416  0.5545
   92MOL    C6422086   5.738   0.283   2.658 -0.2049  0.1263  0.4298
   92MOL    C6522087   5.888   0.309   2.679 -0.3286 -0.1240  0.7168
   92MOL    H6622088   5.888   0.120   2.476  1.1983  3.0148 -0.2887
   92MOL    H6722089   5.758   0.054   2.397  4.4614 -1.2793  0.4851
   92MOL    H6822090   5.596   0.174   2.532 -0.0699  0.1798  2.0456
   92MOL    H6922091   5.688   0.268   2.753 -1.3740  3.4749  0.4042
   92MOL    H7022092   5.702   0.368   2.599  0.3656  1.6512  2.2482
   92MOL    H7122093   5.940   0.330   2.586  2.5661 -3.1502  1.5574
   92MOL    H7222094   5.899   0.386   2.756 -0.1697 -1.4636  2.0468
   92MOL    H7322095   5.949   0.229   2.720  1.1790  1.9370  2.6573
   92MOL    C7422096   5.692   0.034   2.652  0.1726 -0.1539  0.1450
   92MOL    C7522097   5.555   7.702   2.723  0.2077  0.3614  0.2910
   92MOL    C7622098   5.505   0.088   2.828 -0.0658 -1.1958 -0.0722
   92MOL    C7722099   5.598   0.090   2.953  0.7017 -0.1311 -0.5175
   92MOL    H7822100   5.767   0.040   2.731  0.2645  0.2686  0.0285
   92MOL    H7922101   5.708   7.653   2.589  0.2295  0.4916 -0.7417
   92MOL    H8022102   5.490   0.008   2.636  0.0790 -0.5440  0.2585
   92MOL    H8122103   5.406   0.063   2.865 -1.0234  2.6886  0.1489
   92MOL    H8222104   5.499   0.184   2.777 -1.5887 -1.7688 -1.0165
   92MOL    H8322105   5.706   0.097   2.940  0.7924 -1.6699 -0.6443
   92MOL    H8422106   5.574   0.178   3.013  2.6361  1.6416 -2.2426
   92MOL    H8522107   5.571   0.013   3.026 -0.7826  0.1847 -0.7029
   92MOL    C8622108   5.544   7.557   2.767  0.4860  0.1837 -0.5419
   92MOL    C8722109   5.562   7.441   2.657 -0.6683  0.2423  0.1531
   92MOL    C8822110   5.454   7.452   2.543  0.8499  0.0624  0.0363
   92MOL    C8922111   5.308   7.467   2.586  0.3709  0.3076 -0.8902
   92MOL    H9022112   5.452   7.536   2.821  0.1955  1.9176 -0.3506
   92MOL    H9122113   5.613   7.531   2.847  1.6711 -1.4287 -2.0643
   92MOL    H9222114   5.652   7.456   2.599 -0.0284 -1.7269  0.5982
   92MOL    H9322115   5.461   7.361   2.484  1.5595  1.1136 -1.5294
   92MOL    H9422116   5.495   7.532   2.481  1.8495 -1.7141 -1.6653
   92MOL    H9522117   5.245   7.491   2.501  1.2190  0.4389 -1.4841
   92MOL    H9622118   5.259   7.386   2.640  1.3707 -0.5873 -1.3212
   92MOL    H9722119   5.301   7.551   2.656  0.8752 -1.7159  1.6558
   92MOL    C9822120   5.585   7.295   2.712  0.1407  0.5275  0.2873
   92MOL    C9922121   5.712   7.262   2.798 -0.1991  1.1473 -0.1395
   92MOL   C10022122   5.847   7.271   2.721  0.1384 -1.0280 -0.0335
   92MOL   C10122123   5.848   7.174   2.599 -0.2338 -0.5741  0.2526
   92MOL   H10222124   5.577   7.213   2.641  2.6106  0.7585 -0.2788
   92MOL   H10322125   5.499   7.270   2.775 -0.9482  0.5247 -1.1549
   92MOL   H10422126   5.713   7.340   2.874 -0.2000  0.9422  0.0727
   92MOL   H10522127   5.927   7.245   2.790 -2.6919  0.1283  3.8221
   92MOL   H10622128   5.854   7.375   2.690 -0.5147 -0.0752  2.9192
   92MOL   H10722129   5.869   7.078   2.645 -1.8970 -2.5075 -2.7926
   92MOL   H10822130   5.760   7.178   2.534  0.2170 -0.6201 -0.3706
   92MOL   H10922131   5.933   7.213   2.544 -1.0630 -0.2901 -0.8557
   92MOL   C11022132   5.699   7.135   2.883  0.3699  0.3530  0.3910
   92MOL   C11122133   5.789   7.127   3.014  0.5115  0.4351  0.3846
   92MOL   C11222134   5.876   7.000   3.034  0.3875  0.8897  0.0457
   92MOL   C11322135   5.789   6.894   3.103  0.2451 -1.1328 -0.8159
   92MOL   H11422136   5.717   7.042   2.830  0.0807  0.5475 -0.0493
   92MOL   H11522137   5.600   7.124   2.927  0.3862  1.6775  0.7885
   92MOL   H11622138   5.854   7.213   2.997 -3.3860  3.4736  0.0913
   92MOL   H11722139   5.955   7.039   3.098  1.5731  1.1290 -1.5236
   92MOL   H11822140   5.910   6.956   2.940 -0.7756 -3.0803  1.3745
   92MOL   H11922141   5.698   6.873   3.047 -1.2050  1.8803  0.3098
   92MOL   H12022142   5.851   6.804   3.102  2.4271  0.3093  0.2748
   92MOL   H12122143   5.774   6.932   3.204  1.3146 -1.6771 -0.4467
   92MOL   C12222144   5.714   7.170   3.150  0.2320 -0.2629 -0.3584
   92MOL   C12322145   5.637   7.302   3.154  0.6650  0.5973  0.1224
   92MOL   C12422146   5.723   7.427   3.151 -0.2156  0.0626  0.6040
   92MOL   C12522147   5.814   7.463   3.268  0.9470 -0.6955 -0.5098
   92MOL   H12622148   5.778   7.183   3.237  1.8326 -1.8399 -1.2595
   92MOL   H12722149   5.645   7.088   3.168 -0.6806  0.7545  0.8752
   92MOL   H12822150   5.579   7.303   3.062  0.7934 -0.1695  0.0267
   92MOL   H12922151   5.659   7.513   3.133 -0.6057 -0.3475  0.0256
   92MOL   H13022152   5.787   7.411   3.064 -1.1483 -3.0021  0.4572
   92MOL   H13122153   5.864   7.558   3.252 -0.0439 -0.6040 -3.3934
   92MOL   H13222154   5.747   7.487   3.351  0.0821 -0.2554 -1.3296
   92MOL   H13322155   5.899   7.401   3.299  1.3125 -0.0158 -0.1498
   92MOL   C13422156   5.539   7.308   3.276  0.1048  0.1203 -0.1733
   92MOL   C13522157   5.439   7.421   3.277  0.2992 -0.2194 -1.0449
   92MOL   C13622158   5.348   7.408   3.396  0.0568 -1.0956 -0.2094
   92MOL   C13722159   5.267   7.282   3.402  0.3240 -0.0747  1.4286
   92MOL   H13822160   5.591   7.304   3.372 -0.6127 -3.0563  0.1247
   92MOL   H13922161   5.485   7.214   3.269 -1.1763  0.8497 -0.2456
   92MOL   H14022162   5.490   7.517   3.286  1.7988 -1.1014  0.1725
   92MOL   H14122163   5.264   7.478   3.403  0.0947 -1.1146  0.4559
   92MOL   H14222164   5.396   7.423   3.492 -1.2213  3.0718 -0.0822
   92MOL   H14322165   5.226   7.266   3.302 -1.3433  0.3289  2.0318
   92MOL   H14422166   5.314   7.191   3.441  1.0559  0.4648  1.8238
   92MOL   H14522167   5.175   7.299   3.458 -0.4244  0.3101  0.1019
   92MOL   C14622168   5.358   7.427   3.148  0.1534 -0.3036  0.4953
   92MOL   C14722169   5.227   7.511   3.129  0.0327 -0.6655 -0.1973
   92MOL   C14822170   5.161   7.501   2.995  0.2859 -0.2682  0.4308
   92MOL   C14922171   5.060   7.392   2.978  0.2306 -0.2138  0.4521
   92MOL   H15022172   5.343   7.326   3.113  0.9375  0.4136 -1.9998
   92MOL   H15122173   5.424   7.474   3.075  0.2406 -0.6640  0.3453
   92MOL   H15222174   5.161   7.482   3.211  1.7489 -1.7039  0.8563
   92MOL   H15322175   5.241   7.479   2.924  0.0980 -1.7645  0.6569
   92MOL   H15422176   5.115   7.592   2.957  0.4609 -1.2025 -2.1348
   92MOL   H15522177   5.022   7.387   2.876 -0.7351  0.2131  0.7957
   92MOL   H15622178   5.099   7.291   2.994 -1.8307 -1.3405 -1.3892
   92MOL   H15722179   4.978   7.400   3.049 -0.3544  1.1537 -0.3734
   92MOL   C15822180   5.259   7.659   3.159 -0.1049  0.2768 -0.0010
   92MOL   C15922181   5.137   0.043   3.192 -0.3356 -0.4406  0.7320
   92MOL   C16022182   5.179   0.192   3.176 -0.3751 -0.0825 -0.6571
   92MOL   C16122183   5.178   0.233   3.024  0.2349 -0.5737  0.6385
   92MOL   H16222184   5.294   7.690   3.061  0.5847  3.7585  1.2988
   92MOL   H16322185   5.339   7.678   3.230 -2.1178 -2.2511  3.0592
   92MOL   H16422186   5.053   0.011   3.130  0.4703 -0.6934 -0.2291
   92MOL   H16522187   5.281   0.204   3.211 -1.4439 -0.0842  2.6302
   92MOL   H16622188   5.116   0.258   3.235  1.3250 -0.0859  1.1957
   92MOL   H16722189   5.267   0.191   2.978  1.4864  2.0007  0.6219
   92MOL   H16822190   5.091   0.188   2.976  0.2059 -0.7603  0.8647
   92MOL   H16922191   5.191   0.337   2.993  4.7271 -1.5287 -0.9377
   92MOL   C17022192   5.105   0.018   3.343 -1.3201  0.5232  0.1360
   92MOL   C17122193   4.988   0.085   3.415  0.0584 -0.4247 -0.5457
   92MOL   C17222194   4.975   0.052   3.563  0.6564 -0.1940 -0.0252
   92MOL   C17322195   5.085   0.113   3.648 -0.3784  0.3490 -0.2942
   92MOL   H17422196   5.192   0.034   3.407 -1.8810  0.4066  0.9333
   92MOL   H17522197   5.084   7.618   3.355  3.2245 -0.4028  1.0413
   92MOL   H17622198   5.007   0.192   3.401  0.9123 -0.2469  1.7245
   92MOL   H17722199   4.959   7.651   3.579  0.8407  0.0211  1.6429
   92MOL   H17822200   4.888   0.105   3.602  1.7090 -1.2802  3.9553
   92MOL   H17922201   5.083   0.089   3.754 -1.9288 -1.5755 -0.7320
   92MOL   H18022202   5.187   0.092   3.615 -0.3802 -0.8863  0.4657
   92MOL   H18122203   5.084   0.222   3.649  3.3520  0.4496 -0.8733
   92MOL   C18222204   4.856   0.081   3.338 -0.5468 -0.3738  0.3845
   92MOL   C18322205   4.800   7.650   3.279 -0.1447 -0.7262  0.4128
   92MOL   C18422206   4.694   7.688   3.165 -0.2097  0.5429  0.7271
   92MOL   C18522207   4.755   0.031   3.036 -0.0018  0.0749  0.0144
   92MOL   H18622208   4.874   0.154   3.259 -0.2331 -0.8140  0.0453
   92MOL   H18722209   4.778   0.118   3.404 -1.8707 -3.4740  0.6694
   92MOL   H18822210   4.877   7.584   3.239 -0.7997 -1.9067  1.0796
   92MOL   H18922211   4.627   0.059   3.205  0.5781  1.7361 -0.2469
   92MOL   H19022212   4.639   7.595   3.146 -0.2966  0.0834  3.0597
   92MOL   H19122213   4.688   0.031   2.950 -0.1731  0.8972  0.1482
   92MOL   H19222214   4.789   0.133   3.054  0.4238 -0.0611 -0.0148
   92MOL   H19322215   4.846   7.680   3.019 -2.3468 -3.3355 -1.7835
   92MOL   C19422216   4.727   7.576   3.396  0.4420 -0.7316 -0.2642
   92MOL   C19522217   4.797   7.441   3.426  0.0045 -0.1114 -0.5057
   92MOL   C19622218   4.763   7.331   3.323  0.2017 -0.9005 -0.1739
   92MOL   C19722219   4.616   7.286   3.310 -0.0010 -0.2402 -0.2523
   92MOL   H19822220   4.619   7.573   3.387  0.6593 -3.0479 -2.7032
   92MOL   H19922221   4.736   7.632   3.489  3.9128 -0.6131 -0.5787
   92MOL   H20022222   4.906   7.445   3.426  0.0326  0.1271  1.8335
   92MOL   H20122223   4.812   7.237   3.347 -1.6366 -1.7304  0.4324
   92MOL   H20222224   4.817   7.348   3.230  0.5012 -2.5426 -0.3053
   92MOL   H20322225   4.620   7.187   3.264 -1.0603 -1.1853  1.6628
   92MOL   H20422226   4.556   7.281   3.400  0.2920  1.0835  0.0286
   92MOL   H20522227   4.562   7.348   3.238  1.4048  0.8141 -0.4300
   92MOL   C20622228   4.767   7.387   3.571  0.1465 -0.3114 -0.4210
   92MOL   C20722229   4.873   7.285   3.618 -0.5310  0.1926 -0.1009
   92MOL   C20822230   4.814   7.145   3.610  0.5723  0.1954 -0.6289
   92MOL   C20922231   4.913   7.037   3.566  0.1427 -0.1147 -0.0284
   92MOL   H21022232   4.670   7.337   3.574  1.0376 -1.9889  1.4197
   92MOL   H21122233   4.765   7.468   3.644 -1.4118 -1.7113  1.1536
   92MOL   H21222234   4.959   7.284   3.551 -1.0465  2.1825 -0.8184
   92MOL   H21322235   4.724   7.143   3.548 -0.8718 -1.2292  1.4320
   92MOL   H21422236   4.774   7.115   3.707  0.6838 -1.3927 -1.0625
   92MOL   H21522237   4.887   6.941   3.612  0.0595 -0.0244  0.1148
   92MOL   H21622238   4.918   7.027   3.458 -1.4414  1.3882 -0.2721
   92MOL   H21722239   5.011   7.063   3.605 -0.0483 -1.2290  1.2338
   92MOL   C21822240   4.914   7.311   3.768 -0.2119 -0.2417  0.2918
   92MOL   C21922241   5.004   7.430   3.801 -0.0096 -0.1627 -0.0162
   92MOL   C22022242   5.140   7.442   3.727  0.0274 -0.0117  0.3093
   92MOL   C22122243   5.237   7.332   3.756  0.0933 -0.1875  0.1270
   92MOL   H22222244   4.964   7.220   3.801  0.5812 -0.8046 -2.3686
   92MOL   H22322245   4.822   7.329   3.823 -0.4519  1.9197 -0.7723
   92MOL   H22422246   4.947   7.518   3.773  0.0435 -0.1490 -0.0815
   92MOL   H22522247   5.186   7.538   3.751  1.7142 -1.4801  3.1416
   92MOL   H22622248   5.118   7.448   3.620 -0.6648  1.2618  0.5066
   92MOL   H22722249   5.291   7.344   3.850  1.4071  0.0371 -0.6460
   92MOL   H22822250   5.184   7.237   3.757  0.1138 -0.1913  0.7492
   92MOL   H22922251   5.316   7.331   3.682  1.6809 -0.5815  1.7984
   92MOL   C23022252   5.029   7.436   3.952 -0.0699  0.7362  0.2900
   92MOL   C23122253   5.098   7.559   4.012 -0.1836 -0.7810  0.3267
   92MOL   C23222254   5.091   7.563   4.167 -0.1906  0.0335 -0.7838
   92MOL   C23322255   5.188   7.662   4.231  0.4263 -0.0520 -0.1728
   92MOL   H23422256   5.082   7.345   3.982 -2.9354 -0.8075  0.8150
   92MOL   H23522257   4.935   7.427   4.006 -2.4276  1.1121 -3.6339
   92MOL   H23622258   5.205   7.558   3.988  0.0089 -1.2257  1.1705
   92MOL   H23722259   5.114   7.461   4.199  0.8545  0.7145  0.6844
   92MOL   H23822260   4.993   7.581   4.211  0.0931 -1.5475  0.5729
   92MOL   H23922261   5.185   0.056   4.189 -0.8395 -1.3106 -3.2799
   92MOL   H24022262   5.177   7.668   4.339 -0.2952  0.8970 -0.2936
   92MOL   H24122263   5.287   7.617   4.223  0.3930  0.2110 -2.6528
   92MOL   H24222264   5.064   7.650   3.963 -0.0224 -0.8235  0.1333
   93MOL     C122265   5.025   6.769   1.596  0.1688  0.2621 -0.1103
   93MOL     C222266   5.049   6.754   1.749  0.0291 -0.0537 -0.6118
   93MOL     C322267   5.077   6.883   1.836  0.8774 -0.8203 -0.3239
   93MOL     C422268   5.179   6.979   1.781 -0.1322 -0.3224  0.2122
   93MOL     H522269   5.026   6.666   1.560  2.9257 -0.0592  0.7834
   93MOL     H622270   4.923   6.801   1.573 -1.2722 -3.7140  0.2033
   93MOL     H722271   4.951   6.716   1.778  0.4518 -0.4068  0.3691
   93MOL     H822272   5.107   6.863   1.938 -0.9917 -1.2761  0.1510
   93MOL     H922273   4.981   6.935   1.843 -0.0070 -2.0882 -2.2977
   93MOL    H1022274   5.141   7.032   1.693  0.4084  1.9759  1.3104
   93MOL    H1122275   5.212   7.052   1.855  2.5048 -0.9942 -0.2402
   93MOL    H1222276   5.270   6.930   1.746  1.2698 -0.2622  3.6109
   93MOL    H1322277   5.107   6.817   1.544 -1.6368  1.5197 -1.8716
   93MOL    C1422278   5.154   6.642   1.783  0.5450  0.3531 -0.3518
   93MOL    C1522279   5.121   6.494   1.746  0.2108 -0.2201  0.2400
   93MOL    C1622280   4.988   6.442   1.813 -0.4682  0.6440 -0.0375
   93MOL    C1722281   4.983   6.415   1.964 -0.3704  0.3276  0.3473
   93MOL    H1822282   5.167   6.648   1.891 -0.2785  0.9666 -0.2782
   93MOL    H1922283   5.249   6.669   1.736 -0.7645 -0.6991 -3.8170
   93MOL    H2022284   5.106   6.489   1.639  1.0527  2.4060 -0.0386
   93MOL    H2122285   4.988   6.340   1.773  3.6754  0.9363 -0.9775
   93MOL    H2222286   4.903   6.495   1.772 -0.4588  0.2778 -0.5303
   93MOL    H2322287   4.902   6.344   1.978  2.1665 -2.4431  1.5620
   93MOL    H2422288   5.071   6.362   2.000 -0.6455 -0.0169  0.5131
   93MOL    H2522289   4.964   6.511   2.011 -2.2744  1.7566 -3.1922
   93MOL    C2622290   5.233   6.396   1.781 -0.0595  0.5689  0.1295
   93MOL    C2722291   5.369   6.412   1.710 -0.0822 -0.2247  0.0059
   93MOL    C2822292   5.354   6.403   1.555  0.3455 -0.3983 -0.0651
   93MOL    C2922293   5.289   6.273   1.502  0.0152 -0.3015  0.0177
   93MOL    H3022294   5.202   6.298   1.744 -2.0129  1.4542 -0.6456
   93MOL    H3122295   5.248   6.392   1.889  2.7924  1.3501 -0.1948
   93MOL    H3222296   5.386   6.517   1.737 -0.8847 -0.0019 -0.3231
   93MOL    H3322297   5.456   6.409   1.517  0.4647  0.0572  0.3170
   93MOL    H3422298   5.311   6.497   1.520  0.1392  0.1053  1.5031
   93MOL    H3522299   5.349   6.187   1.533  1.1151  0.0192 -1.1753
   93MOL    H3622300   5.190   6.257   1.545 -0.6932 -2.0104 -2.1353
   93MOL    H3722301   5.276   6.284   1.394  0.5011 -0.1385 -0.0276
   93MOL    C3822302   5.467   6.315   1.767  0.4392  0.3036 -0.4578
   93MOL    C3922303   5.616   6.315   1.719  0.2237 -0.3582 -0.0775
   93MOL    C4022304   5.696   6.205   1.787 -0.4832 -0.8157 -0.5085
   93MOL    C4122305   5.647   6.066   1.757  0.2224  0.2140  0.4966
   93MOL    H4222306   5.426   6.216   1.749 -3.2377  2.1278 -2.7015
   93MOL    H4322307   5.472   6.315   1.876 -1.6739  1.2824 -0.3347
   93MOL    H4422308   5.606   6.285   1.615 -1.3138 -3.5444  0.9294
   93MOL    H4522309   5.709   6.215   1.895  1.0033 -0.1092 -0.7521
   93MOL    H4622310   5.794   6.206   1.739  1.1601 -0.0653  2.7326
   93MOL    H4722311   5.550   6.046   1.803 -0.5686  0.5572 -1.0181
   93MOL    H4822312   5.648   6.023   1.657 -0.0223 -0.1831  0.6613
   93MOL    H4922313   5.700   5.994   1.820 -0.3041 -0.6434 -0.0345
   93MOL    C5022314   5.686   6.456   1.731 -0.5920  0.8523 -0.3622
   93MOL    C5122315   5.808   6.471   1.637 -0.2038 -0.9716  0.1957
   93MOL    C5222316   5.930   6.549   1.716  0.3826 -0.0093  0.1720
   93MOL    C5322317   5.981   6.473   1.838 -0.5194  0.0531  1.0980
   93MOL    H5422318   5.721   6.456   1.834  0.2652  2.5949 -0.6326
   93MOL    H5522319   5.621   6.543   1.731 -0.6641  0.8007 -0.8641
   93MOL    H5622320   5.821   6.365   1.616 -1.7777 -0.4751 -3.5379
   93MOL    H5722321   5.890   6.647   1.744 -1.6381 -0.4486 -1.0980
   93MOL    H5822322   6.007   6.564   1.640  0.6693 -1.8892  0.0750
   93MOL    H5922323   5.985   6.366   1.818  1.1337  0.5305 -1.4160
   93MOL    H6022324   6.081   6.509   1.861  0.1787  0.1568 -1.8525
   93MOL    H6122325   5.916   6.493   1.923 -1.3917  1.0613  0.2080
   93MOL    C6222326   5.760   6.551   1.508 -0.1573 -0.6414  0.3478
   93MOL    C6322327   5.854   6.553   1.379 -0.1255 -0.0016  0.3595
   93MOL    C6422328   5.814   6.667   1.279  0.0445 -0.1362 -0.5261
   93MOL    C6522329   5.798   6.806   1.338  0.0155  0.6500  0.6628
   93MOL    H6622330   5.752   6.656   1.536 -0.5175 -0.2435 -1.1813
   93MOL    H6722331   5.662   6.518   1.474 -0.7318 -0.1104  1.4643
   93MOL    H6822332   5.957   6.565   1.415 -0.7598  1.3317  1.8394
   93MOL    H6922333   5.723   6.633   1.230 -1.2327  2.4794 -0.0839
   93MOL    H7022334   5.884   6.658   1.196  0.0846 -1.3940 -0.3661
   93MOL    H7122335   5.813   6.880   1.259 -0.9334 -0.1688 -0.2921
   93MOL    H7222336   5.700   6.829   1.380  0.2946  0.8867  1.1901
   93MOL    H7322337   5.880   6.815   1.409  1.0142 -0.3535 -0.3443
   93MOL    C7422338   5.854   6.414   1.312  0.7375  0.2471 -0.0144
   93MOL    C7522339   5.978   6.386   1.225  0.1866  0.1806  0.3105
   93MOL    C7622340   5.939   6.313   1.094  0.5202 -0.2481  0.0174
   93MOL    C7722341   5.911   6.408   0.983 -0.1862  0.6312 -0.0679
   93MOL    H7822342   5.765   6.407   1.249 -0.4294 -2.0253  1.7840
   93MOL    H7922343   5.846   6.337   1.389 -2.0058 -0.1276 -0.6071
   93MOL    H8022344   6.030   6.479   1.198 -3.5156  1.8920 -1.2307
   93MOL    H8122345   5.850   6.250   1.099  0.9346 -1.1255 -2.7039
   93MOL    H8222346   6.020   6.260   1.043 -0.0675  0.8970 -2.1883
   93MOL    H8322347   6.000   6.469   0.966 -0.3463  0.7908 -0.3481
   93MOL    H8422348   5.902   6.364   0.883  1.2487 -0.8070  0.4218
   93MOL    H8522349   5.827   6.470   1.014  0.8471  1.5701  0.8870
   93MOL    C8622350   6.085   6.308   1.295 -0.1086 -0.2413 -0.9943
   93MOL    C8722351   6.225   6.291   1.234  0.7566 -0.2895 -0.1121
   93MOL    C8822352   6.267   6.143   1.221 -0.5068  0.2352 -0.6777
   93MOL    C8922353   6.371   6.114   1.119 -0.3051  0.7404  0.2403
   93MOL    H9022354   6.043   6.208   1.307 -3.8580  1.1919 -1.6776
   93MOL    H9122355   6.093   6.342   1.398  2.3969 -0.0576 -1.2219
   93MOL    H9222356   6.220   6.327   1.131 -1.9452  0.0983  0.1209
   93MOL    H9322357   6.179   6.087   1.189 -0.5217  1.4583 -2.9109
   93MOL    H9422358   6.285   6.099   1.319  0.1771  0.4006 -0.7273
   93MOL    H9522359   6.385   6.007   1.126  1.6890  1.1320  2.6133
   93MOL    H9622360   6.344   6.143   1.017 -1.9717  0.6985  0.6584
   93MOL    H9722361   6.469   6.157   1.137 -0.4375  1.2029 -0.1085
   93MOL    C9822362   6.329   6.373   1.313 -0.6978 -0.8320  0.1113
   93MOL    C9922363   6.323   6.523   1.289  0.4597 -0.0581 -0.3846
   93MOL   C10022364   6.322   6.577   1.144 -0.1367 -0.4795 -0.1621
   93MOL   C10122365   6.276   6.720   1.121 -0.1698  0.5854  0.3909
   93MOL   H10222366   6.431   6.347   1.284 -0.1811  0.4851  0.7381
   93MOL   H10322367   6.325   6.346   1.419 -0.8501 -1.5703 -0.0806
   93MOL   H10422368   6.228   6.568   1.317 -0.3333 -1.2254 -1.1249
   93MOL   H10522369   6.239   6.534   1.088 -0.0278  0.6777 -1.2428
   93MOL   H10622370   6.419   6.558   1.097 -0.4492 -3.0093  0.1438
   93MOL   H10722371   6.179   6.727   1.171 -0.4910 -2.1759  0.1821
   93MOL   H10822372   6.347   6.789   1.166  0.6193 -0.3884  0.6388
   93MOL   H10922373   6.257   6.741   1.016  1.3661  0.4045  0.0733
   93MOL   C11022374   6.441   6.583   1.369  0.3589 -0.6718 -0.0623
   93MOL   C11122375   6.416   6.717   1.434  0.1601  0.1847 -0.5146
   93MOL   C11222376   6.545   6.808   1.435  0.0460 -0.1589 -0.7094
   93MOL   C11322377   6.580   6.855   1.283  0.0823 -0.8823  0.9095
   93MOL   H11422378   6.524   6.595   1.299  1.6743 -0.9073  1.4177
   93MOL   H11522379   6.485   6.520   1.447  0.7547  1.1485  1.2171
   93MOL   H11622380   6.338   6.755   1.368 -0.9970 -0.6153  0.3929
   93MOL   H11722381   6.624   6.763   1.494 -1.2282 -0.6889  0.6347
   93MOL   H11822382   6.529   6.904   1.484 -1.6708 -0.3885 -0.7942
   93MOL   H11922383   6.500   6.905   1.229  2.7633  1.0967 -1.4074
   93MOL   H12022384   6.665   6.923   1.287 -0.7610  0.2127  0.5619
   93MOL   H12122385   6.609   6.777   1.213  1.1467  0.7240 -0.4675
   93MOL   C12222386   6.346   6.706   1.572 -0.1653  0.0604  0.7311
   93MOL   C12322387   6.251   6.823   1.624 -0.6081  0.8357 -0.4722
   93MOL   C12422388   6.177   6.897   1.513 -0.2905 -0.6000  0.2144
   93MOL   C12522389   6.068   6.982   1.574 -0.2378 -0.2148  0.0604
   93MOL   H12622390   6.411   6.672   1.653  1.5877  1.5991 -0.0014
   93MOL   H12722391   6.272   6.628   1.552  0.0506  0.4786 -1.9232
   93MOL   H12822392   6.168   6.771   1.672 -0.1575 -1.6194 -2.2668
   93MOL   H12922393   6.135   6.819   1.450 -0.7206  0.3630 -0.7224
   93MOL   H13022394   6.240   6.962   1.453  0.9445 -0.4881  1.5952
   93MOL   H13122395   6.113   7.072   1.616  2.6929 -0.9194 -1.4873
   93MOL   H13222396   5.988   6.994   1.501 -1.0673  1.8159  1.2383
   93MOL   H13322397   6.018   6.939   1.661 -0.3798  1.3661  0.7796
   93MOL   C13422398   6.327   6.927   1.713 -0.1274  0.0418  0.3360
   93MOL   C13522399   6.267   6.936   1.856 -0.1765  0.1527  0.3486
   93MOL   C13622400   6.309   7.069   1.913  0.4239 -0.1119 -0.3041
   93MOL   C13722401   6.225   7.189   1.871 -0.0058  0.1969 -0.2321
   93MOL   H13822402   6.331   7.025   1.665 -0.4355  0.0358  0.2998
   93MOL   H13922403   6.431   6.896   1.721 -0.6916 -1.8415  0.5557
   93MOL   H14022404   6.159   6.945   1.850 -0.2909  1.2933  3.4274
   93MOL   H14122405   6.414   7.094   1.896  0.6089 -0.3501  0.4808
   93MOL   H14222406   6.303   7.064   2.022 -1.0248 -1.3761 -0.4306
   93MOL   H14322407   6.240   7.202   1.764  0.7857 -1.8474 -0.4048
   93MOL   H14422408   6.118   7.177   1.890  0.0772  0.3379  0.3125
   93MOL   H14522409   6.264   7.276   1.922 -0.3220 -0.2553  0.7961
   93MOL   C14622410   6.309   6.802   1.934 -0.1024 -0.2031 -0.2574
   93MOL   C14722411   6.244   6.776   2.075 -0.2079 -0.1558  0.6383
   93MOL   C14822412   6.321   6.667   2.144 -0.4420 -0.0369 -0.2006
   93MOL   C14922413   6.320   6.537   2.072 -0.4138  0.8961 -0.3626
   93MOL   H15022414   6.416   6.780   1.934 -0.0630 -0.0379 -1.3438
   93MOL   H15122415   6.270   6.728   1.865 -1.7731 -0.2784  0.7287
   93MOL   H15222416   6.254   6.861   2.142  0.2911 -0.3130  0.7657
   93MOL   H15322417   6.273   6.638   2.237  1.0773 -0.3024  0.5160
   93MOL   H15422418   6.422   6.689   2.179 -0.0015  1.4337 -2.3228
   93MOL   H15522419   6.221   6.506   2.038  0.1672 -0.1879 -1.0817
   93MOL   H15622420   6.391   6.531   1.990  1.4735  1.0016  1.2211
   93MOL   H15722421   6.339   6.454   2.139  0.4162 -0.0929 -1.7996
   93MOL   C15822422   6.094   6.741   2.062  0.7695 -0.1176  0.2365
   93MOL   C15922423   5.998   6.867   2.069 -0.5116  0.7960  0.0437
   93MOL   C16022424   5.959   6.908   2.211 -0.4391 -0.8315  0.9439
   93MOL   C16122425   5.849   6.825   2.280  0.3093 -0.5379 -0.2260
   93MOL   H16222426   6.056   6.669   2.135  1.3946  0.2921  0.9707
   93MOL   H16322427   6.074   6.701   1.963 -1.1089 -2.0323  1.3454
   93MOL   H16422428   6.050   6.956   2.031 -1.1910  0.5295 -1.5492
   93MOL   H16522429   5.916   7.008   2.212 -0.0529 -0.6654  0.9987
   93MOL   H16622430   6.043   6.915   2.279  1.7540 -0.5005 -1.7024
   93MOL   H16722431   5.836   6.877   2.375 -0.0527 -1.2988  0.1444
   93MOL   H16822432   5.754   6.823   2.225  0.8756 -0.0242 -1.2271
   93MOL   H16922433   5.891   6.728   2.304  0.7139 -0.7623 -1.8094
   93MOL   C17022434   5.875   6.845   1.974  0.0954  1.1201  0.0651
   93MOL   C17122435   5.777   6.958   1.958  0.2788 -0.7540 -0.2515
   93MOL   C17222436   5.653   6.924   1.877 -0.0311 -0.2558 -0.1794
   93MOL   C17322437   5.670   6.900   1.735 -0.2830  0.3131  0.4557
   93MOL   H17422438   5.814   6.758   2.000  0.4901  0.4374 -1.2857
   93MOL   H17522439   5.906   6.822   1.872  0.7870 -1.3634  0.7788
   93MOL   H17622440   5.738   6.980   2.057  0.9426  1.4160 -0.4362
   93MOL   H17722441   5.576   6.996   1.906 -0.2334  0.0298 -1.4242
   93MOL   H17822442   5.619   6.829   1.917 -0.5114 -0.2307 -0.5253
   93MOL   H17922443   5.653   7.000   1.695 -1.3156 -0.4671 -1.1151
   93MOL   H18022444   5.770   6.878   1.696 -0.1178 -0.0301  1.0673
   93MOL   H18122445   5.596   6.829   1.700 -0.2814  0.2838  0.5122
   93MOL   C18222446   5.844   7.094   1.922 -0.1274  0.2388  0.4300
   93MOL   C18322447   5.750   7.216   1.937 -0.4901 -0.6765  0.0905
   93MOL   C18422448   5.816   7.330   1.853 -0.3437  0.2205 -0.1092
   93MOL   C18522449   5.825   7.309   1.701 -0.3301 -0.0887  0.3270
   93MOL   H18622450   5.887   7.085   1.822  1.3705  1.8319  0.9102
   93MOL   H18722451   5.924   7.113   1.993 -0.7425  1.1176  0.9055
   93MOL   H18822452   5.660   7.194   1.880 -0.3539 -0.7851 -0.0873
   93MOL   H18922453   5.917   7.356   1.886 -0.2074  1.2264 -1.2832
   93MOL   H19022454   5.768   7.426   1.868  0.1912  0.6953 -1.3992
   93MOL   H19122455   5.751   7.232   1.679 -0.9195  0.4836  0.2852
   93MOL   H19222456   5.798   7.404   1.656 -1.4772  0.0036  1.1643
   93MOL   H19322457   5.923   7.272   1.673 -0.3299  0.5541 -0.5253
   93MOL   C19422458   5.723   7.261   2.081  0.1268  0.4035  0.5232
   93MOL   C19522459   5.608   7.354   2.108  0.2536 -0.4594 -0.5599
   93MOL   C19622460   5.637   7.445   2.227 -0.4548  0.3071 -0.2454
   93MOL   C19722461   5.552   7.570   2.217  0.3016  0.2945 -0.0221
   93MOL   H19822462   5.812   7.315   2.114  1.3650 -0.4667 -1.2928
   93MOL   H19922463   5.700   7.172   2.139 -1.2799  0.1790 -0.3528
   93MOL   H20022464   5.610   7.426   2.026 -0.0846 -0.2450 -0.3817
   93MOL   H20122465   5.741   7.476   2.227 -0.6237  0.9696 -2.3726
   93MOL   H20222466   5.610   7.394   2.319  0.9432 -0.4903 -0.2689
   93MOL   H20322467   5.562   7.633   2.305  3.7440  0.6339 -0.5821
   93MOL   H20422468   5.560   7.624   2.123 -1.6658  1.8049  0.6481
   93MOL   H20522469   5.448   7.538   2.220  0.2994  0.2953 -0.1141
   93MOL   C20622470   5.473   7.277   2.114 -0.0041 -0.0426  0.4843
   93MOL   C20722471   5.349   7.345   2.042 -0.3959 -0.3797 -0.2122
   93MOL   C20822472   5.223   7.288   2.106 -0.0981  0.4253 -0.1976
   93MOL   C20922473   5.197   7.321   2.255  0.3907  0.4413  0.1139
   93MOL   H21022474   5.452   7.262   2.220  0.9060 -2.3376  0.3746
   93MOL   H21122475   5.496   7.175   2.082  0.0397  0.3401 -0.7142
   93MOL   H21222476   5.347   7.449   2.075  0.4265 -0.1754 -0.8050
   93MOL   H21322477   5.214   7.181   2.086  1.9262 -0.1620  1.9131
   93MOL   H21422478   5.135   7.330   2.057  1.2023 -0.5440 -3.4889
   93MOL   H21522479   5.089   7.317   2.273 -0.0791 -0.4621 -2.5950
   93MOL   H21622480   5.249   7.246   2.313 -0.7641 -1.0115 -0.6851
   93MOL   H21722481   5.222   7.425   2.276  0.7760  0.6656 -1.3727
   93MOL   C21822482   5.355   7.336   1.886 -0.2261  0.9813 -0.1860
   93MOL   C21922483   5.246   7.406   1.804  0.2558 -0.0514  0.7129
   93MOL   C22022484   5.255   7.375   1.653  0.5557 -0.5189  0.4173
   93MOL   C22122485   5.149   7.438   1.566  0.7767  0.1334  0.5188
   93MOL   H22222486   5.357   7.231   1.858 -0.2637  0.5073  1.4950
   93MOL   H22322487   5.460   7.346   1.859 -0.1132  1.0871  0.2849
   93MOL   H22422488   5.152   7.367   1.843 -0.9213 -0.1758 -2.0618
   93MOL   H22522489   5.240   7.268   1.641 -2.0999 -0.1600  0.3674
   93MOL   H22622490   5.349   7.403   1.604  0.4113 -1.2975 -0.3159
   93MOL   H22722491   5.179   7.543   1.556  1.8721 -0.1248  0.9916
   93MOL   H22822492   5.135   7.397   1.467 -2.7956 -0.3146  1.1539
   93MOL   H22922493   5.056   7.441   1.623 -1.2669 -3.9417 -2.4335
   93MOL   C23022494   5.250   7.558   1.815  0.9210  0.6241  0.2169
   93MOL   C23122495   5.375   7.627   1.779 -0.1767 -0.1897  0.4546
   93MOL   C23222496   5.374   0.076   1.809  0.1715 -0.6815  0.2599
   93MOL   C23322497   5.510   0.149   1.761  0.0655  0.2203  0.4312
   93MOL   H23422498   5.226   7.588   1.918  0.9033  0.3551  0.2921
   93MOL   H23522499   5.169   7.610   1.762 -0.8846 -1.6869  0.6313
   93MOL   H23622500   5.461   7.582   1.828  0.0980  0.5501  0.6508
   93MOL   H23722501   5.373   0.087   1.917  0.8341 -0.0519  0.2071
   93MOL   H23822502   5.284   0.122   1.768  1.3252  0.1873 -1.3592
   93MOL   H23922503   5.600   0.096   1.794  1.0655  1.3545 -0.4379
   93MOL   H24022504   5.508   0.140   1.653  1.1428  1.5937  0.2789
   93MOL   H24122505   5.509   0.254   1.788  1.5387  0.1389  0.8565
   93MOL   H24222506   5.394   7.616   1.672 -2.8790 -2.4624  0.1403
   94MOL     C122507   5.870   3.584   4.316 -0.3733  0.1907 -0.3359
   94MOL     C222508   5.733   3.630   4.269 -0.0664 -0.0878  0.0350
   94MOL     C322509   5.730   3.759   4.179  0.5450  0.1456 -0.1434
   94MOL     C422510   5.777   3.740   4.035  0.2670  0.3673 -0.3838
   94MOL     H522511   5.874   3.506   4.392  1.1302  0.0216 -0.5747
   94MOL     H622512   5.913   3.526   4.234  1.0000 -1.7937  1.7079
   94MOL     H722513   5.687   3.544   4.220  3.2491 -2.7431  1.3973
   94MOL     H822514   5.766   3.849   4.229 -0.0394  0.2866  0.0341
   94MOL     H922515   5.626   3.791   4.174  0.5109 -0.1680 -1.9409
   94MOL    H1022516   5.753   3.643   3.992  0.4113 -0.7314  1.9219
   94MOL    H1122517   5.737   3.822   3.975 -0.4726 -0.8199 -1.5340
   94MOL    H1222518   5.886   3.748   4.029  0.3386 -0.2133  0.1239
   94MOL    H1322519   5.942   3.659   4.348 -2.0720  1.9287 -0.4832
   94MOL    C1422520   5.660   3.671   4.402  0.2593 -0.3541  0.5573
   94MOL    C1522521   5.592   3.555   4.483 -0.1731  0.6641 -0.1941
   94MOL    C1622522   5.464   3.510   4.411 -0.1423 -0.1037 -0.6756
   94MOL    C1722523   5.427   3.369   4.460 -0.1107 -0.1648 -0.7958
   94MOL    H1822524   5.581   3.744   4.386  0.4942 -0.2257 -0.0285
   94MOL    H1922525   5.728   3.725   4.467 -0.0972  0.5108  0.2210
   94MOL    H2022526   5.656   3.466   4.474 -1.0671 -0.0897  0.7709
   94MOL    H2122527   5.485   3.502   4.304  2.2476  2.7174 -0.4877
   94MOL    H2222528   5.395   3.587   4.447  0.5021  0.5033 -0.7042
   94MOL    H2322529   5.357   3.327   4.388  0.3481  0.3936 -1.5811
   94MOL    H2422530   5.504   3.292   4.468 -0.1163  0.0142  1.1489
   94MOL    H2522531   5.375   3.377   4.556  0.1190 -0.1258 -0.6734
   94MOL    C2622532   5.583   3.583   4.634 -0.1130  0.2991  0.1268
   94MOL    C2722533   5.712   3.597   4.718  0.3986  0.2497 -0.2245
   94MOL    C2822534   5.808   3.474   4.735 -0.2919  0.9789 -0.1477
   94MOL    C2922535   5.946   3.516   4.757  0.2267  0.0164  0.0815
   94MOL    H3022536   5.533   3.495   4.675  1.1945 -0.5724 -0.1295
   94MOL    H3122537   5.524   3.674   4.650  0.5983  0.4750  1.9419
   94MOL    H3222538   5.768   3.676   4.667  1.6438 -1.7311 -2.0207
   94MOL    H3322539   5.809   3.414   4.644  0.1730  0.0772  0.4471
   94MOL    H3422540   5.776   3.416   4.822  0.8626 -0.3474 -0.5892
   94MOL    H3522541   5.962   3.561   4.855  0.6068 -0.9557  0.4804
   94MOL    H3622542   6.006   3.425   4.753  0.6409  0.1980  1.8412
   94MOL    H3722543   5.987   3.579   4.679 -0.2824  2.5035  1.7522
   94MOL    C3822544   5.669   3.645   4.862 -0.0748 -0.1865  0.3355
   94MOL    C3922545   5.668   3.801   4.876 -0.8836  0.0408 -0.2732
   94MOL    C4022546   5.808   3.842   4.916  0.0241  0.4884  0.3640
   94MOL    C4122547   5.864   3.793   5.053 -0.1345  0.1766 -0.4213
   94MOL    H4222548   5.721   3.592   4.941  0.9860  0.0987 -0.1660
   94MOL    H4322549   5.572   3.601   4.886  0.0820  0.4860  2.2778
   94MOL    H4422550   5.643   3.843   4.779 -2.0363  1.3662  0.5682
   94MOL    H4522551   5.821   3.947   4.889 -1.3963  0.2191 -1.4840
   94MOL    H4622552   5.870   3.798   4.838 -0.6153  0.5363 -0.1706
   94MOL    H4722553   5.788   3.815   5.128  0.4434 -0.3090  0.3137
   94MOL    H4822554   5.873   3.684   5.058  0.8312  0.2759  0.2438
   94MOL    H4922555   5.960   3.837   5.079 -1.0075  1.3186  0.9911
   94MOL    C5022556   5.563   3.853   4.976 -0.1107  0.2633  0.0196
   94MOL    C5122557   5.412   3.856   4.921  0.0759 -0.3591 -0.6745
   94MOL    C5222558   5.393   3.982   4.828 -0.1264  0.0542  0.2484
   94MOL    C5322559   5.262   3.975   4.740 -0.1373  0.6332 -0.1595
   94MOL    H5422560   5.584   3.957   4.999 -0.4666  0.3244  0.0815
   94MOL    H5522561   5.583   3.794   5.066  0.8627 -0.1133 -0.4470
   94MOL    H5622562   5.398   3.771   4.854  1.1610 -1.5919  0.6170
   94MOL    H5722563   5.480   3.993   4.763 -1.1583 -0.4411 -1.2640
   94MOL    H5822564   5.385   4.069   4.892 -2.4616  0.2052 -0.2159
   94MOL    H5922565   5.260   3.876   4.695 -0.3118 -0.1659  1.5591
   94MOL    H6022566   5.171   3.979   4.800 -0.8341  1.9248 -1.2760
   94MOL    H6122567   5.247   4.044   4.657  0.7959 -0.6775 -1.4381
   94MOL    C6222568   5.316   3.841   5.041  0.6094  1.0049  0.0977
   94MOL    C6322569   5.299   3.696   5.091  0.2489 -0.3790 -0.7006
   94MOL    C6422570   5.169   3.624   5.047  0.7680  0.1698 -0.2734
   94MOL    C6522571   5.125   3.626   4.905 -0.1034 -0.4373 -0.2922
   94MOL    H6622572   5.216   3.879   5.018  0.2325 -0.2392 -0.3539
   94MOL    H6722573   5.352   3.906   5.121  0.8845 -0.1748  0.9405
   94MOL    H6822574   5.380   3.645   5.041  1.9310  1.0308  0.5170
   94MOL    H6922575   5.080   3.649   5.106  0.6943 -1.8150  0.4667
   94MOL    H7022576   5.176   3.519   5.075  0.4523  0.2386  0.0636
   94MOL    H7122577   5.179   3.568   4.830  1.1046 -1.4146  1.2954
   94MOL    H7222578   5.020   3.601   4.888 -0.7176  3.2476 -2.2442
   94MOL    H7322579   5.127   3.733   4.884  3.3649 -0.8722 -2.7672
   94MOL    C7422580   5.320   3.695   5.248 -0.8278 -0.4188  0.6150
   94MOL    C7522581   5.328   3.557   5.318 -0.6922 -0.0256  0.9669
   94MOL    C7622582   5.311   3.576   5.466 -0.0250 -0.1969 -0.2770
   94MOL    C7722583   5.405   3.683   5.524  0.9692 -0.4103 -0.0861
   94MOL    H7822584   5.236   3.751   5.290  0.1961  1.3770  0.3372
   94MOL    H7922585   5.412   3.748   5.275 -0.6375 -0.8101  0.7328
   94MOL    H8022586   5.240   3.499   5.290  1.1408 -1.3791 -2.2494
   94MOL    H8122587   5.324   3.475   5.504 -0.4779 -0.4173 -0.7005
   94MOL    H8222588   5.207   3.605   5.479 -0.3266 -1.0959 -0.6865
   94MOL    H8322589   5.371   3.702   5.626  0.8597  1.1548 -0.4022
   94MOL    H8422590   5.512   3.666   5.519  1.0793  0.6508 -1.5245
   94MOL    H8522591   5.388   3.783   5.483 -0.9240  0.0169  1.6542
   94MOL    C8622592   5.462   3.482   5.264  0.4736  0.2724  0.6474
   94MOL    C8722593   5.509   3.352   5.334  0.1125 -0.4638 -0.2916
   94MOL    C8822594   5.644   3.308   5.287 -0.6936 -0.4352 -0.3123
   94MOL    C8922595   5.649   3.273   5.136 -0.1298 -0.3011 -0.1319
   94MOL    H9022596   5.547   3.551   5.257  1.5733 -1.1060  0.1958
   94MOL    H9122597   5.435   3.452   5.162 -0.4709 -0.2602  1.0522
   94MOL    H9222598   5.527   3.396   5.433 -3.5905  2.3153 -0.7168
   94MOL    H9322599   5.672   3.213   5.332  1.4600 -0.3076 -1.3565
   94MOL    H9422600   5.715   3.386   5.314 -0.8713 -0.5483  0.5167
   94MOL    H9522601   5.566   3.206   5.112  1.4559 -2.8070  1.0868
   94MOL    H9622602   5.632   3.367   5.083  1.3054 -1.3986 -2.6397
   94MOL    H9722603   5.744   3.236   5.098 -0.1951  0.3976 -0.9782
   94MOL    C9822604   5.403   3.241   5.344 -0.3963  0.2189 -0.0906
   94MOL    C9922605   5.427   3.118   5.445  0.6449 -0.3366  0.3146
   94MOL   C10022606   5.317   3.012   5.425  1.2645  0.6662  0.1374
   94MOL   C10122607   5.173   3.073   5.435  0.1605  0.2879 -0.5612
   94MOL   H10222608   5.389   3.214   5.240 -0.9023 -0.8422  0.2479
   94MOL   H10322609   5.311   3.291   5.373  0.4757  1.7149  0.1246
   94MOL   H10422610   5.520   3.067   5.420 -0.0623 -1.5620  0.1748
   94MOL   H10522611   5.338   2.920   5.479  1.3002  0.8136  0.3728
   94MOL   H10622612   5.319   2.977   5.321 -2.5895 -1.5291  0.6998
   94MOL   H10722613   5.149   3.128   5.526 -2.0352  1.2076 -1.6689
   94MOL   H10822614   5.145   3.143   5.357  1.6673  1.4978 -0.0321
   94MOL   H10922615   5.095   2.996   5.435  0.7190 -0.2829 -0.9361
   94MOL   C11022616   5.434   3.171   5.585  0.4138 -0.4899 -0.6212
   94MOL   C11122617   5.477   3.067   5.694 -0.1821 -0.7843 -0.1468
   94MOL   C11222618   5.440   3.107   5.835 -0.8213  0.4075 -0.3238
   94MOL   C11322619   5.291   3.113   5.866  0.1090  0.0125  0.0285
   94MOL   H11422620   5.341   3.217   5.618  0.5928 -0.2125 -0.5098
   94MOL   H11522621   5.510   3.249   5.585 -0.5090  0.4671 -2.6774
   94MOL   H11622622   5.420   2.975   5.676 -0.7176 -0.1801 -1.6156
   94MOL   H11722623   5.483   3.201   5.869 -3.1188  1.1279  0.6894
   94MOL   H11822624   5.482   3.038   5.908 -0.9419  1.9726  1.2502
   94MOL   H11922625   5.249   3.198   5.812 -0.8624  0.5065  1.5304
   94MOL   H12022626   5.235   3.031   5.822 -0.8998  0.3328  0.6954
   94MOL   H12122627   5.263   3.110   5.971  0.9429 -2.0837  0.2152
   94MOL   C12222628   5.625   3.030   5.683 -0.2928  0.4115  0.1855
   94MOL   C12322629   5.663   2.885   5.728 -0.1725 -0.3219  0.2063
   94MOL   C12422630   5.813   2.872   5.756 -0.3084 -0.0265  0.4452
   94MOL   C12522631   5.866   2.973   5.858  0.4064 -0.6937 -0.1123
   94MOL   H12622632   5.670   3.119   5.726  0.7653  0.4569 -0.9638
   94MOL   H12722633   5.657   3.047   5.580 -0.9568  1.5849  0.1645
   94MOL   H12822634   5.602   2.878   5.818  0.2790 -0.1690  0.5252
   94MOL   H12922635   5.859   2.881   5.657 -1.8292 -0.8598 -0.3545
   94MOL   H13022636   5.850   2.776   5.792 -0.8543 -0.0959  0.8167
   94MOL   H13122637   5.956   3.028   5.832  0.4828 -0.4737  0.6109
   94MOL   H13222638   5.796   3.052   5.887  1.0368  0.4108 -1.5361
   94MOL   H13322639   5.883   2.917   5.950 -0.8987  0.0142  0.5775
   94MOL   C13422640   5.615   2.776   5.620  0.3340  0.4272 -0.2615
   94MOL   C13522641   5.614   2.629   5.684 -0.1677 -0.7881 -0.3496
   94MOL   C13622642   5.694   2.531   5.593  0.1166  0.0245 -0.1632
   94MOL   C13722643   5.746   2.400   5.660 -0.3299 -0.3975 -0.1174
   94MOL   H13822644   5.681   2.784   5.534 -2.0168 -2.3002 -2.4205
   94MOL   H13922645   5.515   2.785   5.578  0.4190  0.3830 -0.4727
   94MOL   H14022646   5.661   2.640   5.782  0.4850 -1.6159 -0.5753
   94MOL   H14122647   5.790   2.573   5.564 -0.5038  1.8181  0.3030
   94MOL   H14222648   5.655   2.522   5.492 -1.3303  0.1945  0.3701
   94MOL   H14322649   5.670   2.322   5.658 -1.6583  0.7091  3.7983
   94MOL   H14422650   5.821   2.358   5.593  1.4514  1.3116  0.7724
   94MOL   H14522651   5.775   2.410   5.764 -1.8589 -0.8536  0.3691
   94MOL   C14622652   5.473   2.578   5.714  0.2193 -0.4089  0.4682
   94MOL   C14722653   5.380   2.638   5.817  0.2585  0.0001  0.5101
   94MOL   C14822654   5.432   2.614   5.955  0.3820 -1.2179 -0.1379
   94MOL   C14922655   5.364   2.696   6.069 -0.8876  0.3640  0.0707
   94MOL   H15022656   5.474   2.475   5.749 -1.8081 -1.1614 -1.5007
   94MOL   H15122657   5.416   2.579   5.621 -2.1160 -1.1829  1.8489
   94MOL   H15222658   5.373   2.746   5.799 -2.8657  0.1219  2.0711
   94MOL   H15322659   5.539   2.635   5.948  0.3797 -0.7544  1.0244
   94MOL   H15422660   5.426   2.509   5.982  2.0312 -0.7594  2.1515
   94MOL   H15522661   5.280   2.645   6.117 -2.8007  1.9555 -1.4619
   94MOL   H15622662   5.438   2.714   6.147 -1.9105  0.7301  0.9822
   94MOL   H15722663   5.340   2.794   6.027  0.5729  0.0414 -1.5475
   94MOL   C15822664   5.236   2.563   5.816 -0.1695  0.1335 -0.8866
   94MOL   C15922665   5.134   2.599   5.698 -0.1671  0.2983  0.3069
   94MOL   C16022666   5.110   2.759   5.697 -0.5366  0.0353 -0.2043
   94MOL   C16122667   5.044   2.810   5.821 -0.1189 -0.3711  0.2689
   94MOL   H16222668   5.198   2.577   5.917 -0.4778 -0.6701 -0.8915
   94MOL   H16322669   5.266   2.458   5.815  1.5266  0.6058 -0.7623
   94MOL   H16422670   5.193   2.561   5.616  0.0998 -1.1690  1.1655
   94MOL   H16522671   5.040   2.783   5.618 -0.8182  2.8250  0.8154
   94MOL   H16622672   5.201   2.811   5.665 -0.2986 -1.5060 -2.1165
   94MOL   H16722673   5.102   2.789   5.910 -0.5605 -0.5813  0.5120
   94MOL   H16822674   5.022   2.916   5.810  3.4107  0.3094 -0.6982
   94MOL   H16922675   4.948   2.765   5.847 -0.1774 -0.1301  0.4713
   94MOL   C17022676   5.009   2.504   5.716 -1.1560 -0.5048  0.2555
   94MOL   C17122677   4.892   2.538   5.627  0.3705 -0.1790 -0.2631
   94MOL   C17222678   4.763   2.453   5.670  0.0147  0.3908  0.1975
   94MOL   C17322679   4.711   2.479   5.806 -0.6492  0.3545 -0.9185
   94MOL   H17422680   4.979   2.514   5.821 -1.6368 -0.3014  0.0994
   94MOL   H17522681   5.040   2.400   5.707  0.3290 -0.2455  2.0916
   94MOL   H17622682   4.868   2.643   5.643  1.3971 -0.0501  0.4748
   94MOL   H17722683   4.804   2.352   5.674 -3.5517 -1.0931  0.5871
   94MOL   H17822684   4.685   2.463   5.595  1.3444  0.9942 -1.1371
   94MOL   H17922685   4.779   2.429   5.875 -3.3106 -1.7199  0.2852
   94MOL   H18022686   4.693   2.582   5.835 -1.2507 -0.3224  1.1968
   94MOL   H18122687   4.620   2.422   5.826 -0.3956  0.1707 -0.2712
   94MOL   C18222688   4.929   2.531   5.482  0.2904  0.1448  0.5360
   94MOL   C18322689   4.982   2.396   5.417  0.3398  0.4680 -0.6014
   94MOL   C18422690   5.082   2.425   5.306 -0.1490  0.5266  0.1639
   94MOL   C18522691   5.217   2.491   5.346  0.4467 -0.5005 -0.8448
   94MOL   H18622692   5.004   2.610   5.471  0.2586  0.1174  0.1071
   94MOL   H18722693   4.850   2.570   5.418  1.0774  1.3628  0.2935
   94MOL   H18822694   5.036   2.346   5.497 -1.0945 -0.8518 -0.4455
   94MOL   H18922695   5.034   2.502   5.245  2.6403  1.9135 -0.3330
   94MOL   H19022696   5.105   2.340   5.241  0.5144  0.6837  0.1963
   94MOL   H19122697   5.277   2.506   5.256  2.2305  1.0413  0.5383
   94MOL   H19222698   5.215   2.589   5.394  1.0963  0.3137 -2.4127
   94MOL   H19322699   5.265   2.407   5.397  1.8147  0.7184 -0.0775
   94MOL   C19422700   4.868   2.303   5.376  0.8704  0.5736  0.3340
   94MOL   C19522701   4.902   2.153   5.348  0.3452 -0.7141  0.3734
   94MOL   C19622702   4.779   2.094   5.275 -0.5205  0.0542 -0.1449
   94MOL   C19722703   4.786   2.079   5.121  0.0720 -0.3953  0.5909
   94MOL   H19822704   4.828   2.348   5.285  2.2002 -0.9712 -1.0546
   94MOL   H19922705   4.792   2.311   5.453  0.4909  0.5391 -0.0374
   94MOL   H20022706   4.988   2.150   5.281 -0.3244 -0.3829 -0.5194
   94MOL   H20122707   4.691   2.150   5.306 -0.5498 -0.8470  1.4524
   94MOL   H20222708   4.766   1.993   5.313  2.4866 -0.9177 -1.5869
   94MOL   H20322709   4.688   2.045   5.088  0.9009 -2.1741 -0.0886
   94MOL   H20422710   4.796   2.179   5.079  3.1188 -1.3864 -1.1959
   94MOL   H20522711   4.868   2.022   5.078 -0.2383  0.0447 -0.5956
   94MOL   C20622712   4.927   2.081   5.484 -0.3289  0.2331 -0.7163
   94MOL   C20722713   5.022   1.955   5.464 -0.2479  0.8698  0.0945
   94MOL   C20822714   5.001   1.859   5.582  0.5952  0.7386 -0.0002
   94MOL   C20922715   4.877   1.779   5.567 -0.6544  0.2542  0.2264
   94MOL   H21022716   4.833   2.037   5.519 -0.2738 -1.3078 -2.4332
   94MOL   H21122717   4.957   2.143   5.569 -0.0383  1.5844 -1.8003
   94MOL   H21222718   4.983   1.910   5.372  0.1784  0.6933  0.0009
   94MOL   H21322719   5.006   1.914   5.676  2.1663  1.1334 -0.3025
   94MOL   H21422720   5.082   1.790   5.603 -0.7662 -0.6272  0.8686
   94MOL   H21522721   4.846   1.726   5.657 -2.4180 -1.6560 -1.4674
   94MOL   H21622722   4.792   1.840   5.538  0.8588  2.1368 -0.3236
   94MOL   H21722723   4.891   1.711   5.482 -0.4997  0.0942  0.3778
   94MOL   C21822724   5.172   1.989   5.435  0.1070 -0.1124  0.5792
   94MOL   C21922725   5.244   2.092   5.531  0.1674 -0.4163  0.0637
   94MOL   C22022726   5.385   2.103   5.476  0.4286  0.0846  0.0083
   94MOL   C22122727   5.389   2.172   5.340 -0.4389  0.5085  0.4681
   94MOL   H22222728   5.176   2.024   5.332  1.1385 -0.0508  0.6281
   94MOL   H22322729   5.233   1.899   5.433 -1.9877 -1.5179 -1.6268
   94MOL   H22422730   5.200   2.191   5.515  3.5497  0.8532 -1.9431
   94MOL   H22522731   5.443   2.012   5.492  0.1920  0.1246  1.1967
   94MOL   H22622732   5.442   2.172   5.540  0.9782 -1.6948  1.4950
   94MOL   H22722733   5.301   2.188   5.278  0.0420  0.6142 -0.1962
   94MOL   H22822734   5.437   2.270   5.341 -0.6209  0.7267 -3.5221
   94MOL   H22922735   5.459   2.120   5.275 -0.3650  0.8242  0.2933
   94MOL   C23022736   5.241   2.054   5.677 -0.5090 -0.3113  0.6462
   94MOL   C23122737   5.291   2.168   5.776 -0.7751 -0.3823  0.3604
   94MOL   C23222738   5.288   2.132   5.923  0.4685  0.0759 -0.3271
   94MOL   C23322739   5.348   2.239   6.017 -0.3085  0.1539  0.0455
   94MOL   H23422740   5.280   1.955   5.700  0.3698  0.0305  0.6666
   94MOL   H23522741   5.139   2.050   5.717 -0.0540 -0.0086  1.8692
   94MOL   H23622742   5.396   2.185   5.752 -0.8852 -0.2884 -0.0458
   94MOL   H23722743   5.345   2.043   5.952  0.1454 -0.0183  0.0200
   94MOL   H23822744   5.185   2.130   5.957  0.6503 -0.2631  0.2163
   94MOL   H23922745   5.287   2.327   6.035  2.6098  1.5246  3.7509
   94MOL   H24022746   5.386   2.194   6.109 -1.8193  0.0786  0.6436
   94MOL   H24122747   5.441   2.282   5.981 -0.3465  0.2402  0.0500
   94MOL   H24222748   5.237   2.258   5.747  0.9750  0.6313  0.1453
   95MOL     C122749   7.577   4.267   2.494 -0.5210 -0.2381 -0.4960
   95MOL     C222750   7.556   4.149   2.593  0.8854  1.0154 -0.8287
   95MOL     C322751   7.418   4.151   2.670  0.0941  0.1411 -0.3355
   95MOL     C422752   7.301   4.200   2.585 -0.7014 -0.2666  0.0745
   95MOL     H522753   7.534   4.362   2.526 -0.4306 -0.9073  1.7196
   95MOL     H622754   7.681   4.296   2.474 -0.2776  1.1890  2.5923
   95MOL     H722755   7.545   4.065   2.524  0.1155  0.3285  0.1278
   95MOL     H822756   7.436   4.216   2.756  0.3600  1.2548 -1.2146
   95MOL     H922757   7.397   4.056   2.719  0.2792  0.4815  0.4192
   95MOL    H1022758   7.323   4.301   2.551  0.9429 -0.0042  1.8027
   95MOL    H1122759   7.289   4.128   2.503  0.8784 -0.7828  0.2710
   95MOL    H1222760   7.211   4.202   2.646 -0.6393 -2.4687  0.2886
   95MOL    H1322761   7.530   4.246   2.398 -0.2656  0.9508 -0.8905
   95MOL    C1422762   7.679   4.119   2.675 -0.2758  0.1403 -0.3050
   95MOL    C1522763   7.699   3.998   2.765  0.9074 -0.4739 -0.2702
   95MOL    C1622764   0.142   3.983   2.818 -0.3257 -0.0838 -0.1431
   95MOL    C1722765   0.194   4.091   2.919 -0.3703  0.1102 -1.0858
   95MOL    H1822766   7.691   4.200   2.748  1.8484  0.0082 -0.4589
   95MOL    H1922767   0.062   4.141   2.616 -0.2713 -0.9168 -0.6869
   95MOL    H2022768   7.636   3.999   2.854  1.3297 -1.7082  0.0510
   95MOL    H2122769   0.213   3.974   2.736 -1.1743 -0.0992 -0.8757
   95MOL    H2222770   0.142   3.890   2.875  1.0278 -0.3912 -0.6318
   95MOL    H2322771   0.299   4.077   2.944 -1.2345 -0.8007  2.3375
   95MOL    H2422772   0.191   4.191   2.876  0.1084  1.9968  3.0592
   95MOL    H2522773   0.142   4.089   3.015 -0.5909 -3.9526 -1.2244
   95MOL    C2622774   7.646   3.875   2.684 -0.1100  0.3586  0.0085
   95MOL    C2722775   7.638   3.728   2.746 -0.3618 -0.5126 -0.2075
   95MOL    C2822776   7.617   3.616   2.634  0.3647  0.5282 -0.0618
   95MOL    C2922777   0.044   3.555   2.577  0.1140 -0.2248  0.1220
   95MOL    H3022778   0.016   3.866   2.606 -1.7786  1.0603 -1.7544
   95MOL    H3122779   7.550   3.888   2.634 -1.1414 -0.9380  1.6003
   95MOL    H3222780   0.033   3.715   2.786 -1.3547 -2.5564  1.7159
   95MOL    H3322781   7.551   3.639   2.550  0.0422 -0.7252 -0.1525
   95MOL    H3422782   7.569   3.531   2.683  0.6629  0.5746  0.3166
   95MOL    H3522783   0.105   3.628   2.524  0.8445 -1.2073 -0.3947
   95MOL    H3622784   0.102   3.513   2.659 -1.6259  0.3498  1.6842
   95MOL    H3722785   0.039   3.479   2.500 -0.2214 -0.0505 -0.0297
   95MOL    C3822786   7.531   3.726   2.855 -0.1212  0.3083 -0.8207
   95MOL    C3922787   7.549   3.632   2.976 -0.8155 -0.1282 -0.1204
   95MOL    C4022788   7.535   3.481   2.933  1.0216 -0.3136  0.2669
   95MOL    C4122789   7.674   3.408   2.916 -0.0821 -0.0029 -0.4815
   95MOL    H4222790   7.439   3.702   2.802 -0.3335 -1.3759  0.2412
   95MOL    H4322791   7.516   3.826   2.896  0.9860  0.3158 -0.4261
   95MOL    H4422792   7.650   3.646   3.013 -0.1894  0.4760 -1.9934
   95MOL    H4522793   7.471   3.463   2.847  0.4276  0.0685  0.6275
   95MOL    H4622794   7.503   3.427   3.023  1.2069  0.3344  0.7239
   95MOL    H4722795   7.665   3.299   2.919 -0.5710  0.0473 -0.0225
   95MOL    H4822796   0.019   3.442   2.826  0.3026 -0.9431 -0.6223
   95MOL    H4922797   0.040   3.443   2.991  2.7343 -2.9344 -1.7178
   95MOL    C5022798   7.459   3.674   3.098 -0.3484 -0.6831 -0.1908
   95MOL    C5122799   7.517   3.805   3.161  0.2920 -0.2524 -0.1262
   95MOL    C5222800   7.549   3.772   3.308 -0.1639  0.0583  0.4175
   95MOL    C5322801   7.669   3.670   3.332 -0.8225  0.0183 -0.7583
   95MOL    H5422802   7.468   3.595   3.173 -1.1128 -3.8996 -3.3348
   95MOL    H5522803   7.355   3.678   3.068 -0.3038  0.2630 -0.2410
   95MOL    H5622804   7.606   3.843   3.109  0.5490 -2.0700 -1.0576
   95MOL    H5722805   7.463   3.730   3.359  0.0837 -1.2301 -0.1900
   95MOL    H5822806   7.578   3.861   3.364  1.5597 -0.1096 -0.1760
   95MOL    H5922807   0.051   3.699   3.275 -1.4074  1.5068 -0.9480
   95MOL    H6022808   7.677   3.656   3.440 -0.9424  0.5186 -0.6823
   95MOL    H6122809   7.642   3.576   3.284 -0.3161 -0.3665 -0.2859
   95MOL    C6222810   7.409   3.924   3.151 -0.7192  0.1630 -0.5826
   95MOL    C6322811   7.447   4.067   3.205  0.0370  0.1588  0.7858
   95MOL    C6422812   7.324   4.163   3.197  0.4397 -0.4535 -0.0474
   95MOL    C6522813   7.230   4.144   3.315  0.2115 -0.8954  0.4534
   95MOL    H6622814   7.319   3.892   3.203 -0.6771  1.6900  0.4660
   95MOL    H6722815   7.376   3.932   3.048 -0.0975  2.1687 -0.6396
   95MOL    H6822816   7.459   4.036   3.309  1.7867 -1.7736  0.0476
   95MOL    H6922817   7.258   4.142   3.112 -2.0403  2.0774  1.1806
   95MOL    H7022818   7.350   4.268   3.187 -1.2162 -0.0101  0.0772
   95MOL    H7122819   7.163   4.230   3.315  0.9571 -0.2830 -1.7838
   95MOL    H7222820   7.175   4.051   3.300 -0.5222 -0.7291  2.0040
   95MOL    H7322821   7.276   4.138   3.413 -0.2916  1.8584  0.9075
   95MOL    C7422822   7.573   4.132   3.133  0.7548  0.7547 -0.1211
   95MOL    C7522823   7.638   4.261   3.204 -0.1270  0.2812 -0.3061
   95MOL    C7622824   7.688   4.365   3.106 -0.0557  0.8167 -0.3224
   95MOL    C7722825   7.576   4.456   3.052 -0.0571  0.0560 -0.2715
   95MOL    H7822826   7.547   4.149   3.029 -2.0077  0.7233  0.5179
   95MOL    H7922827   7.647   4.052   3.138 -0.1234  0.0003  1.2024
   95MOL    H8022828   7.570   4.327   3.258 -0.0736 -1.0531  1.4255
   95MOL    H8122829   0.026   4.312   3.022  1.3557  2.3121 -0.5637
   95MOL    H8222830   0.050   4.439   3.149 -1.3469  2.0300 -0.3274
   95MOL    H8322831   7.624   4.532   2.991 -0.6336  0.2083 -0.5370
   95MOL    H8422832   7.522   4.381   2.994  0.8343 -1.0214  0.2561
   95MOL    H8522833   7.503   4.501   3.120 -1.3008 -0.6515 -1.1284
   95MOL    C8622834   0.059   4.231   3.296  0.1268  0.4079  0.5061
   95MOL    C8722835   0.038   4.133   3.411  0.3804  0.1018  0.0886
   95MOL    C8822836   7.633   4.175   3.514 -0.3952 -0.1772 -0.0110
   95MOL    C8922837   7.682   4.290   3.603 -0.2185 -0.1736 -0.2055
   95MOL    H9022838   0.112   4.315   3.342  1.2835 -0.2027  0.3139
   95MOL    H9122839   0.134   4.191   3.228 -0.9013  2.1982 -1.7350
   95MOL    H9222840   7.701   4.047   3.361 -0.4660  0.6172 -0.0755
   95MOL    H9322841   7.604   4.088   3.573  1.4483 -0.4588  0.5004
   95MOL    H9422842   7.538   4.205   3.469 -0.2764  0.9140  0.4558
   95MOL    H9522843   0.069   4.276   3.660 -0.8894  0.5939  1.1033
   95MOL    H9622844   7.692   4.375   3.536  1.7379  0.3316  0.6733
   95MOL    H9722845   7.602   4.321   3.669  0.6240 -1.0726  1.2786
   95MOL    C9822846   0.166   4.074   3.473 -0.0477  0.0420 -0.1617
   95MOL    C9922847   0.290   4.043   3.378  0.9151  0.3005  0.2748
   95MOL   C10022848   0.251   3.941   3.267 -0.5418 -0.1260  0.0656
   95MOL   C10122849   0.366   3.915   3.170  0.4093 -0.1386  0.6410
   95MOL   H10222850   0.123   3.980   3.508 -1.3031 -0.1623 -2.1872
   95MOL   H10322851   0.207   4.140   3.550 -1.4487 -0.1955  0.8052
   95MOL   H10422852   0.312   4.144   3.344  0.7880  0.2947  0.1754
   95MOL   H10522853   0.156   3.967   3.219 -0.4106 -2.2544 -1.4376
   95MOL   H10622854   0.235   3.845   3.317  0.0440  0.6696  1.8366
   95MOL   H10722855   0.338   3.842   3.094  1.9272  0.2132 -0.2776
   95MOL   H10822856   0.386   4.009   3.119 -1.6319 -1.5106 -2.7942
   95MOL   H10922857   0.456   3.876   3.219  1.6693 -1.7499 -2.7778
   95MOL   C11022858   0.414   4.002   3.462 -0.6200 -0.3357  0.2829
   95MOL   C11122859   0.549   4.059   3.415 -0.2536 -0.1871 -0.3597
   95MOL   C11222860   0.660   3.949   3.402  0.6610  0.2905  0.1754
   95MOL   C11322861   0.787   3.993   3.332 -0.0768 -0.9845 -0.2550
   95MOL   H11422862   0.427   3.894   3.456  1.3246 -0.1566  0.8164
   95MOL   H11522863   0.399   4.013   3.569 -2.4380 -1.3819  0.1656
   95MOL   H11622864   0.538   4.102   3.316 -2.3490  1.7958  0.6824
   95MOL   H11722865   0.614   3.859   3.360  0.6666  1.0836 -1.5684
   95MOL   H11822866   0.682   3.914   3.503  2.3650 -0.9852 -0.6146
   95MOL   H11922867   0.767   4.053   3.243 -1.7090  1.0843  1.4420
   95MOL   H12022868   0.845   4.054   3.402 -0.5911 -1.1651  0.3361
   95MOL   H12122869   0.846   3.904   3.311 -1.4066 -1.9349  0.0058
   95MOL   C12222870   0.608   4.176   3.505 -0.0530 -0.2296 -0.3075
   95MOL   C12322871   0.510   4.287   3.523 -0.4811 -0.2092  0.1735
   95MOL   C12422872   0.495   4.372   3.399 -0.3140 -0.0850  0.1649
   95MOL   C12522873   0.375   4.477   3.410  0.7864 -0.0434  0.3177
   95MOL   H12622874   0.698   4.219   3.460 -0.5032  1.3773  0.3127
   95MOL   H12722875   0.640   4.127   3.597 -0.3025 -0.8137 -0.5288
   95MOL   H12822876   0.409   4.250   3.540 -2.2868  3.7980 -1.2332
   95MOL   H12922877   0.481   4.304   3.315 -2.5006  0.5017  0.0330
   95MOL   H13022878   0.588   4.427   3.382  0.8346 -2.3686 -1.0938
   95MOL   H13122879   0.387   4.548   3.492 -0.8771 -0.1338  0.6468
   95MOL   H13222880   0.385   4.545   3.325  1.9849 -1.7364 -0.9430
   95MOL   H13322881   0.280   4.424   3.401 -1.3142  3.6746 -0.0198
   95MOL   C13422882   0.554   4.391   3.634  0.2548 -0.3871 -0.5611
   95MOL   C13522883   0.520   4.341   3.777 -0.0795 -0.0761  0.2061
   95MOL   C13622884   0.364   4.352   3.795  0.1667  0.3052 -0.2266
   95MOL   C13722885   0.309   4.285   3.919  0.0861 -0.9078 -0.7540
   95MOL   H13822886   0.524   4.496   3.633  2.5286  0.2945  0.5746
   95MOL   H13922887   0.663   4.397   3.631  0.4231 -2.3876  0.4092
   95MOL   H14022888   0.541   4.234   3.786 -0.6802 -0.2154 -0.0419
   95MOL   H14122889   0.311   4.302   3.714  0.9968 -2.4819  0.8657
   95MOL   H14222890   0.333   4.455   3.809  1.6851  0.7182  0.1955
   95MOL   H14322891   0.347   4.347   4.000 -2.4574  1.5520 -1.3633
   95MOL   H14422892   0.201   4.298   3.915  0.3046  1.1703 -0.9145
   95MOL   H14522893   0.344   4.184   3.939 -1.3151 -1.1746  0.4220
   95MOL   C14622894   0.605   4.415   3.878 -0.3770  0.1905 -0.3331
   95MOL   C14722895   0.757   4.374   3.891 -1.0157 -0.4475 -0.8912
   95MOL   C14822896   0.766   4.227   3.931  0.0799 -0.0484  0.7557
   95MOL   C14922897   0.910   4.175   3.924  0.0469  0.0003 -0.5233
   95MOL   H15022898   0.545   4.403   3.969  1.6700 -2.1863  0.7577
   95MOL   H15122899   0.605   4.522   3.855  0.7258 -0.0316 -1.4040
   95MOL   H15222900   0.786   4.376   3.786  0.0216  2.3529 -0.5872
   95MOL   H15322901   0.716   4.170   3.853  1.6988  1.2646 -1.2885
   95MOL   H15422902   0.722   4.222   4.031 -0.8043 -1.2788  0.3260
   95MOL   H15522903   0.959   4.204   3.831 -3.5269 -0.4172 -2.6351
   95MOL   H15622904   0.967   4.229   4.000 -1.1264  0.0545  0.3258
   95MOL   H15722905   0.923   4.069   3.945 -4.5630 -0.3718  0.8380
   95MOL   C15822906   0.843   4.467   3.984 -0.6120  0.1451 -0.5628
   95MOL   C15922907   0.842   4.620   3.939 -0.1939  1.1432  0.2579
   95MOL   C16022908   0.886   4.650   3.795 -0.9556  0.2255 -0.1946
   95MOL   C16122909   0.857   4.793   3.748 -0.3068 -0.5824 -0.6011
   95MOL   H16222910   0.946   4.434   3.981 -0.7731 -0.4515  0.2974
   95MOL   H16322911   0.810   4.459   4.088 -0.9762  0.8254 -0.6200
   95MOL   H16422912   0.737   4.649   3.942 -0.4121  0.2990  1.0217
   95MOL   H16522913   0.827   4.585   3.730 -0.2812 -0.2302 -0.3571
   95MOL   H16622914   0.992   4.631   3.775 -0.9324  0.9954 -0.8300
   95MOL   H16722915   0.862   4.813   3.641 -1.2264  1.1621 -0.3303
   95MOL   H16822916   0.754   4.811   3.776  0.9869  2.4107  2.4600
   95MOL   H16922917   0.918   4.868   3.798  1.4987 -3.0167  1.0042
   95MOL   C17022918   0.924   4.699   4.042 -0.5117  0.1584 -0.0375
   95MOL   C17122919   0.851   4.767   4.159  0.7113 -0.6363 -0.4353
   95MOL   C17222920   0.809   4.910   4.141  0.0913  0.1237 -0.1307
   95MOL   C17322921   0.692   4.955   4.236 -0.0537 -0.2642 -0.4826
   95MOL   H17422922   0.976   4.781   3.992  1.8290 -1.4642 -0.3598
   95MOL   H17522923   1.004   4.632   4.072 -2.0071 -1.6948 -0.0580
   95MOL   H17622924   0.767   4.697   4.161  2.2204 -2.4854  2.1645
   95MOL   H17722925   0.777   4.930   4.039 -0.9087 -0.5035  0.0508
   95MOL   H17822926   0.898   4.970   4.161 -0.5984  1.5544 -1.2277
   95MOL   H17922927   0.604   4.891   4.234 -1.0350  0.9862  1.4245
   95MOL   H18022928   0.719   4.973   4.340  1.1357  0.2051 -0.8671
   95MOL   H18122929   0.679   5.056   4.197 -0.8155 -1.1590 -2.6395
   95MOL   C18222930   0.935   4.746   4.286  0.6006 -0.6915 -0.4504
   95MOL   C18322931   1.071   4.812   4.303  0.2691 -0.1108 -0.5508
   95MOL   C18422932   1.192   4.712   4.332 -0.3952 -0.3145 -0.5434
   95MOL   C18522933   1.223   4.603   4.224  0.6051  0.8702 -0.2025
   95MOL   H18622934   0.948   4.638   4.291  2.1942 -0.5109 -0.4809
   95MOL   H18722935   0.869   4.779   4.366  1.3703  0.9515 -0.4827
   95MOL   H18822936   1.098   4.864   4.211  1.8981  0.8764  0.4581
   95MOL   H18922937   1.181   4.674   4.433  0.6658  0.0547 -0.2891
   95MOL   H19022938   1.287   4.764   4.336 -0.4600 -0.1411 -1.2151
   95MOL   H19122939   1.130   4.552   4.196  0.4444  0.4179  1.1399
   95MOL   H19222940   1.268   4.651   4.137 -1.1376  1.3344 -0.8724
   95MOL   H19322941   1.301   4.530   4.244 -1.5787 -0.1841  5.2548
   95MOL   C19422942   1.061   4.927   4.409  0.4637 -0.3234 -0.6465
   95MOL   C19522943   1.184   5.023   4.434  0.5399  0.0887  0.2316
   95MOL   C19622944   1.154   5.102   4.562 -0.1255  0.3568 -0.2450
   95MOL   C19722945   1.157   5.019   4.687 -0.1206 -0.1403 -0.2210
   95MOL   H19822946   1.032   4.882   4.504 -0.2186  1.2920 -0.0744
   95MOL   H19922947   0.981   4.994   4.379  1.0543 -0.1366 -1.8365
   95MOL   H20022948   1.274   4.965   4.455  0.9162  0.2391 -0.9121
   95MOL   H20122949   1.062   5.156   4.538 -0.7508 -1.2816 -1.7113
   95MOL   H20222950   1.237   5.170   4.576 -0.2467  0.3556  0.4834
   95MOL   H20322951   1.229   4.938   4.682  1.1362  1.0241 -1.1299
   95MOL   H20422952   1.174   5.073   4.781  0.7170  0.1041 -0.5109
   95MOL   H20522953   1.059   4.971   4.697  0.0463 -0.2301  1.1979
   95MOL   C20622954   1.213   5.118   4.322  0.1263 -1.2238  0.6163
   95MOL   C20722955   1.310   5.086   4.213 -0.0014 -0.2171  0.2233
   95MOL   C20822956   1.457   5.076   4.254 -0.3086 -0.5824  1.0981
   95MOL   C20922957   1.550   4.995   4.151 -0.0198 -0.9211  0.7203
   95MOL   H21022958   1.247   5.215   4.359  0.1103  0.4057 -3.3790
   95MOL   H21122959   1.114   5.138   4.280  1.0791 -1.4173 -1.7758
   95MOL   H21222960   1.282   4.994   4.162  0.6790 -0.5674  0.4753
   95MOL   H21322961   1.472   5.027   4.350  0.4836  0.1950  1.3749
   95MOL   H21422962   1.506   5.173   4.259  3.2649 -2.3543  1.8852
   95MOL   H21522963   1.536   5.031   4.050  3.2419 -0.0273  0.5454
   95MOL   H21622964   1.655   4.998   4.179 -0.1181 -1.1320  1.1223
   95MOL   H21722965   1.519   4.890   4.150 -3.3993 -0.0026 -3.2922
   95MOL   C21822966   1.298   5.197   4.101  0.4857  0.0321 -0.2444
   95MOL   C21922967   1.172   5.200   4.009  0.3819 -0.3446  0.2874
   95MOL   C22022968   1.145   5.066   3.927 -0.1753 -0.4188 -1.0807
   95MOL   C22122969   1.264   5.010   3.847 -0.7426  0.5959  0.1055
   95MOL   H22222970   1.385   5.198   4.036  1.5960  1.0671  1.2083
   95MOL   H22322971   1.307   5.289   4.160 -0.9860 -0.3649  0.6200
   95MOL   H22422972   1.089   5.211   4.079 -1.1476 -1.5346 -1.2823
   95MOL   H22522973   1.060   5.086   3.862  0.2231  1.8463 -0.9484
   95MOL   H22622974   1.111   4.994   4.002  1.5492 -4.1202 -3.6849
   95MOL   H22722975   1.275   5.067   3.755 -2.5874  3.1084  1.3840
   95MOL   H22822976   1.362   5.013   3.894  0.1598 -0.4803 -1.6860
   95MOL   H22922977   1.251   4.904   3.824  0.9642  0.6775 -1.2722
   95MOL   C23022978   1.164   5.320   3.917  0.2963  0.3178 -0.1607
   95MOL   C23122979   1.151   5.454   3.989  0.2293  0.4286  0.1610
   95MOL   C23222980   1.159   5.567   3.881 -0.1753 -0.1106 -0.0624
   95MOL   C23322981   1.143   5.711   3.941 -0.0825  0.1494  0.7763
   95MOL   H23422982   1.081   5.312   3.847  0.0564 -1.7227  0.3185
   95MOL   H23522983   1.253   5.329   3.854  0.1546  2.9312 -0.0229
   95MOL   H23622984   1.052   5.455   4.035  0.2016 -1.0436  0.1550
   95MOL   H23722985   1.070   5.556   3.819  1.2326  1.4794 -2.4465
   95MOL   H23822986   1.249   5.567   3.819  1.5269  0.5234  2.3077
   95MOL   H23922987   1.078   5.699   4.028  0.0327 -2.0408  0.5818
   95MOL   H24022988   1.235   5.759   3.975 -1.5153  2.1542  1.9879
   95MOL   H24122989   1.099   5.775   3.865  1.1849  0.4639  0.3070
   95MOL   H24222990   1.216   5.469   4.075  0.6727 -0.1002 -0.0802
   96MOL     C122991   4.234   3.271   0.595 -0.5582  0.2123 -1.2086
   96MOL     C222992   4.166   3.408   0.612 -0.8082 -0.2191 -0.6233
   96MOL     C322993   4.258   3.507   0.683  0.2542 -0.0174  0.0756
   96MOL     C422994   4.385   3.556   0.605  0.1196  0.2676  0.8438
   96MOL     H522995   4.160   3.209   0.544 -2.3180  2.2840 -1.2619
   96MOL     H622996   4.324   3.277   0.534  0.1931  0.1972 -0.1107
   96MOL     H722997   4.147   3.451   0.514  1.4383  0.8203 -0.6283
   96MOL     H822998   4.299   3.456   0.771  0.1274 -0.3333 -0.0473
   96MOL     H922999   4.197   3.589   0.721 -0.9732  0.2243 -2.3717
   96MOL    H1023000   4.365   3.635   0.531 -2.2193 -2.0671 -1.1264
   96MOL    H1123001   4.455   3.593   0.680  1.1485  2.1502 -0.9881
   96MOL    H1223002   4.429   3.465   0.564 -0.2890  0.1556  0.6511
   96MOL    H1323003   4.266   3.234   0.692  2.3040  0.2030 -2.1017
   96MOL    C1423004   4.032   3.387   0.681  1.0360 -0.0183 -0.7483
   96MOL    C1523005   3.943   3.512   0.672 -0.3054 -0.0378 -0.2707
   96MOL    C1623006   3.867   3.560   0.806 -0.2735  0.5671  0.2761
   96MOL    C1723007   3.954   3.649   0.904  0.1550  0.1935 -0.3094
   96MOL    H1823008   4.061   3.368   0.784  0.4824  2.4945 -0.0861
   96MOL    H1923009   3.976   3.299   0.652  0.2976 -0.2188  1.2294
   96MOL    H2023010   4.012   3.594   0.650 -0.1542  0.3416  1.5397
   96MOL    H2123011   3.832   3.474   0.863  2.8710 -1.3578 -0.5430
   96MOL    H2223012   3.779   3.615   0.774 -2.9733 -2.7856  1.6191
   96MOL    H2323013   4.053   3.607   0.923 -1.0721 -2.5491  0.2441
   96MOL    H2423014   3.965   3.751   0.867 -0.4908  0.3826  0.0092
   96MOL    H2523015   3.915   3.639   1.005  1.1878  1.2352  0.2043
   96MOL    C2623016   3.841   3.496   0.558 -0.2557 -0.2102 -0.1711
   96MOL    C2723017   3.792   3.632   0.501 -0.1499  0.8184 -0.2114
   96MOL    C2823018   3.659   3.627   0.422 -0.1480  0.3207  0.2274
   96MOL    C2923019   3.635   3.497   0.353  0.7772 -0.3362  0.3302
   96MOL    H3023020   3.754   3.438   0.587 -0.8791  0.5538 -0.5118
   96MOL    H3123021   3.883   3.442   0.473  1.5057 -0.7197  0.9895
   96MOL    H3223022   3.771   3.705   0.580 -2.1732 -0.4384  0.4349
   96MOL    H3323023   3.657   3.712   0.354 -0.2183  0.5285  0.4930
   96MOL    H3423024   3.570   3.638   0.484 -0.2613 -1.3815  0.4093
   96MOL    H3523025   3.541   3.494   0.296  1.3426 -0.5969 -0.6037
   96MOL    H3623026   3.720   3.474   0.288 -0.9680 -2.0101 -1.4311
   96MOL    H3723027   3.607   3.417   0.421 -1.8129  0.0143 -0.2426
   96MOL    C3823028   3.909   3.694   0.405 -0.0681 -0.1969 -0.3146
   96MOL    C3923029   3.932   3.850   0.397 -0.3493 -0.2596 -1.0058
   96MOL    C4023030   4.034   3.881   0.283 -0.5474 -0.2789 -0.5603
   96MOL    C4123031   4.179   3.831   0.305  0.0158 -0.2440 -0.1458
   96MOL    H4223032   3.890   3.658   0.304 -2.2503  0.7485 -0.2888
   96MOL    H4323033   3.998   3.641   0.437 -0.6313 -1.3376 -0.5899
   96MOL    H4423034   3.833   3.889   0.376 -0.0678  1.1060  0.1032
   96MOL    H4523035   4.040   3.988   0.269  0.6473 -0.3034 -0.2296
   96MOL    H4623036   3.996   3.843   0.188  0.0237  0.9771 -1.2984
   96MOL    H4723037   4.177   3.728   0.343 -2.9228 -0.1342  0.1187
   96MOL    H4823038   4.234   3.826   0.211  1.4207  1.1431  0.5775
   96MOL    H4923039   4.240   3.888   0.375  0.2704 -0.6435 -0.0390
   96MOL    C5023040   3.970   3.927   0.527 -0.0552  0.2835  0.1620
   96MOL    C5123041   3.972   4.081   0.529  0.4546 -0.1160 -0.5641
   96MOL    C5223042   4.118   4.123   0.542  0.3445 -0.7670  0.2928
   96MOL    C5323043   4.142   4.277   0.516 -0.3345 -0.5011 -0.4016
   96MOL    H5423044   4.063   3.874   0.549 -1.3947 -4.1497 -3.8960
   96MOL    H5523045   3.906   3.901   0.611 -1.2290 -0.1140 -0.8379
   96MOL    H5623046   3.957   4.134   0.435 -0.5233 -0.3455 -0.5463
   96MOL    H5723047   4.182   4.078   0.467  1.6739  0.3260  0.7447
   96MOL    H5823048   4.162   4.091   0.637 -1.1684  0.3390  1.3980
   96MOL    H5923049   4.111   4.342   0.597  1.8772  0.2042 -0.0831
   96MOL    H6023050   4.245   4.313   0.507 -0.5348 -0.4465 -2.9659
   96MOL    H6123051   4.086   4.310   0.428 -0.1070  2.6469  0.5641
   96MOL    C6223052   3.879   4.140   0.637  0.8905  0.3091 -0.4301
   96MOL    C6323053   3.728   4.157   0.596 -0.0129  0.3156  0.2655
   96MOL    C6423054   3.704   4.280   0.504  0.4006 -0.1482 -0.3646
   96MOL    C6523055   3.730   4.417   0.580  0.3886  0.5928  0.1482
   96MOL    H6623056   3.918   4.241   0.654 -1.5766  1.3496 -0.7211
   96MOL    H6723057   3.891   4.085   0.731 -0.2028 -1.1406 -1.1184
   96MOL    H6823058   3.706   4.071   0.534 -0.0075  1.1185 -0.8698
   96MOL    H6923059   3.599   4.266   0.480 -0.0138  1.0175  0.7088
   96MOL    H7023060   3.763   4.270   0.413 -0.3053 -2.4168 -0.6023
   96MOL    H7123061   3.826   4.424   0.632  0.0041  3.2538  0.5496
   96MOL    H7223062   3.737   4.501   0.512  4.0475  0.3740  0.1099
   96MOL    H7323063   3.647   4.445   0.644  0.3540  1.3565 -0.2305
   96MOL    C7423064   3.633   4.168   0.719 -0.0191 -0.5032 -0.4720
   96MOL    C7523065   3.599   4.030   0.780  0.2941  0.2738 -0.1069
   96MOL    C7623066   3.507   3.945   0.688  0.6498  0.3414  1.0667
   96MOL    C7723067   3.504   3.796   0.719 -0.9511 -0.4074 -0.3670
   96MOL    H7823068   3.535   4.202   0.683 -0.6446 -2.3202 -0.5689
   96MOL    H7923069   3.662   4.243   0.792  3.3575 -2.3570  0.1948
   96MOL    H8023070   3.696   3.980   0.786 -0.6650 -1.3254  3.7789
   96MOL    H8123071   3.531   3.967   0.584 -0.1731 -2.4742  0.2555
   96MOL    H8223072   3.406   3.985   0.690  0.7888  0.7024  1.0581
   96MOL    H8323073   3.605   3.765   0.746  0.0111  2.3755 -0.6070
   96MOL    H8423074   3.448   3.774   0.810  2.7747 -0.0403  2.1212
   96MOL    H8523075   3.472   3.729   0.639 -1.4321  0.5829 -1.0129
   96MOL    C8623076   3.548   4.046   0.920  0.2330  0.5804 -0.6616
   96MOL    C8723077   3.660   4.076   1.024  0.3197  0.3476  0.3224
   96MOL    C8823078   3.751   3.957   1.042 -0.3749 -0.1193  0.9006
   96MOL    C8923079   3.887   3.976   1.111  0.4835 -0.5965  0.2732
   96MOL    H9023080   3.482   3.965   0.952  0.5709  0.3695 -0.4970
   96MOL    H9123081   3.487   4.136   0.920  0.4457  0.7564  1.8487
   96MOL    H9223082   3.721   4.161   0.994 -1.5317  1.5180 -0.1820
   96MOL    H9323083   3.778   3.916   0.944  0.3538 -1.7155  1.7431
   96MOL    H9423084   3.690   3.883   1.095 -0.8025 -0.4610 -0.0556
   96MOL    H9523085   3.936   3.878   1.112  3.5517  0.8922  2.0895
   96MOL    H9623086   3.942   4.046   1.048  2.9468 -1.1526  1.7424
   96MOL    H9723087   3.887   4.016   1.212 -1.5909  1.9576 -0.6950
   96MOL    C9823088   3.595   4.111   1.164  0.0251  0.3128 -0.2581
   96MOL    C9923089   3.502   4.237   1.169 -0.9603  0.3621 -0.3210
   96MOL   C10023090   3.568   4.373   1.126 -0.2631 -0.0368  0.2084
   96MOL   C10123091   3.466   4.474   1.076  0.0181 -0.4829  0.1919
   96MOL   H10223092   3.677   4.133   1.232 -1.6180  1.8478  1.2755
   96MOL   H10323093   3.544   4.026   1.208 -1.4985  1.0215 -0.6111
   96MOL   H10423094   3.418   4.223   1.101 -1.3382 -0.3813  0.2954
   96MOL   H10523095   3.647   4.373   1.052  1.5635  2.6123  2.0870
   96MOL   H10623096   3.620   4.413   1.213  1.8758 -2.3949  0.0724
   96MOL   H10723097   3.392   4.418   1.019  0.1434  1.6938 -2.1938
   96MOL   H10823098   3.418   4.516   1.164  4.0379  2.1383  1.2882
   96MOL   H10923099   3.514   4.557   1.023 -1.1188  0.4218  0.5485
   96MOL   C11023100   3.446   4.260   1.314 -0.3745  0.4373  0.3108
   96MOL   C11123101   3.336   4.161   1.370 -0.0889  0.1340  0.3524
   96MOL   C11223102   3.201   4.226   1.335  0.1285  0.1557 -0.2012
   96MOL   C11323103   3.078   4.129   1.346  0.5607 -0.4768  0.3964
   96MOL   H11423104   3.400   4.359   1.306  1.1906  1.1686  0.1770
   96MOL   H11523105   3.538   4.258   1.373  0.4557  1.6703 -0.9202
   96MOL   H11623106   3.340   4.064   1.320  1.6099  0.3020  0.1137
   96MOL   H11723107   3.199   4.264   1.233 -0.9580 -0.1372 -0.2952
   96MOL   H11823108   3.175   4.308   1.402  0.0687  0.1204 -0.1807
   96MOL   H11923109   3.073   4.069   1.437  1.1478 -1.3180 -0.1181
   96MOL   H12023110   2.986   4.186   1.343 -0.2429 -1.7210  1.0959
   96MOL   H12123111   3.070   4.063   1.260 -0.2946 -0.8352  0.7483
   96MOL   C12223112   3.342   4.138   1.521 -0.0127 -0.4518  0.7552
   96MOL   C12323113   3.440   4.036   1.587 -0.3032  0.2291 -0.5183
   96MOL   C12423114   3.590   4.084   1.577  0.8429 -0.1735 -0.1203
   96MOL   C12523115   3.681   4.006   1.671 -0.5380  0.4186  0.3323
   96MOL   H12623116   3.247   4.105   1.562 -0.3550  2.6483  2.5347
   96MOL   H12723117   3.347   4.238   1.564 -1.5453 -0.2069  0.3881
   96MOL   H12823118   3.414   4.050   1.692  0.1665 -2.1598 -0.0432
   96MOL   H12923119   3.596   4.191   1.598 -1.9219  0.0103 -0.0631
   96MOL   H13023120   3.623   4.075   1.473  0.8109 -2.0410  0.0316
   96MOL   H13123121   3.761   4.072   1.702  0.2773 -1.1966  1.7449
   96MOL   H13223122   3.622   3.977   1.758 -0.1577  1.6118  1.0021
   96MOL   H13323123   3.722   3.921   1.618 -1.2467  0.8992 -1.0241
   96MOL   C13423124   3.430   3.892   1.544  0.4378 -0.1594 -0.3054
   96MOL   C13523125   3.299   3.828   1.561 -0.3417 -0.4150 -0.6328
   96MOL   C13623126   3.252   3.824   1.712 -0.1542 -0.2613 -0.7398
   96MOL   C13723127   3.112   3.893   1.744  0.4698  0.0418 -0.7422
   96MOL   H13823128   3.506   3.826   1.586  0.2744 -0.8191 -1.0282
   96MOL   H13923129   3.458   3.898   1.439  0.5309  0.1688 -0.2613
   96MOL   H14023130   3.233   3.888   1.498  3.0198  3.1467 -0.9303
   96MOL   H14123131   3.323   3.862   1.785 -1.7154  1.6027 -0.1397
   96MOL   H14223132   3.241   3.719   1.740  3.4567  0.0940  2.2763
   96MOL   H14323133   3.083   3.865   1.845 -1.2163  0.9195 -0.9668
   96MOL   H14423134   3.094   4.001   1.737  0.7501  0.2281  1.1608
   96MOL   H14523135   3.030   3.861   1.680 -1.8955  1.1166  1.6383
   96MOL   C14623136   3.291   3.690   1.495  0.0893  0.8148  0.0187
   96MOL   C14723137   3.328   3.690   1.347 -0.7245  0.0874  0.0204
   96MOL   C14823138   3.217   3.751   1.259  0.1834  0.8072  0.4688
   96MOL   C14923139   3.272   3.804   1.130  0.8005  0.1029  0.0124
   96MOL   H15023140   3.191   3.653   1.516 -0.3034  0.2018 -2.6998
   96MOL   H15123141   3.370   3.631   1.542  0.1917  0.9343 -0.0048
   96MOL   H15223142   3.424   3.732   1.318 -0.8359  0.3594  0.0439
   96MOL   H15323143   3.179   3.841   1.308  0.1931  0.7740  0.5372
   96MOL   H15423144   3.138   3.679   1.235  0.2312  0.5882  0.9774
   96MOL   H15523145   3.335   3.893   1.134  1.2844 -0.2225 -0.3737
   96MOL   H15623146   3.322   3.720   1.082  1.0006 -0.9529  1.9774
   96MOL   H15723147   3.186   3.823   1.067  0.0792  0.6434  1.1363
   96MOL   C15823148   3.359   3.543   1.298 -0.3208  0.3950  0.5431
   96MOL   C15923149   3.484   3.470   1.347  0.0411  0.1265  0.2263
   96MOL   C16023150   3.612   3.558   1.351  0.0391  0.2591 -0.0681
   96MOL   C16123151   3.658   3.593   1.215  0.6545 -0.1827  0.2327
   96MOL   H16223152   3.362   3.547   1.189 -0.9289  0.9302  0.5446
   96MOL   H16323153   3.277   3.482   1.335 -0.6418  1.6461  1.9383
   96MOL   H16423154   3.463   3.454   1.453  2.4791  0.4414  0.7895
   96MOL   H16523155   3.690   3.506   1.406 -1.5673 -0.1225  1.9304
   96MOL   H16623156   3.601   3.658   1.392  1.2721  0.3350  0.0767
   96MOL   H16723157   3.576   3.624   1.151  0.5521  0.2319  0.5614
   96MOL   H16823158   3.723   3.680   1.224 -2.3623  2.0266  1.5111
   96MOL   H16923159   3.717   3.510   1.176  2.2306  0.7808  0.5123
   96MOL   C17023160   3.503   3.332   1.277 -0.0998  0.0639  0.4158
   96MOL   C17123161   3.434   3.212   1.354  0.5252 -0.1002 -0.6313
   96MOL   C17223162   3.513   3.080   1.362 -0.7410  0.3097 -0.0212
   96MOL   C17323163   3.549   2.993   1.239  0.7642 -0.0526 -0.2387
   96MOL   H17423164   3.610   3.324   1.256 -0.3750  0.1461 -1.0690
   96MOL   H17523165   3.469   3.345   1.174 -1.6947  1.9582  1.1315
   96MOL   H17623166   3.418   3.249   1.455 -0.6348  0.3146 -0.9614
   96MOL   H17723167   3.450   3.017   1.425  0.2060 -0.6408 -0.0189
   96MOL   H17823168   3.597   3.093   1.431 -0.2673 -1.1773 -0.3163
   96MOL   H17923169   3.615   2.910   1.266  2.1118  0.1364 -2.8862
   96MOL   H18023170   3.460   2.943   1.200  1.4575 -1.5525  0.0447
   96MOL   H18123171   3.603   3.042   1.158  1.3895 -1.0409 -0.4265
   96MOL   C18223172   3.285   3.185   1.305 -0.4069 -0.1486 -0.0001
   96MOL   C18323173   3.201   3.119   1.420 -0.0657  0.3586 -0.6167
   96MOL   C18423174   3.097   3.021   1.372  0.1371  1.0811 -0.2066
   96MOL   C18523175   2.977   3.085   1.298  0.7948  0.2736  0.4082
   96MOL   H18623176   3.288   3.116   1.221 -3.0322  1.2387 -1.2885
   96MOL   H18723177   3.234   3.276   1.274  0.4362 -0.3821 -2.1270
   96MOL   H18823178   3.259   3.045   1.476 -0.5565 -0.3211 -1.0003
   96MOL   H18923179   3.064   2.955   1.453 -0.2485  0.0142 -1.2194
   96MOL   H19023180   3.144   2.956   1.298 -0.1600 -2.3055  2.4260
   96MOL   H19123181   3.003   3.151   1.216 -1.1359 -2.6740 -2.7154
   96MOL   H19223182   2.916   3.013   1.243  2.5321 -0.8613 -0.0637
   96MOL   H19323183   2.909   3.135   1.368 -1.2920 -0.0753 -1.3089
   96MOL   C19423184   3.148   3.223   1.521  0.1785  0.1196 -0.2267
   96MOL   C19523185   3.127   3.174   1.665  0.3731  0.2634 -0.1932
   96MOL   C19623186   2.971   3.160   1.690 -0.2743 -0.2693 -0.3001
   96MOL   C19723187   2.925   3.082   1.814 -0.5077  0.8372  0.1423
   96MOL   H19823188   3.061   3.277   1.485  0.1890  0.3811  0.1428
   96MOL   H19923189   3.232   3.291   1.537 -0.7842  1.4339 -0.7077
   96MOL   H20023190   3.161   3.071   1.676 -0.5409  0.0120  0.3598
   96MOL   H20123191   2.937   3.108   1.601 -1.0704 -1.2803  0.5806
   96MOL   H20223192   2.916   3.252   1.674 -1.1096 -0.4062  1.6157
   96MOL   H20323193   2.981   2.990   1.831 -1.0192  0.4463 -0.2679
   96MOL   H20423194   2.943   3.138   1.905  0.2902 -0.5814  0.8732
   96MOL   H20523195   2.822   3.047   1.819  0.3973 -1.6796  1.8316
   96MOL   C20623196   3.197   3.258   1.770 -0.2991  0.1528 -0.1377
   96MOL   C20723197   3.351   3.222   1.782  0.7436  0.6518 -0.1602
   96MOL   C20823198   3.377   3.088   1.858  0.3692 -0.1993 -0.0787
   96MOL   C20923199   3.475   2.982   1.796  0.1667  0.6155 -0.6725
   96MOL   H21023200   3.155   3.239   1.869  1.6110  0.0953  0.6888
   96MOL   H21123201   3.184   3.364   1.748  0.4903  0.7056  1.9490
   96MOL   H21223202   3.387   3.209   1.680 -0.3012 -1.0277 -0.3470
   96MOL   H21323203   3.287   3.029   1.874  1.1096 -1.1246  0.7611
   96MOL   H21423204   3.389   3.118   1.962 -0.8031  2.1520 -0.5721
   96MOL   H21523205   3.461   2.969   1.688  3.3960 -1.5570 -0.9075
   96MOL   H21623206   3.583   2.999   1.802  0.1116  1.0495 -0.8892
   96MOL   H21723207   3.464   2.883   1.841  1.5907  0.8794  0.2685
   96MOL   C21823208   3.434   3.339   1.849 -0.5331 -0.3474  0.5250
   96MOL   C21923209   3.586   3.347   1.832  0.2866 -0.5838  0.2066
   96MOL   C22023210   3.632   3.493   1.866  0.6442  0.0919 -1.0311
   96MOL   C22123211   3.602   3.602   1.767  0.4511 -0.1952  0.0067
   96MOL   H22223212   3.423   3.352   1.957  1.6668  0.6924  0.6601
   96MOL   H22323213   3.398   3.430   1.803 -2.4397 -2.0218 -1.4087
   96MOL   H22423214   3.636   3.281   1.902  3.5647  0.8923 -0.6742
   96MOL   H22523215   3.740   3.480   1.867  0.8070  1.0885  3.8095
   96MOL   H22623216   3.614   3.520   1.970 -0.2405  0.6044 -1.3185
   96MOL   H22723217   3.664   3.691   1.769  0.6806 -0.3645  0.8367
   96MOL   H22823218   3.603   3.560   1.667 -0.0669 -0.3794  0.0754
   96MOL   H22923219   3.504   3.646   1.785  1.0721  1.7102 -1.1323
   96MOL   C23023220   3.634   3.298   1.693  0.2673 -0.3686 -0.2532
   96MOL   C23123221   3.789   3.287   1.677  0.5072 -0.0537 -0.5160
   96MOL   C23223222   3.836   3.214   1.548  0.3401  0.4681 -0.0830
   96MOL   C23323223   3.991   3.205   1.556  0.5302 -0.2874 -0.2751
   96MOL   H23423224   3.600   3.366   1.615 -0.2891  2.4138  2.3276
   96MOL   H23523225   3.598   3.198   1.670 -0.9389 -0.2790  1.1861
   96MOL   H23623226   3.831   3.387   1.682  2.1604 -0.7773  0.6878
   96MOL   H23723227   3.801   3.255   1.453 -0.0079 -0.5945 -0.4217
   96MOL   H23823228   3.791   3.115   1.559  2.1298 -0.0615  3.1103
   96MOL   H23923229   4.038   3.284   1.498 -3.6823  0.9053 -2.2244
   96MOL   H24023230   4.036   3.207   1.655 -0.9509  1.0273  0.3934
   96MOL   H24123231   4.016   3.105   1.520  0.6049 -0.2487 -0.3300
   96MOL   H24223232   3.832   3.237   1.765  1.5168 -1.6629 -1.8977
   97MOL     C123233   3.540   3.412   2.589 -0.0329 -0.9956  0.0469
   97MOL     C223234   3.498   3.404   2.441 -0.4295 -0.5852  0.1872
   97MOL     C323235   3.421   3.537   2.390  0.0495 -0.2083  0.7673
   97MOL     C423236   3.296   3.587   2.474 -0.0018  0.7007  0.3182
   97MOL     H523237   3.575   3.316   2.626  1.1437 -1.0212 -1.0865
   97MOL     H623238   3.620   3.486   2.584 -0.1283 -0.8884  0.1075
   97MOL     H723239   3.596   3.403   2.393 -0.6158  3.4897 -0.5212
   97MOL     H823240   3.387   3.520   2.288 -0.5299  0.2843  0.8762
   97MOL     H923241   3.487   3.623   2.379 -1.5349  0.9265 -0.0734
   97MOL    H1023242   3.334   3.623   2.569 -0.6528 -0.2999  0.9687
   97MOL    H1123243   3.236   3.664   2.426  0.5700 -0.1868 -1.8990
   97MOL    H1223244   3.219   3.510   2.480  0.1754  0.5519  0.7257
   97MOL    H1323245   3.463   3.443   2.661  0.3553 -1.4046  0.6385
   97MOL    C1423246   3.408   3.277   2.425  0.2834 -0.5275 -0.0104
   97MOL    C1523247   3.480   3.143   2.382  0.5749 -0.2561 -0.0927
   97MOL    C1623248   3.510   3.145   2.235  0.8801 -0.4503  0.3889
   97MOL    C1723249   3.578   3.015   2.180 -0.3051 -1.0292 -0.3891
   97MOL    H1823250   3.327   3.293   2.353  0.0438 -2.3084 -0.1451
   97MOL    H1923251   3.354   3.268   2.519 -0.2127  0.0709 -0.2332
   97MOL    H2023252   3.572   3.124   2.437  0.2545 -1.2331  0.1210
   97MOL    H2123253   3.575   3.232   2.224 -2.3755  1.8721 -1.4899
   97MOL    H2223254   3.419   3.159   2.176  0.1832  0.7735  1.7307
   97MOL    H2323255   3.643   3.025   2.093  1.6328 -0.8883  1.0416
   97MOL    H2423256   3.651   2.969   2.247 -0.5401 -0.5657  0.1816
   97MOL    H2523257   3.508   2.935   2.156 -1.0770 -0.8061  1.0761
   97MOL    C2623258   3.375   3.025   2.408 -0.3091  0.2974  0.2283
   97MOL    C2723259   3.329   3.003   2.549 -0.1773 -0.3302  0.8650
   97MOL    C2823260   3.438   2.938   2.632  0.4416 -0.5534  0.4327
   97MOL    C2923261   3.425   2.950   2.784  0.8414  0.2301  0.2839
   97MOL    H3023262   3.405   2.929   2.364  1.5054  1.3909 -0.9886
   97MOL    H3123263   3.285   3.050   2.353 -0.1210 -0.2329 -0.3310
   97MOL    H3223264   3.301   3.093   2.603  1.3781 -1.2564  3.2984
   97MOL    H3323265   3.532   2.989   2.610 -0.0695 -0.0298 -0.5448
   97MOL    H3423266   3.466   2.837   2.600 -1.8571 -0.6851 -1.2350
   97MOL    H3523267   3.329   2.909   2.817  1.0914  1.1472  2.2188
   97MOL    H3623268   3.503   2.896   2.838  0.2848  1.4756  2.4055
   97MOL    H3723269   3.431   3.053   2.817  1.4765  0.8959 -1.8830
   97MOL    C3823270   3.203   2.905   2.552 -0.4756 -0.0424 -0.2907
   97MOL    C3923271   3.102   2.950   2.660  0.6508 -0.3638  0.4163
   97MOL    C4023272   3.005   2.847   2.715 -0.5028  0.2914  0.0207
   97MOL    C4123273   3.080   2.746   2.798 -0.5855 -0.1050  0.2964
   97MOL    H4223274   3.247   2.806   2.568  0.2975  0.4986  1.0806
   97MOL    H4323275   3.173   2.909   2.447  2.1956  0.4176 -1.0824
   97MOL    H4423276   3.157   2.987   2.747  0.3658  2.1460 -0.4182
   97MOL    H4523277   2.962   2.798   2.627 -1.2730  0.6622  0.1817
   97MOL    H4623278   2.924   2.892   2.773 -1.7268 -2.0696  0.1847
   97MOL    H4723279   3.093   2.783   2.900 -0.9109  1.1834 -0.1306
   97MOL    H4823280   3.035   2.646   2.798 -0.4469 -0.2715 -4.9371
   97MOL    H4923281   3.181   2.723   2.763 -0.3218  0.1177  0.9049
   97MOL    C5023282   3.025   3.085   2.619 -0.2083  0.0548  0.3619
   97MOL    C5123283   2.972   3.169   2.736  0.2982  0.1950  1.0229
   97MOL    C5223284   2.836   3.237   2.700  0.1749 -0.0400 -0.7085
   97MOL    C5323285   2.721   3.141   2.704  0.2883  0.7285  0.6330
   97MOL    H5423286   2.942   3.045   2.561  1.7306 -1.2531 -1.5896
   97MOL    H5523287   3.084   3.145   2.550  0.1857 -0.6083  0.1233
   97MOL    H5623288   2.950   3.103   2.821 -1.2065 -1.3180 -0.4873
   97MOL    H5723289   2.857   3.273   2.599 -1.6782 -0.1994 -1.1617
   97MOL    H5823290   2.815   3.320   2.768 -1.5659 -1.1178  0.0960
   97MOL    H5923291   2.700   3.094   2.801 -1.4656 -1.3136 -0.6770
   97MOL    H6023292   2.627   3.192   2.680 -0.1722 -0.2343  0.3643
   97MOL    H6123293   2.747   3.060   2.636  0.5681 -0.3478  2.0051
   97MOL    C6223294   3.077   3.270   2.780 -0.1758 -0.5347  0.0692
   97MOL    C6323295   3.061   3.323   2.929  0.1529 -0.2225  0.7991
   97MOL    C6423296   3.107   3.472   2.942  0.2492  0.3919  0.2152
   97MOL    C6523297   3.246   3.506   2.868 -0.0386 -0.2434 -0.1222
   97MOL    H6623298   3.064   3.346   2.703  0.3948 -0.3878  0.1180
   97MOL    H6723299   3.178   3.238   2.754  0.1010  0.5301 -0.1776
   97MOL    H6823300   2.957   3.316   2.961 -0.4894 -1.5879 -1.5109
   97MOL    H6923301   3.107   3.501   3.048 -0.1566  0.5885  0.1619
   97MOL    H7023302   3.031   3.542   2.906  1.3415  1.7967  0.5777
   97MOL    H7123303   3.218   3.489   2.764 -0.4520 -1.3793  0.1633
   97MOL    H7223304   3.269   3.612   2.875  1.9039 -0.6470 -0.1266
   97MOL    H7323305   3.328   3.440   2.898 -2.0633 -2.2358  1.2622
   97MOL    C7423306   3.137   3.243   3.035 -0.8571  0.1201  0.4143
   97MOL    C7523307   3.117   3.267   3.185  0.4190  0.1152 -0.1769
   97MOL    C7623308   3.236   3.354   3.260  0.5174  0.1150 -0.2290
   97MOL    C7723309   3.354   3.263   3.279 -0.3926  0.7684  0.5054
   97MOL    H7823310   3.244   3.240   3.010 -0.9154  0.6946  0.0848
   97MOL    H7923311   3.106   3.142   3.010  1.1140 -0.5016  0.3638
   97MOL    H8023312   3.031   3.335   3.194  0.0055 -0.4722  0.3131
   97MOL    H8123313   3.204   3.388   3.359 -0.4544 -3.4876  0.7553
   97MOL    H8223314   3.257   3.447   3.208  1.4495 -0.0570 -0.1591
   97MOL    H8323315   3.403   3.253   3.183 -1.0797  0.0199  0.2304
   97MOL    H8423316   3.431   3.318   3.333  1.5288  1.4414 -2.7876
   97MOL    H8523317   3.334   3.172   3.335 -1.2068  0.0010 -1.0297
   97MOL    C8623318   3.073   3.148   3.267 -0.3968 -0.2376 -0.2252
   97MOL    C8723319   2.922   3.106   3.246 -0.0647 -0.1242 -0.2510
   97MOL    C8823320   2.822   3.206   3.315  0.0092  0.3880 -0.3820
   97MOL    C8923321   2.835   3.221   3.466 -0.2711 -0.4052  0.0450
   97MOL    H9023322   3.100   3.158   3.373 -1.8449 -1.5884  0.2938
   97MOL    H9123323   3.136   3.064   3.237 -0.6466 -0.4307 -0.2051
   97MOL    H9223324   2.901   3.104   3.139  0.2962  2.8882 -0.4305
   97MOL    H9323325   2.720   3.177   3.287  0.5399  0.2758 -2.3161
   97MOL    H9423326   2.828   3.307   3.273 -0.9533  0.7962  0.4316
   97MOL    H9523327   2.806   3.132   3.522 -0.4631 -0.9865 -0.9727
   97MOL    H9623328   2.939   3.247   3.488  0.0681 -0.3260 -1.5870
   97MOL    H9723329   2.769   3.303   3.495  0.2053  0.0336 -0.0987
   97MOL    C9823330   2.899   2.966   3.299 -0.4189  0.1705 -1.0836
   97MOL    C9923331   2.957   2.856   3.210 -0.1605  0.5865 -0.0259
   97MOL   C10023332   2.843   2.793   3.131  0.5516  0.0003  0.4687
   97MOL   C10123333   2.785   2.886   3.022  0.0084  0.4709  0.0019
   97MOL   H10223334   2.793   2.945   3.312 -0.4176  0.5830 -0.3152
   97MOL   H10323335   2.946   2.958   3.397  0.7421 -1.4231 -1.7505
   97MOL   H10423336   3.029   2.899   3.141  1.5996 -0.3181  1.2113
   97MOL   H10523337   2.759   2.763   3.193  0.9194 -1.2177  0.3848
   97MOL   H10623338   2.871   2.707   3.070  0.8686  0.9020 -0.6888
   97MOL   H10723339   2.706   2.953   3.055 -1.2850 -0.8096 -0.4472
   97MOL   H10823340   2.862   2.944   2.972 -1.1211  1.3610 -0.7295
   97MOL   H10923341   2.737   2.825   2.946 -0.0767  2.1604 -1.3126
   97MOL   C11023342   3.027   2.745   3.288 -0.1726  0.1508  0.3642
   97MOL   C11123343   3.179   2.775   3.321  0.7723 -0.1905  0.4233
   97MOL   C11223344   3.272   2.778   3.192  0.6456 -0.1529 -0.4269
   97MOL   C11323345   3.423   2.810   3.211  0.2058  0.3157 -0.0251
   97MOL   H11423346   3.030   2.650   3.233  0.7955  0.6994 -0.5438
   97MOL   H11523347   2.972   2.736   3.382 -0.6653  0.9286  0.1559
   97MOL   H11623348   3.191   2.873   3.366 -2.7213  0.2813  0.4288
   97MOL   H11723349   3.231   2.854   3.126 -0.4999 -0.9673 -0.6795
   97MOL   H11823350   3.261   2.681   3.144  1.3729 -0.2910 -0.3238
   97MOL   H11923351   3.480   2.741   3.273  0.3220  0.0819 -0.3917
   97MOL   H12023352   3.457   2.803   3.108 -1.1944  2.0254 -0.6323
   97MOL   H12123353   3.428   2.914   3.244  1.9037  0.5720 -1.0251
   97MOL   C12223354   3.225   2.672   3.425 -0.1361  0.1438  0.2179
   97MOL   C12323355   3.169   2.679   3.571 -0.3904 -0.6442  0.6743
   97MOL   C12423356   3.162   2.819   3.630 -1.3630 -0.0760  0.6016
   97MOL   C12523357   3.067   2.841   3.750 -0.4568  0.9019  0.2425
   97MOL   H12623358   3.325   2.704   3.455  0.4827 -1.4547 -0.0637
   97MOL   H12723359   3.242   2.579   3.371 -1.8040  1.1098 -2.0497
   97MOL   H12823360   3.066   2.644   3.570 -0.4003 -0.6305  1.1079
   97MOL   H12923361   3.117   2.889   3.559 -0.2146 -0.5376 -0.5983
   97MOL   H13023362   3.262   2.850   3.659 -0.7448 -0.3448 -1.1406
   97MOL   H13123363   2.975   2.783   3.744  0.3878 -0.5211  0.7674
   97MOL   H13223364   3.124   2.811   3.838 -1.0270  0.9475  0.6262
   97MOL   H13323365   3.038   2.945   3.762  0.9443  1.0755  2.4347
   97MOL   C13423366   3.241   2.597   3.675  0.3059  0.3195 -0.1573
   97MOL   C13523367   3.218   2.441   3.657 -0.1104  0.3690 -0.7186
   97MOL   C13623368   3.090   2.393   3.734  0.0697  0.1659 -0.3170
   97MOL   C13723369   2.953   2.454   3.707  0.2786  0.4464 -0.0196
   97MOL   H13823370   3.208   2.626   3.775  1.6929  1.9946 -0.1642
   97MOL   H13923371   3.347   2.616   3.660 -0.0689  1.4173 -1.5237
   97MOL   H14023372   3.202   2.424   3.550 -0.8289  0.9067 -0.7027
   97MOL   H14123373   3.104   2.409   3.841 -1.3432 -0.3170 -0.0468
   97MOL   H14223374   3.093   2.284   3.725  0.3385 -0.0173  1.6576
   97MOL   H14323375   2.934   2.435   3.601  3.5490 -1.4599 -0.3387
   97MOL   H14423376   2.886   2.401   3.775  1.6281 -1.5040 -0.1676
   97MOL   H14523377   2.946   2.561   3.721  1.5112  0.5570 -0.1503
   97MOL   C14623378   3.342   2.359   3.700  0.7906 -0.2016  0.3478
   97MOL   C14723379   3.395   2.242   3.613  0.0233  0.2573  0.3111
   97MOL   C14823380   3.293   2.126   3.578 -0.3706  0.1199 -0.6882
   97MOL   C14923381   3.253   2.048   3.703 -0.0734  0.5040  0.7390
   97MOL   H15023382   3.340   2.319   3.802  1.8458  1.3095  0.9955
   97MOL   H15123383   3.432   2.421   3.710  0.5279  0.4057 -0.9494
   97MOL   H15223384   3.429   2.290   3.522 -0.4052 -1.1568 -0.6232
   97MOL   H15323385   3.330   2.070   3.492  1.8776 -1.3719  1.1721
   97MOL   H15423386   3.205   2.173   3.535 -0.6760  0.0368 -0.1623
   97MOL   H15523387   3.180   1.973   3.673 -0.6842  1.8028 -1.0600
   97MOL   H15623388   3.332   1.983   3.742 -2.6893 -1.6514  2.6555
   97MOL   H15723389   3.196   2.098   3.781  1.3956  0.5294  1.8376
   97MOL   C15823390   3.519   2.181   3.685 -0.6938  0.2822  0.0943
   97MOL   C15923391   3.589   2.068   3.603 -0.6110 -0.0025 -0.8989
   97MOL   C16023392   3.689   1.987   3.699  0.3572  0.5264 -0.2343
   97MOL   C16123393   3.819   2.056   3.752  0.0962 -0.5032  0.3313
   97MOL   H16223394   3.505   2.136   3.783 -1.0318 -0.6704 -0.3804
   97MOL   H16323395   3.593   2.260   3.698 -3.3828  2.4713  2.8753
   97MOL   H16423396   3.510   1.999   3.575 -0.7315 -0.8113  1.3899
   97MOL   H16523397   3.735   1.906   3.642 -0.2171  0.9915 -1.3685
   97MOL   H16623398   3.643   1.930   3.780  2.3911  1.3551  1.5569
   97MOL   H16723399   3.876   1.985   3.812  1.5666 -0.6415 -1.1987
   97MOL   H16823400   3.880   2.062   3.662 -0.8792 -1.6089 -0.4271
   97MOL   H16923401   3.799   2.147   3.808  1.3430  1.7052 -2.6741
   97MOL   C17023402   3.660   2.137   3.490 -0.3984 -0.3945  0.3596
   97MOL   C17123403   3.737   2.052   3.386 -0.3720 -0.0970  0.1472
   97MOL   C17223404   3.826   2.128   3.285 -0.0511 -0.3843  0.0323
   97MOL   C17323405   3.925   2.224   3.358 -0.5121 -0.3211 -0.0087
   97MOL   H17423406   3.731   2.210   3.528  2.3670 -0.9277 -3.4517
   97MOL   H17523407   3.587   2.196   3.435 -0.6051 -0.9283  0.0603
   97MOL   H17623408   3.808   1.992   3.443 -0.3443 -0.0734  0.1372
   97MOL   H17723409   3.770   2.169   3.202 -0.4589  0.8501  0.9023
   97MOL   H17823410   3.895   2.053   3.246  1.3823  0.4339  0.9395
   97MOL   H17923411   4.018   2.251   3.308  0.9725 -1.8849  1.8129
   97MOL   H18023412   3.869   2.313   3.388  0.1159 -0.5386  1.8524
   97MOL   H18123413   3.962   2.182   3.451  0.6990  1.1689  0.1976
   97MOL   C18223414   3.629   1.967   3.309  0.7171  0.0219 -0.2197
   97MOL   C18323415   3.678   1.860   3.216 -0.1637  0.2158  0.5052
   97MOL   C18423416   3.563   1.823   3.116 -0.3337  0.6623  0.6615
   97MOL   C18523417   3.621   1.779   2.983 -0.3254  0.2377 -0.3998
   97MOL   H18623418   3.558   2.032   3.258  0.7443 -0.6771 -1.1611
   97MOL   H18723419   3.552   1.923   3.372  1.2679  2.1947  2.0297
   97MOL   H18823420   3.756   1.910   3.159  1.3411 -1.7475  0.7741
   97MOL   H18923421   3.490   1.901   3.095  0.2392  0.5651 -1.9009
   97MOL   H19023422   3.511   1.736   3.154 -2.7104  1.8493  0.2188
   97MOL   H19123423   3.546   1.725   2.925  0.3883 -0.6577 -0.5038
   97MOL   H19223424   3.668   1.859   2.926 -2.0927  1.0204 -0.7892
   97MOL   H19323425   3.696   1.701   2.996 -0.5921 -0.2372 -1.5730
   97MOL   C19423426   3.726   1.735   3.296 -0.2580  0.4944  0.6931
   97MOL   C19523427   3.868   1.684   3.266 -0.5759 -0.4116  0.2162
   97MOL   C19623428   3.870   1.532   3.243  0.2591  0.1071  0.3303
   97MOL   C19723429   3.872   1.450   3.372 -0.0380 -0.4173  0.0685
   97MOL   H19823430   3.653   1.656   3.283  0.8747 -0.0450 -2.8854
   97MOL   H19923431   3.724   1.757   3.403 -2.3805  1.7597  0.4259
   97MOL   H20023432   3.891   1.736   3.173 -3.3110 -1.0083 -0.8440
   97MOL   H20123433   3.962   1.517   3.187 -1.3931 -1.8067 -1.9465
   97MOL   H20223434   3.799   1.491   3.172  0.4646  0.9791 -0.3938
   97MOL   H20323435   3.785   1.469   3.435 -2.2194 -3.5238 -1.8898
   97MOL   H20423436   3.883   1.344   3.350  2.6024 -0.6840  2.2865
   97MOL   H20523437   3.967   1.477   3.419  0.0874 -0.2020 -0.3099
   97MOL   C20623438   3.978   1.736   3.369  0.5409  0.1948  0.0803
   97MOL   C20723439   4.129   1.708   3.333 -0.7679  0.4302 -0.4476
   97MOL   C20823440   4.211   1.784   3.435 -0.3518 -0.2512 -0.0917
   97MOL   C20923441   4.233   1.701   3.557  0.2266 -0.9403 -0.4251
   97MOL   H21023442   3.956   1.702   3.470  1.4332 -1.0462 -0.1254
   97MOL   H21123443   3.971   1.844   3.382  0.9326  0.2434 -0.1049
   97MOL   H21223444   4.149   1.601   3.343  0.8591  0.5955 -1.5830
   97MOL   H21323445   4.174   1.886   3.452  1.7779  0.5195 -0.0068
   97MOL   H21423446   4.309   1.813   3.399 -0.5653  0.0054 -0.4695
   97MOL   H21523447   4.140   1.706   3.614 -0.0421 -1.1628 -0.8486
   97MOL   H21623448   4.255   1.596   3.539 -0.0098 -1.3287  1.3675
   97MOL   H21723449   4.302   1.759   3.618 -1.8043 -1.6236  2.6539
   97MOL   C21823450   4.177   1.762   3.190 -0.0010  0.9945 -0.1360
   97MOL   C21923451   4.311   1.705   3.131  0.6195  0.0381 -0.5127
   97MOL   C22023452   4.348   1.783   3.003  0.1021  0.2356 -0.1039
   97MOL   C22123453   4.326   1.936   3.013 -0.8032  0.2858 -0.8273
   97MOL   H22223454   4.162   1.869   3.204 -2.4589  0.8544 -1.2856
   97MOL   H22323455   4.094   1.738   3.123  0.0493  1.2725 -0.2943
   97MOL   H22423456   4.393   1.723   3.202  0.8660  3.3573 -1.5757
   97MOL   H22523457   4.291   1.750   2.916 -0.5748  0.7151  0.1578
   97MOL   H22623458   4.455   1.766   2.991  0.6472  1.6585  2.3791
   97MOL   H22723459   4.226   1.977   3.022 -0.1746  1.4395  1.1363
   97MOL   H22823460   4.394   1.981   3.086 -0.7994 -1.5497  0.3489
   97MOL   H22923461   4.349   1.985   2.918  2.0413  2.5672  0.9479
   97MOL   C23023462   4.306   1.550   3.110  0.8629 -0.5068  0.5040
   97MOL   C23123463   4.434   1.504   3.042  0.5370  0.3269  0.7901
   97MOL   C23223464   4.475   1.358   3.067 -0.1095  0.4315  0.4522
   97MOL   C23323465   4.586   1.303   2.986 -0.2115  0.5174 -0.2773
   97MOL   H23423466   4.214   1.523   3.058 -0.4460  3.4316  0.6366
   97MOL   H23523467   4.284   1.512   3.209  0.0488 -2.5475 -0.4360
   97MOL   H23623468   4.417   1.491   2.935 -0.3084 -0.9541  1.0665
   97MOL   H23723469   4.391   1.291   3.050 -2.0284  2.7217  0.5322
   97MOL   H23823470   4.487   1.336   3.173 -2.8392 -2.7164  0.1908
   97MOL   H23923471   4.599   1.197   3.009  1.8905  0.6730 -0.6721
   97MOL   H24023472   4.573   1.308   2.878 -1.0857 -1.1936 -0.2722
   97MOL   H24123473   4.680   1.356   2.996  1.1230 -1.8387 -0.0412
   97MOL   H24223474   4.521   1.566   3.066  0.0795  1.4334 -0.3557
   98MOL     C123475   4.548   6.674   7.691 -0.3650  0.0601  0.2309
   98MOL     C223476   4.402   6.627   7.700 -0.0805 -0.2461  0.8175
   98MOL     C323477   4.328   6.667   7.564 -0.0775 -0.2002  0.8284
   98MOL     C423478   4.342   6.558   7.455  0.1645 -0.5000 -0.1314
   98MOL     H523479   4.550   6.782   7.674  2.0906 -0.1995 -1.3359
   98MOL     H623480   4.598   6.660   0.081  0.6752 -1.1948 -0.4896
   98MOL     H723481   4.391   6.519   7.704 -0.5812 -0.3629 -2.2044
   98MOL     H823482   4.373   6.754   7.516 -1.0593  0.8791  1.8362
   98MOL     H923483   4.223   6.674   7.593 -0.0995  1.0603  0.4542
   98MOL    H1023484   4.435   6.502   7.453  1.3327  1.2218  2.8574
   98MOL    H1123485   4.264   6.484   7.475 -0.0849  0.2861  1.8806
   98MOL    H1223486   4.325   6.602   7.356  1.6511 -1.6032 -0.9034
   98MOL    H1323487   4.607   6.613   7.623 -1.4885 -1.0004  0.1940
   98MOL    C1423488   4.338   6.686   0.120 -0.1333 -0.1176 -0.2069
   98MOL    C1523489   4.385   6.664   0.266  0.2764  0.2650 -0.8309
   98MOL    C1623490   4.401   6.510   0.299 -0.4851  0.1518 -0.5242
   98MOL    C1723491   4.493   6.480   0.430 -0.0873  1.1712 -0.5479
   98MOL    H1823492   4.232   6.664   0.122 -0.1581  0.0045 -0.1277
   98MOL    H1923493   4.326   6.793   0.100  1.1053 -0.3605 -2.4421
   98MOL    H2023494   4.489   6.697   0.272  0.3106 -0.0145  0.1371
   98MOL    H2123495   4.453   6.457   0.220 -1.0379 -1.2648  0.0512
   98MOL    H2223496   4.297   6.481   0.315 -0.6673  0.7418 -0.6364
   98MOL    H2323497   4.472   6.379   0.467 -3.5340  0.8382 -3.0766
   98MOL    H2423498   4.596   6.471   0.396  0.3606 -0.2674  1.0873
   98MOL    H2523499   4.498   6.549   0.513  0.6544  0.6419 -0.1456
   98MOL    C2623500   4.310   6.742   0.381 -0.0958  0.3757  0.2171
   98MOL    C2723501   4.288   6.899   0.384 -0.2827 -0.0689  0.7242
   98MOL    C2823502   4.405   6.990   0.352 -0.3735  0.5126  0.2093
   98MOL    C2923503   4.378   7.125   0.278 -0.4912  0.6681 -0.2223
   98MOL    H3023504   4.329   6.696   0.478  0.0240  1.2604  0.6255
   98MOL    H3123505   4.206   6.710   0.367 -0.1374  0.4775  0.2870
   98MOL    H3223506   4.232   6.912   0.291  1.2939 -4.7543 -1.0650
   98MOL    H3323507   4.471   6.939   0.281  1.4527  2.9316  0.1021
   98MOL    H3423508   4.471   6.999   0.438  0.1327  0.8129 -0.2039
   98MOL    H3523509   4.467   7.159   0.227  0.5967 -0.8535  0.6021
   98MOL    H3623510   4.302   7.121   0.200  1.2831  1.5215 -2.0089
   98MOL    H3723511   4.346   7.201   0.349 -0.2425  1.2900 -0.7736
   98MOL    C3823512   4.196   6.949   0.503  0.4023 -0.5184  1.0673
   98MOL    C3923513   4.045   6.935   0.473 -0.4922  1.1070 -0.2801
   98MOL    C4023514   3.996   7.047   0.377 -0.3638  0.2365  0.2964
   98MOL    C4123515   3.854   7.021   0.329  0.1831 -0.0261 -0.3771
   98MOL    H4223516   4.219   7.055   0.516 -0.2028 -0.4668  1.7449
   98MOL    H4323517   4.232   6.896   0.591  2.1841  1.4674  1.5941
   98MOL    H4423518   4.036   6.844   0.414  0.2752  1.4911 -1.0046
   98MOL    H4523519   4.074   7.039   0.301  1.3870  2.3379  1.8113
   98MOL    H4623520   4.004   7.146   0.424 -1.0118 -0.2176  1.3751
   98MOL    H4723521   3.794   7.083   0.395 -0.7269  1.2156 -2.3038
   98MOL    H4823522   3.828   7.057   0.229  2.7170  1.3631 -0.5651
   98MOL    H4923523   3.827   6.915   0.329 -1.0713  0.2321 -3.3674
   98MOL    C5023524   3.965   6.925   0.612  0.0920 -0.5384  0.3984
   98MOL    C5123525   3.997   6.805   0.704 -0.1256 -0.4181  0.8178
   98MOL    C5223526   4.005   6.673   0.632  0.6893 -0.0738  0.0577
   98MOL    C5323527   3.873   6.623   0.572  0.1056  0.0624 -0.9028
   98MOL    H5423528   3.865   6.912   0.569  0.1322 -1.1462  0.4873
   98MOL    H5523529   3.968   7.023   0.659 -1.1836  0.3525 -1.2970
   98MOL    H5623530   4.097   6.819   0.743  0.1779 -1.8112  0.5626
   98MOL    H5723531   4.046   6.602   0.705  1.0747  0.9538  0.8525
   98MOL    H5823532   4.097   6.671   0.573  0.9158  1.3711  0.3433
   98MOL    H5923533   3.882   6.516   0.556 -0.1597 -0.2237  0.8420
   98MOL    H6023534   3.788   6.626   0.640 -0.9279 -0.7707 -2.1346
   98MOL    H6123535   3.839   6.674   0.481  0.3674  0.2246 -0.9130
   98MOL    C6223536   3.894   6.812   0.824 -0.9060  0.0777 -0.7966
   98MOL    C6323537   3.904   6.691   0.934 -0.5881 -0.6805 -0.9073
   98MOL    C6423538   3.783   6.696   1.031 -0.5289  0.5776  0.0342
   98MOL    C6523539   3.650   6.648   0.971  0.6844 -0.3320  0.1289
   98MOL    H6623540   3.790   6.823   0.793 -0.1630  4.5238 -1.9996
   98MOL    H6723541   3.922   6.906   0.871 -0.6587 -0.4400  0.1072
   98MOL    H6823542   3.901   6.599   0.875 -0.8089 -0.0843 -1.8366
   98MOL    H6923543   3.782   6.792   1.082 -0.2294  1.4950 -1.6306
   98MOL    H7023544   3.798   6.628   1.114 -1.8760  0.7888  0.4579
   98MOL    H7123545   3.573   6.719   1.000  1.3242  0.2375  0.4562
   98MOL    H7223546   3.644   6.646   0.862 -2.4704  0.9831  0.2383
   98MOL    H7323547   3.628   6.550   1.012  1.8149 -0.5781  0.1692
   98MOL    C7423548   4.042   6.707   1.008 -0.0661 -0.4430  0.1792
   98MOL    C7523549   4.075   6.594   1.114  0.3117  0.6244 -0.1515
   98MOL    C7623550   4.190   6.647   1.215  0.3391 -0.7604 -0.1494
   98MOL    C7723551   4.228   6.542   1.324 -0.7097 -0.4382  0.7628
   98MOL    H7823552   4.044   6.807   1.052 -0.2828 -1.1092  1.7050
   98MOL    H7923553   4.126   6.721   0.940  0.1807  1.6985  0.8877
   98MOL    H8023554   3.997   6.579   1.189 -0.4083 -0.6823 -1.1370
   98MOL    H8123555   4.149   6.735   1.264 -0.3872 -0.5738 -1.0618
   98MOL    H8223556   4.280   6.672   1.159  0.9810  0.8869  1.5593
   98MOL    H8323557   4.141   6.538   1.390 -2.3038 -0.5627 -1.3049
   98MOL    H8423558   4.238   6.443   1.280  0.2178 -0.2514  0.5452
   98MOL    H8523559   4.315   6.568   1.383 -1.0297  0.2034  0.9623
   98MOL    C8623560   4.105   6.458   1.040 -0.4805 -0.5248  0.0237
   98MOL    C8723561   3.992   6.348   1.034 -0.2377  0.2290 -0.0130
   98MOL    C8823562   3.984   6.258   1.162  0.0044 -0.5292 -0.5874
   98MOL    C8923563   4.100   6.164   1.177 -0.3836 -0.4192  0.6248
   98MOL    H9023564   4.201   6.421   1.077  0.6530  0.6751 -1.6738
   98MOL    H9123565   4.148   6.479   0.942  1.2264  0.7059  1.0171
   98MOL    H9223566   3.890   6.386   1.025 -0.4435 -0.2540  0.2547
   98MOL    H9323567   3.891   6.204   1.178  1.4350 -2.0005  3.3962
   98MOL    H9423568   3.991   6.326   1.248 -1.5137  2.3888 -2.6724
   98MOL    H9523569   4.192   6.212   1.144  0.3766 -2.8937 -0.9397
   98MOL    H9623570   4.100   6.136   1.282 -0.6434 -0.1969  0.6842
   98MOL    H9723571   4.087   6.081   1.108 -1.7326 -0.8775  1.4161
   98MOL    C9823572   3.996   6.242   0.919  0.0118  0.3187 -0.1031
   98MOL    C9923573   3.925   6.262   0.786 -0.1653 -0.3314  0.1384
   98MOL   C10023574   3.763   6.265   0.805 -0.5833  0.5395 -0.0949
   98MOL   C10123575   3.683   6.304   0.684  0.3155 -0.2779 -0.3257
   98MOL   H10223576   3.952   6.151   0.961  0.8457  0.6939  1.6750
   98MOL   H10323577   4.102   6.220   0.908  0.1942 -0.1759  2.2433
   98MOL   H10423578   3.948   6.359   0.741 -2.4723 -0.0844 -0.5569
   98MOL   H10523579   3.739   6.318   0.897  0.3872  0.6730  0.0897
   98MOL   H10623580   3.745   6.162   0.836  0.9286 -0.3537 -2.1100
   98MOL   H10723581   3.577   6.294   0.703 -0.1338  0.7640 -2.1297
   98MOL   H10823582   3.696   6.411   0.671  1.3446 -0.3771 -0.2139
   98MOL   H10923583   3.701   6.248   0.592  1.9023  0.4895 -0.5015
   98MOL   C11023584   3.969   6.144   0.687 -0.2398 -0.4189  0.3504
   98MOL   C11123585   4.125   6.137   0.656 -0.4914  0.6118 -0.4741
   98MOL   C11223586   4.186   6.274   0.617 -0.3867 -0.0741  0.6912
   98MOL   C11323587   4.127   6.338   0.488  0.1856 -0.6013 -0.5764
   98MOL   H11423588   3.911   6.150   0.595  0.4597 -0.2519 -0.0831
   98MOL   H11523589   3.950   6.049   0.737  1.4856 -1.1890 -0.4103
   98MOL   H11623590   4.184   6.102   0.742 -0.3811 -0.6484 -1.0552
   98MOL   H11723591   4.289   6.256   0.586 -0.1656 -0.2431  1.5187
   98MOL   H11823592   4.188   6.353   0.692 -0.2977  0.2595  0.3426
   98MOL   H11923593   4.019   6.331   0.474  0.2021  0.6420 -1.4230
   98MOL   H12023594   4.161   6.442   0.480 -0.1090 -0.6017 -2.0003
   98MOL   H12123595   4.163   6.295   0.395 -0.1962  1.1669 -1.5735
   98MOL   C12223596   4.154   6.032   0.542  0.5785 -0.5821 -0.2985
   98MOL   C12323597   4.155   5.885   0.606 -0.2682 -0.6577 -0.1082
   98MOL   C12423598   4.294   5.853   0.658  0.2409 -0.0449 -0.0285
   98MOL   C12523599   4.300   5.805   0.804 -0.3537 -0.0789  0.1948
   98MOL   H12623600   4.251   6.047   0.495  1.7562 -0.2764  2.1425
   98MOL   H12723601   4.074   6.041   0.468 -1.1679  1.4650  1.7660
   98MOL   H12823602   4.092   5.885   0.695 -2.6378  0.9517 -1.7262
   98MOL   H12923603   4.363   5.937   0.665  0.2163  0.0200 -0.5392
   98MOL   H13023604   4.346   5.778   0.598 -0.8280  0.2314 -1.3206
   98MOL   H13123605   4.405   5.809   0.833 -0.2393  2.7781 -0.4575
   98MOL   H13223606   4.249   5.876   0.869  0.0156 -1.1501  1.6847
   98MOL   H13323607   4.258   5.704   0.806  0.4417 -0.4258 -0.4244
   98MOL   C13423608   4.105   5.783   0.509  0.1505  1.1750  0.4023
   98MOL   C13523609   4.065   5.642   0.571 -0.6774  0.1100 -0.1887
   98MOL   C13623610   4.057   5.532   0.471  0.2369 -0.0007 -0.4104
   98MOL   C13723611   4.191   5.484   0.395 -0.8280  0.6128  0.4085
   98MOL   H13823612   4.183   5.764   0.436  0.2946 -2.1700  1.3461
   98MOL   H13923613   4.016   5.818   0.457  1.2728  1.7313 -1.1685
   98MOL   H14023614   4.153   5.608   0.626  0.3370 -2.2482 -3.1745
   98MOL   H14123615   3.977   5.564   0.404  1.5954  2.5194 -0.8642
   98MOL   H14223616   4.029   5.447   0.534 -0.4791  0.1097 -0.5763
   98MOL   H14323617   4.221   5.558   0.321  1.0486 -0.1938  0.3323
   98MOL   H14423618   4.281   5.487   0.457 -0.3430 -0.8573 -0.1854
   98MOL   H14523619   4.182   5.388   0.343  0.1134  1.5636 -1.5412
   98MOL   C14623620   3.942   5.644   0.674  1.1151 -0.2800  0.5320
   98MOL   C14723621   3.973   5.614   0.818 -0.2541 -0.3600  0.1497
   98MOL   C14823622   4.018   5.467   0.843  0.2216 -1.0534 -0.4760
   98MOL   C14923623   4.073   5.428   0.986 -1.0686 -0.1065 -0.4133
   98MOL   H15023624   3.866   5.574   0.638  0.8874  0.4810 -0.4800
   98MOL   H15123625   3.894   5.741   0.666  0.2170 -0.8364 -1.1641
   98MOL   H15223626   4.043   5.679   0.871 -1.6151  1.0020  0.2976
   98MOL   H15323627   4.102   5.449   0.776 -1.1655  0.6651 -2.7343
   98MOL   H15423628   3.942   5.395   0.815 -0.7029 -1.5655  3.0931
   98MOL   H15523629   4.107   5.514   1.043 -0.3448  0.6340 -1.9257
   98MOL   H15623630   3.996   5.379   1.046  0.0164 -0.7990  0.4313
   98MOL   H15723631   4.152   5.353   0.989 -1.8713 -0.9464  0.0299
   98MOL   C15823632   3.848   5.633   0.905 -0.5651 -0.3895 -0.4187
   98MOL   C15923633   3.788   5.779   0.928 -0.1725 -0.3241 -0.0927
   98MOL   C16023634   3.881   5.860   1.016 -0.0857  0.2424 -0.3447
   98MOL   C16123635   3.865   5.857   1.174  0.2338  0.0107 -0.4436
   98MOL   H16223636   3.857   5.582   1.001  0.0180  0.6030  0.0546
   98MOL   H16323637   3.769   5.573   0.858 -1.2121 -0.0573  0.2383
   98MOL   H16423638   3.791   5.831   0.832  2.3812  0.5446  0.4141
   98MOL   H16523639   3.873   5.965   0.987  1.3521  0.5667  0.3799
   98MOL   H16623640   3.987   5.845   0.995 -0.1013 -1.1885  0.5860
   98MOL   H16723641   3.882   5.761   1.223 -2.2328 -0.1357  0.2035
   98MOL   H16823642   3.933   5.928   1.220  0.3479  0.7433 -1.7236
   98MOL   H16923643   3.764   5.887   1.204  1.0125  0.3108  2.0228
   98MOL   C17023644   3.645   5.782   0.987 -0.0980 -0.4477  0.2772
   98MOL   C17123645   3.539   5.726   0.896 -0.6397  0.7434 -0.7954
   98MOL   C17223646   3.541   5.787   0.753  0.8215 -1.1209  0.0280
   98MOL   C17323647   3.495   5.936   0.743 -0.2676  0.5399 -0.0357
   98MOL   H17423648   3.612   5.879   1.023  1.5096  0.5586 -0.8721
   98MOL   H17523649   3.643   5.724   1.079  1.0105  1.4588  1.5148
   98MOL   H17623650   3.557   5.619   0.881  1.7913  0.7737  1.5226
   98MOL   H17723651   3.463   5.739   0.695  0.6782 -0.5816 -0.2317
   98MOL   H17823652   3.629   5.759   0.695  0.0077 -0.2474 -1.6510
   98MOL   H17923653   3.573   6.002   0.782 -0.3506  0.3343  0.4761
   98MOL   H18023654   3.476   5.950   0.637 -1.2282 -0.4584  0.0046
   98MOL   H18123655   3.396   5.952   0.785 -0.9166  0.5670 -1.5671
   98MOL   C18223656   3.400   5.720   0.961 -0.0846 -0.0566  0.0599
   98MOL   C18323657   3.285   5.657   0.878 -0.3913  0.4378 -0.4487
   98MOL   C18423658   3.152   5.693   0.954 -0.8636 -0.3718 -0.1295
   98MOL   C18523659   3.121   5.625   1.092 -0.9021  0.6986 -0.0364
   98MOL   H18623660   3.380   5.826   0.973  0.7666  0.2699 -1.2713
   98MOL   H18723661   3.404   5.670   1.058 -2.3857 -1.1939 -0.3878
   98MOL   H18823662   3.284   5.703   0.779 -0.9809  1.9027  0.2147
   98MOL   H18923663   3.072   5.681   0.882 -0.6769 -0.5528 -0.3093
   98MOL   H19023664   3.150   5.800   0.971 -0.8208 -0.3654 -0.1661
   98MOL   H19123665   3.128   5.516   1.091  1.4619  0.8227  1.4597
   98MOL   H19223666   3.173   5.672   1.175 -1.8300  0.9093  0.4413
   98MOL   H19323667   3.014   5.640   1.108 -1.4232 -0.1264 -2.5366
   98MOL   C19423668   3.305   5.504   0.867  0.5919  0.2579  1.0614
   98MOL   C19523669   3.190   5.425   0.795  0.8850  0.1931 -0.3137
   98MOL   C19623670   3.207   5.274   0.833 -0.6563  0.0872  0.2943
   98MOL   C19723671   3.089   5.185   0.797 -0.6989 -0.2454 -0.8479
   98MOL   H19823672   3.318   5.462   0.966  2.3921  2.3171  1.6990
   98MOL   H19923673   3.398   5.482   0.816 -0.0918  1.3898 -0.7250
   98MOL   H20023674   3.094   5.440   0.844  1.1681 -0.9373  0.6239
   98MOL   H20123675   3.229   5.279   0.939  1.8366  1.1140 -0.2465
   98MOL   H20223676   3.297   5.227   0.791 -1.3142 -1.6212  0.7396
   98MOL   H20323677   3.133   5.085   0.806  0.2942  0.2356 -0.2492
   98MOL   H20423678   3.010   5.206   0.869 -2.0429 -1.1796 -2.0266
   98MOL   H20523679   3.049   5.206   0.699 -1.2719 -1.0993 -0.7979
   98MOL   C20623680   3.187   5.450   0.637 -0.3536  0.1505  0.4294
   98MOL   C20723681   3.093   5.572   0.594  0.1862 -0.1897 -0.1410
   98MOL   C20823682   2.940   5.552   0.620 -0.3431 -0.0641 -1.1931
   98MOL   C20923683   2.878   5.436   0.550 -0.1201 -0.3482  0.3124
   98MOL   H21023684   3.145   5.360   0.592  1.3611 -0.2546 -0.4049
   98MOL   H21123685   3.290   5.462   0.603 -0.5223  2.4978  0.6593
   98MOL   H21223686   3.125   5.655   0.657 -1.9362  1.5599 -1.3112
   98MOL   H21323687   2.892   5.645   0.591  0.7782  0.7919 -0.4041
   98MOL   H21423688   2.934   5.525   0.726  0.2307  2.8007 -0.3930
   98MOL   H21523689   2.901   5.440   0.443  2.5216  0.1518  0.8642
   98MOL   H21623690   2.911   5.340   0.588 -1.5853 -0.9091  0.1618
   98MOL   H21723691   2.771   5.452   0.557 -0.1708  0.8434 -2.4283
   98MOL   C21823692   3.127   5.619   0.458 -0.0944 -0.0634  0.7937
   98MOL   C21923693   3.259   5.707   0.449  0.6811 -0.4758  0.3229
   98MOL   C22023694   3.229   5.855   0.413 -0.0564  0.4733 -0.2701
   98MOL   C22123695   3.150   5.917   0.527  0.2221  0.8251 -0.0427
   98MOL   H22223696   3.041   5.678   0.426  1.6545  1.4356 -1.1772
   98MOL   H22323697   3.129   5.540   0.383  0.5404  1.4264 -0.7600
   98MOL   H22423698   3.317   5.713   0.541 -0.8141  0.4223  1.2280
   98MOL   H22523699   3.171   5.852   0.321 -1.3483 -0.1909  0.5400
   98MOL   H22623700   3.307   5.929   0.400  1.5984 -0.7815  2.0550
   98MOL   H22723701   3.192   5.887   0.623  1.5842  2.9928  0.1022
   98MOL   H22823702   3.163   6.025   0.540  3.3862  0.4579  0.3984
   98MOL   H22923703   3.042   5.902   0.526  0.6105 -2.0664 -1.7620
   98MOL   C23023704   3.362   5.648   0.355  0.2128 -0.0798  0.0916
   98MOL   C23123705   3.487   5.731   0.335  0.1257 -0.6582  0.2473
   98MOL   C23223706   3.610   5.656   0.287 -0.3597 -0.6379  0.2472
   98MOL   C23323707   3.590   5.587   0.158  0.2030 -0.3739 -0.1195
   98MOL   H23423708   3.315   5.643   0.256  0.0479  2.2683  0.0308
   98MOL   H23523709   3.388   5.548   0.390  0.9014 -0.0465 -0.3088
   98MOL   H23623710   3.467   5.807   0.260  1.5298  1.2803  1.7873
   98MOL   H23723711   3.643   5.579   0.356 -0.9850 -2.0648 -1.0380
   98MOL   H23823712   3.696   5.723   0.282 -0.8008  0.1104  2.3114
   98MOL   H23923713   3.564   5.668   0.090 -1.6385 -1.9007 -1.2846
   98MOL   H24023714   3.685   5.553   0.115 -0.8743 -0.9946 -2.0834
   98MOL   H24123715   3.513   5.510   0.146 -0.9443  0.9779 -1.7091
   98MOL   H24223716   3.509   5.794   0.421  1.6215 -0.7418 -0.0696
   99MOL     C123717   4.505   1.739   1.431  0.5506 -0.2555  0.2257
   99MOL     C223718   4.358   1.736   1.366  0.2104  0.1321  0.7569
   99MOL     C323719   4.352   1.800   1.226  0.7456 -0.3119  0.0606
   99MOL     C423720   4.418   1.939   1.221 -0.0346 -0.1284  0.3784
   99MOL     H523721   4.500   1.733   1.540 -1.0404 -1.1444  0.1211
   99MOL     H623722   4.574   1.668   1.386 -4.0088 -2.7433 -3.3243
   99MOL     H723723   4.330   1.630   1.363  1.3284 -0.1628  0.5571
   99MOL     H823724   4.249   1.784   1.195  0.8210 -0.3915 -0.1438
   99MOL     H923725   4.408   1.743   1.152  1.9407 -0.3483  0.9813
   99MOL    H1023726   4.380   2.015   1.289 -1.1135  0.4876 -0.8814
   99MOL    H1123727   4.521   1.923   1.253  0.0041 -1.4440 -0.3696
   99MOL    H1223728   4.425   1.991   1.125  1.6409 -2.1377 -0.6446
   99MOL    H1323729   4.554   1.837   1.433  1.7065 -0.8078 -0.3621
   99MOL    C1423730   4.256   1.797   1.465  0.4656  0.1267  0.5841
   99MOL    C1523731   4.219   1.722   1.601  0.7017  0.5208  0.2099
   99MOL    C1623732   4.091   1.632   1.571 -0.0278 -0.8803  0.5564
   99MOL    C1723733   4.064   1.533   1.685  0.4705 -0.0752 -0.2868
   99MOL    H1823734   4.163   1.806   1.408 -0.0253  0.8642  1.4795
   99MOL    H1923735   4.285   1.898   1.490  0.9945 -0.0140  0.5294
   99MOL    H2023736   4.296   1.654   1.638 -0.2043 -0.5236  0.1547
   99MOL    H2123737   4.081   1.564   1.486  0.0768 -0.2396  0.0245
   99MOL    H2223738   4.009   1.703   1.562  0.9448  0.3033  0.8296
   99MOL    H2323739   3.991   1.458   1.655  1.3605 -1.4397  0.8630
   99MOL    H2423740   4.161   1.487   1.702  1.0497  0.9811 -0.7247
   99MOL    H2523741   4.019   1.581   1.772  2.1688  1.3212 -0.1557
   99MOL    C2623742   4.197   1.827   1.706 -0.6395 -0.4022  0.3809
   99MOL    C2723743   4.315   1.879   1.784  0.2462 -0.2767  0.3112
   99MOL    C2823744   4.324   1.790   1.912  0.1916  0.1710 -0.0537
   99MOL    C2923745   4.219   1.835   2.024 -0.3442 -0.4629 -0.1857
   99MOL    H3023746   4.129   1.766   1.766 -1.9960  0.7634  0.0480
   99MOL    H3123747   4.134   1.905   1.663  0.8821 -1.1979 -3.5499
   99MOL    H3223748   4.400   1.847   1.724 -2.0114 -1.4251 -2.3724
   99MOL    H3323749   4.418   1.796   1.968 -0.7301 -1.8566  1.8027
   99MOL    H3423750   4.312   1.687   1.881  1.2078 -0.3998  1.3989
   99MOL    H3523751   4.131   1.883   1.982  0.6436 -1.4138 -3.5071
   99MOL    H3623752   4.197   1.751   2.090 -1.0371  0.7385  1.1387
   99MOL    H3723753   4.271   1.910   2.083  0.7626  1.8950 -4.0038
   99MOL    C3823754   4.305   2.035   1.813 -0.5971  0.3060  0.4850
   99MOL    C3923755   4.350   2.130   1.697 -0.4115 -0.6601 -1.0578
   99MOL    C4023756   4.498   2.152   1.704  0.4357  0.1176 -0.0149
   99MOL    C4123757   4.549   2.214   1.572  0.4162 -0.3139 -0.2914
   99MOL    H4223758   4.372   2.050   1.898 -0.4579  1.7886  0.1149
   99MOL    H4323759   4.201   2.055   1.841 -0.3930  2.7372 -0.3847
   99MOL    H4423760   4.328   2.077   1.605 -2.6670  0.8425 -1.4377
   99MOL    H4523761   4.537   2.052   1.721 -3.2271 -1.4178  0.0037
   99MOL    H4623762   4.528   2.225   1.779 -0.4128  0.3249  0.1358
   99MOL    H4723763   4.650   2.256   1.577 -0.0253  0.7933 -0.7314
   99MOL    H4823764   4.540   2.146   1.487  1.1447 -1.0497  0.2092
   99MOL    H4923765   4.478   2.286   1.533  0.2041 -0.6946 -0.6134
   99MOL    C5023766   4.268   2.267   1.707  0.6083  0.3161  0.0461
   99MOL    C5123767   4.128   2.252   1.654  0.4314 -0.1087 -0.6147
   99MOL    C5223768   4.117   2.227   1.503 -0.6348  0.3380  0.3847
   99MOL    C5323769   3.994   2.155   1.452  0.0856 -0.1308  0.2495
   99MOL    H5423770   4.313   2.344   1.643 -0.6697  2.8511  2.1208
   99MOL    H5523771   4.260   2.316   1.804 -1.3487 -1.3724  0.7639
   99MOL    H5623772   4.096   2.158   1.698 -0.6454 -0.3472 -1.8979
   99MOL    H5723773   4.204   2.182   1.456 -1.0157  1.5896 -1.5943
   99MOL    H5823774   4.125   2.324   1.453  2.1485 -1.0420 -2.0366
   99MOL    H5923775   3.972   2.079   1.528  0.7181  2.5852  3.2721
   99MOL    H6023776   3.914   2.228   1.438  0.3689  0.3494  1.1060
   99MOL    H6123777   4.016   2.108   1.356  0.7548  2.4824 -0.9163
   99MOL    C6223778   4.035   2.366   1.708  0.0193  0.4062  0.7112
   99MOL    C6323779   3.972   2.358   1.852  0.3766 -0.2007  0.2251
   99MOL    C6423780   3.880   2.239   1.866  0.6054 -0.4080  0.2385
   99MOL    C6523781   3.741   2.255   1.789 -0.1070 -0.1296  0.4483
   99MOL    H6623782   3.949   2.388   1.645  0.3416  2.7101  1.0175
   99MOL    H6723783   4.085   2.463   1.709  1.1896 -0.1806 -0.0898
   99MOL    H6823784   4.053   2.359   1.925  0.1836  1.4377  0.4273
   99MOL    H6923785   3.848   2.217   1.968 -0.3528 -3.1034 -0.6075
   99MOL    H7023786   3.932   2.147   1.839  1.9390  0.7822 -1.3760
   99MOL    H7123787   3.666   2.178   1.805 -0.2795  0.1194  0.8556
   99MOL    H7223788   3.699   2.354   1.806  0.6010  0.3985 -0.7954
   99MOL    H7323789   3.762   2.253   1.682 -1.5680  2.0737  0.0894
   99MOL    C7423790   3.905   2.493   1.885  0.4144 -0.2388 -0.9192
   99MOL    C7523791   3.826   2.512   2.017 -0.2415  0.1681 -0.1209
   99MOL    C7623792   3.702   2.608   2.011 -0.5759 -0.1467 -0.0978
   99MOL    C7723793   3.724   2.749   1.952 -0.1059 -0.2436 -0.6280
   99MOL    H7823794   3.846   2.543   1.809 -0.0594  1.8906  0.7938
   99MOL    H7923795   3.983   2.569   1.889  0.1514  0.0525 -1.3870
   99MOL    H8023796   3.780   2.419   2.050  1.6762 -0.3369  1.2283
   99MOL    H8123797   3.664   2.617   2.113  0.0089 -1.3796  0.2417
   99MOL    H8223798   3.624   2.563   1.948 -1.5809 -0.1583  1.1307
   99MOL    H8323799   3.654   2.813   2.006 -0.0754  2.1589 -3.3502
   99MOL    H8423800   3.822   2.790   1.976  0.1455 -0.6018 -1.0294
   99MOL    H8523801   3.688   2.769   1.852 -0.2686  2.8845  0.0235
   99MOL    C8623802   3.909   2.540   2.147 -0.0463 -0.0219  0.2420
   99MOL    C8723803   3.839   2.503   2.280 -0.4459 -0.0610 -0.0383
   99MOL    C8823804   3.867   2.618   2.383  0.2723 -0.2605  0.1908
   99MOL    C8923805   3.761   2.727   2.402  0.4285 -0.5502 -0.3529
   99MOL    H9023806   3.926   2.647   2.137 -1.4172  0.3945  1.9879
   99MOL    H9123807   4.011   2.501   2.146  0.0992  0.3878 -2.3147
   99MOL    H9223808   3.731   2.504   2.266 -0.2908 -1.2538 -1.4667
   99MOL    H9323809   3.962   2.666   2.360 -0.2367  1.0126  0.7043
   99MOL    H9423810   3.887   2.575   2.482 -0.6175  0.2651  0.6051
   99MOL    H9523811   3.796   2.795   2.479 -2.4849  0.6937 -0.0704
   99MOL    H9623812   3.730   2.773   2.308 -1.7185 -1.2796 -0.0227
   99MOL    H9723813   3.669   2.703   2.456 -0.1874  2.4760  0.0026
   99MOL    C9823814   3.876   2.364   2.343 -0.0859 -0.8930 -0.5585
   99MOL    C9923815   3.859   2.242   2.264 -0.5202  0.5651 -0.2493
   99MOL   C10023816   3.706   2.199   2.240  0.0089 -0.2417  0.0242
   99MOL   C10123817   3.623   2.150   2.361  0.3568 -1.0846 -0.2208
   99MOL   H10223818   3.824   2.349   2.438 -1.5133 -1.0208 -1.3489
   99MOL   H10323819   3.977   2.377   2.383 -0.7728  5.7424 -0.4559
   99MOL   H10423820   3.907   2.253   2.166  0.7128 -0.0868  0.2613
   99MOL   H10523821   3.704   2.119   2.166 -0.3760  0.0014 -0.2303
   99MOL   H10623822   3.654   2.280   2.189  2.0644  1.8729  1.2138
   99MOL   H10723823   3.677   2.060   2.392  1.0198 -1.4543 -2.3145
   99MOL   H10823824   3.589   2.220   2.437 -1.8777 -2.0361 -0.3315
   99MOL   H10923825   3.531   2.101   2.330 -0.3365 -1.6223  2.6077
   99MOL   C11023826   3.944   2.126   2.323 -0.0540 -0.2577  0.1496
   99MOL   C11123827   4.104   2.138   2.314  0.3604  0.8071 -0.5575
   99MOL   C11223828   4.145   2.186   2.173 -0.1689  0.5731  0.9555
   99MOL   C11323829   4.298   2.194   2.162 -0.1836  0.7911 -0.5401
   99MOL   H11423830   3.918   2.036   2.267  2.1200 -1.5146  1.0836
   99MOL   H11523831   3.915   2.122   2.428  0.2324  0.8361  0.2738
   99MOL   H11623832   4.129   2.215   2.388 -1.3054  0.1454  0.7035
   99MOL   H11723833   4.112   2.288   2.149 -2.4154  0.3689  3.0168
   99MOL   H11823834   4.123   2.120   2.089  1.4984  0.4271  0.5987
   99MOL   H11923835   4.355   2.102   2.170 -0.5338  0.5165 -1.2016
   99MOL   H12023836   4.335   2.237   2.069  0.5712 -2.0089 -1.5738
   99MOL   H12123837   4.323   2.260   2.246  0.2195 -1.5347  1.2181
   99MOL   C12223838   4.169   2.006   2.366  0.0773 -0.0964  0.7439
   99MOL   C12323839   4.172   1.981   2.518  0.3578  0.4462 -0.1378
   99MOL   C12423840   4.308   2.013   2.597 -0.0096 -0.6801  1.0471
   99MOL   C12523841   4.372   2.141   2.552  0.0119  0.0912 -0.3782
   99MOL   H12623842   4.260   1.967   2.320 -0.3485 -2.6561  1.9969
   99MOL   H12723843   4.094   1.934   2.333  0.0372  0.1403  0.3237
   99MOL   H12823844   4.104   2.059   2.552  2.0936  1.2873  1.4485
   99MOL   H12923845   4.379   1.933   2.576  0.7030  0.6243 -1.6825
   99MOL   H13023846   4.282   2.003   2.703 -0.0126 -1.3582  0.9849
   99MOL   H13123847   4.475   2.152   2.584 -0.4078  0.3002  0.9263
   99MOL   H13223848   4.385   2.135   2.444 -2.3447  0.2108 -0.6956
   99MOL   H13323849   4.322   2.234   2.577  2.0886  1.1866 -0.2171
   99MOL   C13423850   4.099   1.848   2.560  0.0517 -0.1958 -0.5357
   99MOL   C13523851   3.953   1.872   2.605 -0.5135  0.0802 -0.5203
   99MOL   C13623852   3.957   1.937   2.748 -0.9611  0.9139 -0.3742
   99MOL   C13723853   3.845   2.045   2.753  0.0068  0.1317  0.1462
   99MOL   H13823854   4.148   1.808   2.649 -0.5645 -0.8592 -0.4945
   99MOL   H13923855   4.103   1.776   2.479  1.2381  0.4030 -1.0187
   99MOL   H14023856   3.903   1.941   2.536 -1.2805  0.2997  0.2412
   99MOL   H14123857   4.056   1.982   2.755 -0.9890  0.9748 -0.3637
   99MOL   H14223858   3.958   1.866   2.830  0.1613  2.2098  0.7487
   99MOL   H14323859   3.868   2.115   2.673 -3.0816  1.8240  0.6768
   99MOL   H14423860   3.752   2.003   2.716  0.6901 -0.8349 -0.5300
   99MOL   H14523861   3.845   2.104   2.844 -0.1648  0.4706 -0.0728
   99MOL   C14623862   3.864   1.740   2.608  0.0336 -0.6468 -0.1040
   99MOL   C14723863   3.806   1.689   2.470 -0.1514  0.4155 -0.9095
   99MOL   C14823864   3.685   1.776   2.434  0.5827 -0.3117  0.1372
   99MOL   C14923865   3.598   1.742   2.312  0.0457 -0.0705 -0.5966
   99MOL   H15023866   3.779   1.758   2.673  1.9040  2.5123  1.5677
   99MOL   H15123867   3.933   1.670   2.657  2.4281  1.8420  0.1888
   99MOL   H15223868   3.887   1.704   2.399  2.3486  1.6330  2.0961
   99MOL   H15323869   3.729   1.876   2.428  1.6183 -0.8455 -1.3118
   99MOL   H15423870   3.615   1.796   2.516  0.4065 -0.2307 -0.0320
   99MOL   H15523871   3.521   1.819   2.300  1.3271  1.4843  0.9323
   99MOL   H15623872   3.659   1.747   2.222  0.3569  1.1724 -0.3314
   99MOL   H15723873   3.558   1.642   2.326  2.2862 -0.9022 -0.0748
   99MOL   C15823874   3.790   1.533   2.477  1.3017  0.4511 -0.2287
   99MOL   C15923875   3.929   1.459   2.470  0.5382  0.0285 -0.6081
   99MOL   C16023876   3.982   1.447   2.322  0.0116  0.2664 -0.7511
   99MOL   C16123877   4.136   1.420   2.327 -0.4456  0.8008 -0.3950
   99MOL   H16223878   3.718   1.489   2.408 -0.4460  1.8825  0.6265
   99MOL   H16323879   3.743   1.506   2.571 -0.6825 -0.1622 -1.3414
   99MOL   H16423880   3.997   1.522   2.528  2.2830 -0.6233 -1.8921
   99MOL   H16523881   3.974   1.543   2.271 -0.5673 -0.0317 -1.2185
   99MOL   H16623882   3.918   1.385   2.260  0.8133  0.3682 -1.6761
   99MOL   H16723883   4.147   1.312   2.339 -0.8754  0.7741 -0.2049
   99MOL   H16823884   4.171   1.451   2.228  1.6023  0.4018  0.1950
   99MOL   H16923885   4.186   1.474   2.407 -1.0859 -0.9452  1.2133
   99MOL   C17023886   3.927   1.316   2.540 -0.8002  0.2849  0.4134
   99MOL   C17123887   3.872   1.317   2.683  0.4032 -0.5421  0.5414
   99MOL   C17223888   3.974   1.255   2.777  0.4967 -0.6897 -0.1864
   99MOL   C17323889   4.107   1.334   2.775  0.1851 -0.2643  0.0089
   99MOL   H17423890   4.023   1.265   2.537 -1.1626 -0.4190  0.6724
   99MOL   H17523891   3.859   1.261   2.474  1.0988 -1.7730  0.0915
   99MOL   H17623892   3.863   1.420   2.717 -2.7070 -1.4999  2.8272
   99MOL   H17723893   3.981   1.148   2.762 -1.1474 -1.0480  1.4228
   99MOL   H17823894   3.938   1.262   2.879 -0.0543 -0.7106 -0.3754
   99MOL   H17923895   4.087   1.432   2.817 -1.8739  0.4762 -2.5775
   99MOL   H18023896   4.173   1.288   2.848  0.2689  0.5794  0.4712
   99MOL   H18123897   4.159   1.334   2.679  1.5296  2.1796  0.7128
   99MOL   C18223898   3.740   1.251   2.707 -0.0351  0.6288  0.6727
   99MOL   C18323899   3.638   1.328   2.798  0.4674  0.0240  0.6855
   99MOL   C18423900   3.675   1.349   2.941  0.9567  0.3445  0.6908
   99MOL   C18523901   3.656   1.225   3.042 -0.0142 -0.0830 -0.0649
   99MOL   H18623902   3.753   1.148   2.740 -0.6162  0.4098  0.2380
   99MOL   H18723903   3.685   1.241   2.613  1.7225 -1.3914 -0.2020
   99MOL   H18823904   3.634   1.429   2.757 -1.6007 -1.2145 -2.3809
   99MOL   H18923905   3.617   1.433   2.978  0.7475  0.1352  0.8373
   99MOL   H19023906   3.781   1.374   2.953  1.2019 -0.9627  1.4787
   99MOL   H19123907   3.554   1.188   3.033  0.7943 -1.8312 -2.9771
   99MOL   H19223908   3.720   1.143   3.008  1.2921  0.5875  0.7411
   99MOL   H19323909   3.690   1.247   3.143 -0.7633  0.6620  0.0235
   99MOL   C19423910   3.493   1.266   2.771 -0.5690 -0.8778  0.9190
   99MOL   C19523911   3.371   1.349   2.810  0.1239  0.2724 -0.0756
   99MOL   C19623912   3.249   1.277   2.773 -0.7875 -0.2233  0.0032
   99MOL   C19723913   3.231   1.141   2.832 -0.0200  0.3516  0.0491
   99MOL   H19823914   3.489   1.163   2.806  1.4960 -1.4705 -0.4914
   99MOL   H19923915   3.481   1.248   2.664 -0.3576 -0.2133  0.7855
   99MOL   H20023916   3.380   1.358   2.919 -2.6389  1.1041  0.1250
   99MOL   H20123917   3.244   1.277   2.664  0.5631  3.0490 -0.1437
   99MOL   H20223918   3.167   1.338   2.810 -0.5303 -0.6781  1.3297
   99MOL   H20323919   3.284   1.138   2.928  1.2754  0.0545 -0.6676
   99MOL   H20423920   3.132   1.098   2.825 -0.7105  2.0071 -0.6946
   99MOL   H20523921   3.288   1.080   2.762 -0.6166  1.2701 -1.2593
   99MOL   C20623922   3.384   1.499   2.748 -0.3067  0.8705  0.1971
   99MOL   C20723923   3.271   1.598   2.761  0.1017  0.1097  0.1822
   99MOL   C20823924   3.284   1.723   2.678 -0.3557  0.0081 -0.5552
   99MOL   C20923925   3.265   1.695   2.530  0.6237  0.3086 -0.0558
   99MOL   H21023926   3.427   1.488   2.648  0.5301  2.6976  0.3239
   99MOL   H21123927   3.468   1.550   2.795 -0.6808  2.1308 -0.4583
   99MOL   H21223928   3.180   1.547   2.731  0.2838  1.1181 -2.1798
   99MOL   H21323929   3.384   1.763   2.694 -1.1483  1.9677 -0.3722
   99MOL   H21423930   3.213   1.801   2.705 -2.0110 -1.8617  0.7017
   99MOL   H21523931   3.287   1.781   2.467  0.0892  1.2740  1.0505
   99MOL   H21623932   3.315   1.604   2.497  1.1341  0.5374  0.0920
   99MOL   H21723933   3.158   1.678   2.521  0.9857 -1.7250 -0.6627
   99MOL   C21823934   3.242   1.629   2.909 -0.5145  0.1145 -0.3994
   99MOL   C21923935   3.112   1.716   2.935  0.5705  0.5130 -0.0948
   99MOL   C22023936   3.096   1.725   3.089  0.8382  1.2367 -0.5904
   99MOL   C22123937   3.171   1.839   3.158 -0.8433  0.1326  0.6197
   99MOL   H22223938   3.328   1.679   2.952  0.1972 -0.8785 -0.6573
   99MOL   H22323939   3.233   1.537   2.966  1.1410  0.1171 -0.1320
   99MOL   H22423940   3.126   1.819   2.902  0.4410  0.2074 -1.1349
   99MOL   H22523941   3.097   1.628   3.139 -2.7428  1.3054 -0.2494
   99MOL   H22623942   2.993   1.753   3.114  0.6061 -1.0833  1.1342
   99MOL   H22723943   3.167   1.939   3.117 -1.7330  0.6954  2.0389
   99MOL   H22823944   3.158   1.848   3.266 -1.2590  0.1662  0.5680
   99MOL   H22923945   3.275   1.806   3.160 -1.1043 -0.7195  0.6667
   99MOL   C23023946   2.984   1.660   2.872  0.2585  0.4329 -0.2292
   99MOL   C23123947   2.944   1.527   2.922 -0.5011 -0.4742 -0.1902
   99MOL   C23223948   2.829   1.468   2.840  1.2682  0.1947 -1.0269
   99MOL   C23323949   2.889   1.407   2.718  0.3187 -0.5840 -0.6570
   99MOL   H23423950   2.982   1.664   2.763  1.0047 -2.1936 -0.3699
   99MOL   H23523951   2.911   1.740   2.884 -0.2115 -0.4134  3.1342
   99MOL   H23623952   3.029   1.458   2.925 -0.4474 -0.5021 -1.7920
   99MOL   H23723953   2.745   1.536   2.823 -0.2771 -1.8251 -1.5793
   99MOL   H23823954   2.790   1.390   2.905  2.9194 -0.2229 -0.5225
   99MOL   H23923955   2.813   1.354   2.661  1.3704  0.0719 -2.7436
   99MOL   H24023956   2.938   1.480   2.653 -0.6886 -0.3432 -1.1545
   99MOL   H24123957   2.958   1.331   2.755  0.6892  0.2388  0.3670
   99MOL   H24223958   2.910   1.535   3.025 -0.3298  0.3849 -0.2030
  100MOL     C123959   4.713   3.718   1.551 -0.1295  0.0282 -0.2506
  100MOL     C223960   4.618   3.648   1.644 -0.2785 -0.2175 -0.0981
  100MOL     C323961   4.701   3.546   1.727  0.5563  0.7572 -0.1470
  100MOL     C423962   4.621   3.518   1.848  0.2669  0.2977  0.0977
  100MOL     H523963   4.669   3.799   1.493 -0.6185  0.2592  0.4335
  100MOL     H623964   4.801   3.761   1.597  0.5880 -0.1184 -1.4738
  100MOL     H723965   4.575   3.724   1.709 -0.3954  1.1350 -1.7236
  100MOL     H823966   4.804   3.575   1.748  0.9717 -0.8061  0.0469
  100MOL     H923967   4.714   3.461   1.661  0.2522  0.9245 -0.4232
  100MOL    H1023968   4.623   3.603   1.917 -1.1514  1.1714 -0.9253
  100MOL    H1123969   4.514   3.508   1.831  0.4832 -0.9964 -0.5321
  100MOL    H1223970   4.659   3.432   1.904  1.9419  0.0638 -1.3732
  100MOL    H1323971   4.770   3.646   1.493  1.4300 -0.1243  1.3952
  100MOL    C1423972   4.495   3.599   1.562 -0.1786 -0.1638 -0.2711
  100MOL    C1523973   4.375   3.694   1.542 -0.4122  0.0694 -0.0081
  100MOL    C1623974   4.303   3.717   1.675 -0.3001  0.8330  0.0262
  100MOL    C1723975   4.219   3.589   1.712  0.2486 -0.1988  0.3549
  100MOL    H1823976   4.457   3.510   1.611 -2.1244  0.4321 -0.6463
  100MOL    H1923977   4.536   3.554   1.472 -1.2928 -0.1867 -0.7768
  100MOL    H2023978   4.424   3.789   1.518 -1.6316  0.6932 -0.0627
  100MOL    H2123979   4.238   3.804   1.665 -0.0130  1.0156 -0.2510
  100MOL    H2223980   4.375   3.738   1.754  0.3447 -0.8934 -0.0673
  100MOL    H2323981   4.139   3.576   1.640  0.2347 -1.4828  0.5888
  100MOL    H2423982   4.283   3.500   1.706  0.4823  0.0743 -1.4057
  100MOL    H2523983   4.191   3.600   1.817  2.0582  2.0941  0.6316
  100MOL    C2623984   4.297   3.639   1.425 -0.1442 -0.3825 -0.4397
  100MOL    C2723985   4.169   3.718   1.383  0.0186 -0.1598 -0.0052
  100MOL    C2823986   4.104   3.654   1.263 -0.0622  0.0223 -0.1049
  100MOL    C2923987   4.025   3.530   1.308 -0.0943 -0.4408 -0.8603
  100MOL    H3023988   4.268   3.535   1.440 -0.2638  0.0044  2.1452
  100MOL    H3123989   4.363   3.635   1.338 -0.3972 -2.1961 -0.5828
  100MOL    H3223990   4.099   3.724   1.466 -0.5505  1.4186 -0.5765
  100MOL    H3323991   4.176   3.621   1.187  1.0414  2.2537 -0.0805
  100MOL    H3423992   4.040   3.719   1.204  0.6866 -0.0690 -1.0521
  100MOL    H3523993   3.940   3.548   1.374 -1.1561 -0.4000 -2.2057
  100MOL    H3623994   4.005   3.476   1.215  2.8368 -0.2067 -1.6674
  100MOL    H3723995   4.092   3.461   1.359  0.0592  0.4867  0.2192
  100MOL    C3823996   4.196   3.869   1.353 -0.4151 -0.1628 -0.2878
  100MOL    C3923997   4.309   3.903   1.258 -0.7193  0.6854  0.0560
  100MOL    C4023998   4.364   4.049   1.294  0.4800  0.7788  0.2032
  100MOL    C4123999   4.430   4.058   1.435  0.2849  0.2326  0.8062
  100MOL    H4224000   4.211   3.906   1.455 -1.1574  0.1020 -0.2723
  100MOL    H4324001   4.109   3.922   1.315  0.3159  2.2012  1.1884
  100MOL    H4424002   4.403   3.852   1.279  0.1456  2.5448  0.7813
  100MOL    H4524003   4.281   4.119   1.282 -0.4072 -0.2598  0.2094
  100MOL    H4624004   4.430   4.085   1.215  2.1270 -1.3899  0.5422
  100MOL    H4724005   4.496   3.973   1.450  0.6881  0.8611  2.7283
  100MOL    H4824006   4.485   4.151   1.449  0.1396  0.2794  1.0714
  100MOL    H4924007   4.354   4.058   1.513 -1.5582  2.1832 -0.9412
  100MOL    C5024008   4.271   3.899   1.109  0.8477 -0.2877 -0.4615
  100MOL    C5124009   4.378   3.906   1.003 -0.6163 -0.2504 -0.7919
  100MOL    C5224010   4.317   3.941   0.866 -0.4714  0.3975 -0.0673
  100MOL    C5324011   4.421   3.960   0.761 -0.5885  1.2459 -0.2333
  100MOL    H5424012   4.201   3.979   1.084 -0.4200 -2.0357 -2.6399
  100MOL    H5524013   4.222   3.803   1.094  1.3062 -0.9516  2.0703
  100MOL    H5624014   4.442   3.988   1.037 -0.7567  0.3040 -1.8507
  100MOL    H5724015   4.272   4.040   0.875  0.5856  0.7525  1.6531
  100MOL    H5824016   4.231   3.877   0.845 -0.3118  0.5780 -1.2543
  100MOL    H5924017   4.479   4.040   0.807 -0.5999  0.1005  1.8211
  100MOL    H6024018   4.480   3.872   0.738 -0.1191  1.5213 -0.0921
  100MOL    H6124019   4.380   3.999   0.668 -2.8621 -0.8798 -0.1619
  100MOL    C6224020   4.473   3.787   1.003 -0.7395 -0.6150 -0.0596
  100MOL    C6324021   4.626   3.811   0.987 -0.0996 -0.3573 -0.0554
  100MOL    C6424022   4.691   3.679   0.939 -0.0697 -0.2652  0.4376
  100MOL    C6524023   4.840   3.684   0.921  0.2698 -0.2412  0.2816
  100MOL    H6624024   4.432   3.717   0.930 -0.2632 -0.4483 -0.4889
  100MOL    H6724025   4.458   3.733   1.097  1.1756 -0.4492  0.3567
  100MOL    H6824026   4.632   3.879   0.902  1.4779 -2.3619 -1.5919
  100MOL    H6924027   4.636   3.640   0.853 -0.7195  0.9178  0.3027
  100MOL    H7024028   4.677   3.602   1.015 -0.8450 -2.3444 -1.7159
  100MOL    H7124029   4.876   3.711   1.021  0.8942  0.1437 -0.0459
  100MOL    H7224030   4.879   3.585   0.898 -0.1489 -0.1232 -0.9422
  100MOL    H7324031   4.856   3.764   0.849 -2.0504 -0.8788 -0.9886
  100MOL    C7424032   4.682   3.863   1.121 -0.0681  0.3523  0.1574
  100MOL    C7524033   4.795   3.960   1.106 -0.2769 -0.0959  0.5308
  100MOL    C7624034   4.885   3.969   1.231  0.4870  0.2049 -0.0067
  100MOL    C7724035   4.828   4.033   1.357  0.5190  0.4924  0.2337
  100MOL    H7824036   4.716   3.782   1.185 -4.2531 -0.5784  1.3681
  100MOL    H7924037   4.606   3.918   1.176 -1.9649 -1.2702 -0.7621
  100MOL    H8024038   4.858   3.923   1.025  1.9167  1.0894  1.6463
  100MOL    H8124039   4.984   4.006   1.201 -0.1976  0.9967 -1.3324
  100MOL    H8224040   4.907   3.865   1.256  2.0072  0.9992  2.1364
  100MOL    H8324041   4.721   4.012   1.354  0.5016  0.6392 -0.1552
  100MOL    H8424042   4.867   3.989   1.449  0.7420 -0.7241 -0.4364
  100MOL    H8524043   4.843   4.140   1.369 -0.4331  0.6839 -0.1691
  100MOL    C8624044   4.754   4.101   1.055  0.7577 -0.3409  0.9188
  100MOL    C8724045   4.859   4.217   1.033  0.1424 -0.2441  0.3331
  100MOL    C8824046   4.780   4.344   0.983 -0.2365  0.2882  0.2501
  100MOL    C8924047   4.750   4.338   0.831 -0.5730  0.6842  0.4005
  100MOL    H9024048   4.685   4.147   1.126  1.6011  0.6056  1.1351
  100MOL    H9124049   4.691   4.083   0.968  1.1143 -1.5608  0.9125
  100MOL    H9224050   4.900   4.240   1.131 -1.3407 -0.2961  0.9776
  100MOL    H9324051   4.836   4.434   1.005 -1.2638  1.1143 -0.4873
  100MOL    H9424052   4.696   4.353   1.052  0.0390 -1.3907  0.8520
  100MOL    H9524053   4.686   4.417   0.792 -2.2324 -0.4846  0.6883
  100MOL    H9624054   4.839   4.355   0.771 -1.5635 -1.7535 -1.8204
  100MOL    H9724055   4.710   4.240   0.807  0.5311  0.0173  1.2462
  100MOL    C9824056   4.974   4.166   0.945 -0.2576  0.5701 -0.3742
  100MOL    C9924057   5.086   4.271   0.913 -0.2230 -0.3035 -0.1914
  100MOL   C10024058   5.182   4.212   0.806 -0.0785 -0.2275  0.8664
  100MOL   C10124059   5.130   4.214   0.660  0.3476 -0.0767 -0.1763
  100MOL   H10224060   4.925   4.128   0.855  0.4837  0.0825 -0.5814
  100MOL   H10324061   5.026   4.084   0.995  0.2897  0.3072 -1.3470
  100MOL   H10424062   5.058   4.370   0.878  1.0300  0.2732  0.3647
  100MOL   H10524063   5.207   4.109   0.834  1.1663  0.3241  1.8551
  100MOL   H10624064   5.279   4.262   0.814 -1.0940  1.9545 -0.0036
  100MOL   H10724065   5.085   4.312   0.645  0.2636  0.2550  2.0473
  100MOL   H10824066   5.211   4.189   0.591  0.1325 -1.5485  0.0859
  100MOL   H10924067   5.045   4.152   0.632  0.2194  0.3137 -0.6583
  100MOL   C11024068   5.169   4.298   1.045  0.5868 -0.3775 -0.0290
  100MOL   C11124069   5.185   4.447   1.073 -0.5701  0.2106 -0.2437
  100MOL   C11224070   5.275   4.512   0.967  0.3542  0.2691  0.1154
  100MOL   C11324071   5.425   4.475   0.968 -0.9780 -0.1149 -0.6252
  100MOL   H11424072   5.263   4.243   1.043  0.7507 -0.3202  2.9989
  100MOL   H11524073   5.114   4.254   1.129 -2.2514 -1.0424 -2.1842
  100MOL   H11624074   5.088   4.494   1.056 -1.2794 -1.4355 -0.7895
  100MOL   H11724075   5.283   4.620   0.981  3.9540  0.0301  0.2395
  100MOL   H11824076   5.236   4.497   0.867 -0.4015  0.4747  0.3736
  100MOL   H11924077   5.443   4.369   0.950 -1.0514  0.1763 -2.4972
  100MOL   H12024078   5.463   4.513   0.874 -0.8220  1.6285  0.1252
  100MOL   H12124079   5.489   4.501   1.052 -1.7290  0.3485 -0.1905
  100MOL   C12224080   5.242   4.485   1.216 -0.1721  0.1326  0.3452
  100MOL   C12324081   5.140   4.479   1.333  0.2087  0.6323  0.1553
  100MOL   C12424082   5.011   4.563   1.310 -0.2186  0.1381  0.2316
  100MOL   C12524083   5.034   4.715   1.320 -0.4508 -0.0272 -0.2389
  100MOL   H12624084   5.288   4.583   1.207  0.4740 -0.2461 -0.6503
  100MOL   H12724085   5.323   4.418   1.242  0.6972  0.7433 -0.7494
  100MOL   H12824086   5.111   4.374   1.333 -1.3771  1.0126  2.6307
  100MOL   H12924087   4.932   4.540   1.382 -1.9890 -1.2452 -2.0891
  100MOL   H13024088   4.952   4.538   1.222 -1.2832  2.4760  0.2233
  100MOL   H13124089   4.938   4.767   1.315 -0.7091 -0.3431  1.3135
  100MOL   H13224090   5.089   4.741   1.410  0.5168  0.4413 -0.9475
  100MOL   H13324091   5.097   4.748   1.237  2.4452 -1.7854  1.1872
  100MOL   C13424092   5.214   4.495   1.468  0.6840 -0.4198 -0.3297
  100MOL   C13524093   5.126   4.485   1.597 -1.1229 -0.7868 -0.4753
  100MOL   C13624094   5.200   4.529   1.724 -0.2392 -0.1511 -0.3348
  100MOL   C13724095   5.315   4.430   1.768 -0.6892  0.5833 -0.4401
  100MOL   H13824096   5.254   4.597   1.474 -0.6363  0.1289 -0.5741
  100MOL   H13924097   5.300   4.429   1.461  0.1583 -1.3033  1.4010
  100MOL   H14024098   5.053   4.565   1.581  1.1959  2.0235  2.3180
  100MOL   H14124099   5.132   4.545   1.808 -0.6548  0.4120 -0.7725
  100MOL   H14224100   5.242   4.627   1.702  2.3003 -0.9941  0.5974
  100MOL   H14324101   5.394   4.425   1.693 -0.6261 -2.0910 -0.2291
  100MOL   H14424102   5.359   4.452   1.865  1.4093 -2.7269 -0.5769
  100MOL   H14524103   5.271   4.336   1.800 -2.7124  1.2951 -1.0109
  100MOL   C14624104   5.055   4.351   1.607 -0.4355  0.8638 -0.4091
  100MOL   C14724105   4.957   4.331   1.730 -0.4156  0.9263  0.4133
  100MOL   C14824106   4.891   4.195   1.703 -0.3601 -0.1555  0.3529
  100MOL   C14924107   4.981   4.068   1.712 -0.6214 -1.0296  0.1433
  100MOL   H15024108   5.135   4.277   1.610 -0.1777  1.1683  0.7260
  100MOL   H15124109   5.000   4.334   1.515 -1.9102 -0.2009  0.6630
  100MOL   H15224110   5.019   4.336   1.819 -0.5808 -0.4686  0.6155
  100MOL   H15324111   4.830   4.189   1.613 -1.1473 -0.0159  0.8702
  100MOL   H15424112   4.817   4.183   1.782  0.7635 -1.9899  1.1534
  100MOL   H15524113   4.939   3.978   1.756 -1.0657 -0.0572  1.7465
  100MOL   H15624114   5.014   4.046   1.610 -0.1202  1.9765 -0.4135
  100MOL   H15724115   5.060   4.092   1.783 -0.0554  1.0129 -1.1362
  100MOL   C15824116   4.846   4.437   1.731  0.6247  0.0954 -0.2147
  100MOL   C15924117   4.753   4.448   1.847  0.1299  0.4599 -0.4343
  100MOL   C16024118   4.643   4.549   1.832  0.2065 -0.2829  0.6548
  100MOL   C16124119   4.554   4.551   1.700 -0.1752  0.6590  0.1790
  100MOL   H16224120   4.788   4.408   1.643 -1.4024 -1.4638  1.6000
  100MOL   H16324121   4.890   4.535   1.713 -1.4828  1.1292  0.0717
  100MOL   H16424122   4.701   4.353   1.856 -1.0885  1.1559  0.0776
  100MOL   H16524123   4.683   4.650   1.843 -0.9658  0.3189 -0.5163
  100MOL   H16624124   4.580   4.530   1.918 -1.7196  0.1090 -0.6361
  100MOL   H16724125   4.503   4.647   1.702 -0.1783  0.6636 -0.1580
  100MOL   H16824126   4.606   4.544   1.605 -4.0541 -0.0148 -2.0123
  100MOL   H16924127   4.488   4.464   1.698  0.8334 -0.0957 -0.9690
  100MOL   C17024128   4.818   4.479   1.988  0.2302  1.0341  0.1507
  100MOL   C17124129   4.810   4.357   2.082  0.0032 -0.5315  0.1429
  100MOL   C17224130   4.663   4.325   2.117  0.2535 -0.3909 -1.2374
  100MOL   C17324131   4.650   4.178   2.153 -0.2834  0.6861  0.2074
  100MOL   H17424132   4.768   4.550   2.054 -0.3928  1.4435 -0.7613
  100MOL   H17524133   4.922   4.502   1.966  0.5529  0.9443  1.5271
  100MOL   H17624134   4.851   4.276   2.022  1.3635 -1.4685  2.2872
  100MOL   H17724135   4.599   4.338   2.030 -3.6312  1.9033  1.8262
  100MOL   H17824136   4.624   4.398   2.187  0.1472 -0.7820 -0.8915
  100MOL   H17924137   4.710   4.153   2.241 -0.4971  0.6359  0.3386
  100MOL   H18024138   4.549   4.141   2.169 -0.1248 -0.5576 -1.5172
  100MOL   H18124139   4.697   4.121   2.073 -1.4513 -1.8657  1.2788
  100MOL   C18224140   4.911   4.366   2.201  0.0475  0.5838  0.3279
  100MOL   C18324141   5.064   4.337   2.172 -0.0789  0.4150  0.0663
  100MOL   C18424142   5.093   4.205   2.098 -0.1370  0.4325  0.3657
  100MOL   C18524143   5.049   4.076   2.159 -0.4130 -0.1413  0.4698
  100MOL   H18624144   4.881   4.285   2.268  4.2333 -0.4640  1.0936
  100MOL   H18724145   4.901   4.464   2.248  2.1024  1.3266 -0.7099
  100MOL   H18824146   5.101   4.412   2.102 -0.3399  0.7981  0.3389
  100MOL   H18924147   5.200   4.195   2.083 -0.6787 -2.0354 -2.2012
  100MOL   H19024148   5.055   4.210   1.996 -0.6901 -3.6257  0.2940
  100MOL   H19124149   4.942   4.068   2.137 -0.6694  0.6197  1.4256
  100MOL   H19224150   5.105   3.998   2.108 -0.1319 -0.1713  0.8226
  100MOL   H19324151   5.066   4.067   2.266 -1.5496 -0.7399  0.6113
  100MOL   C19424152   5.152   4.352   2.296 -0.0517  0.1622  0.6329
  100MOL   C19524153   5.130   4.472   2.399 -0.3458 -0.3098  0.8034
  100MOL   C19624154   5.160   4.607   2.330  0.1786  0.0258  0.0121
  100MOL   C19724155   5.096   4.728   2.398 -0.0445 -0.4012  0.3867
  100MOL   H19824156   5.249   4.349   2.248  1.2331  3.8706  2.7427
  100MOL   H19924157   5.146   4.254   2.342 -1.5924  0.6343  1.4963
  100MOL   H20024158   5.024   4.475   2.424 -0.4070 -0.4177  0.5608
  100MOL   H20124159   5.124   4.608   2.228 -0.8995  1.4353  0.3966
  100MOL   H20224160   5.266   4.631   2.332 -0.1753  1.6785 -0.6918
  100MOL   H20324161   5.140   4.740   2.497 -0.7552  2.3394  0.3990
  100MOL   H20424162   5.124   4.812   2.334 -1.1209 -1.1612 -1.0817
  100MOL   H20524163   4.987   4.729   2.396 -0.0904 -1.4379  1.8190
  100MOL   C20624164   5.225   4.440   2.522  0.2071  0.6798  0.0440
  100MOL   C20724165   5.167   4.487   2.652 -0.3237 -0.2612  0.1888
  100MOL   C20824166   5.284   4.488   2.749 -0.4650  0.0922 -0.4971
  100MOL   C20924167   5.380   4.611   2.734 -0.5920 -0.2205  0.0944
  100MOL   H21024168   5.323   4.478   2.493  1.6772  1.3542  5.2975
  100MOL   H21124169   5.230   4.331   2.529 -0.2142  0.6908  0.5315
  100MOL   H21224170   5.131   4.589   2.637  1.5349  0.4009  0.0316
  100MOL   H21324171   5.334   4.392   2.743 -2.2130 -0.8202 -0.7860
  100MOL   H21424172   5.237   4.486   2.847 -1.1402  3.0651 -0.7042
  100MOL   H21524173   5.436   4.606   2.641 -1.2035  1.3355 -0.3775
  100MOL   H21624174   5.325   4.704   2.744 -0.3984 -0.0879 -0.0696
  100MOL   H21724175   5.455   4.614   2.813  1.3824 -0.7239 -1.6930
  100MOL   C21824176   5.048   4.394   2.690 -0.2310 -0.3005 -0.1370
  100MOL   C21924177   4.927   4.467   2.760 -0.6496  0.3929  0.1979
  100MOL   C22024178   4.946   4.487   2.915 -0.2115  0.9308 -0.1986
  100MOL   C22124179   4.991   4.359   2.990 -0.0409  0.4348  0.0253
  100MOL   H22224180   5.086   4.322   2.763  0.2942 -1.1056 -1.1868
  100MOL   H22324181   5.009   4.339   2.605 -0.9602  0.0188 -0.0081
  100MOL   H22424182   4.926   4.567   2.716 -1.1232  0.5050  0.4587
  100MOL   H22524183   4.847   4.515   2.951 -0.4596 -0.9892  0.7049
  100MOL   H22624184   5.016   4.566   2.942  0.4277  0.9623 -1.9113
  100MOL   H22724185   4.925   4.282   2.951 -1.6601  1.0448  1.4740
  100MOL   H22824186   5.094   4.327   2.972  0.2588  0.1047  2.1859
  100MOL   H22924187   4.986   4.367   3.099  1.3831 -1.6486  0.2703
  100MOL   C23024188   4.793   4.393   2.730 -0.4396 -0.0208 -0.0425
  100MOL   C23124189   4.749   4.403   2.586  0.5814  0.0316 -0.2108
  100MOL   C23224190   4.615   4.338   2.555  0.0167 -0.4285 -0.6122
  100MOL   C23324191   4.615   4.187   2.538 -0.1996 -0.5853  0.3123
  100MOL   H23424192   4.716   4.434   2.795  0.0155 -0.9229  1.0702
  100MOL   H23524193   4.796   4.285   2.742  1.3881  0.0212 -0.0867
  100MOL   H23624194   4.756   4.509   2.558  3.2111 -0.9125 -3.4996
  100MOL   H23724195   4.582   4.386   2.464  0.0260 -0.4543 -0.6293
  100MOL   H23824196   4.549   4.369   2.636  1.0738  0.5088 -0.0922
  100MOL   H23924197   4.514   4.161   2.507 -0.4916 -0.0015  0.7613
  100MOL   H24024198   4.683   4.167   2.455 -3.0483 -1.2768 -1.9488
  100MOL   H24124199   4.630   4.128   2.628 -0.4311 -1.6861 -0.3630
  100MOL   H24224200   4.818   4.359   2.514 -1.7630 -0.0074 -2.5234
  101MOL     C124201   2.957   6.744   1.672  0.2191  0.4829 -0.5360
  101MOL     C224202   2.949   6.889   1.621  0.2322  0.5730  0.0392
  101MOL     C324203   2.946   7.001   1.729 -0.1653  0.1876  0.5523
  101MOL     C424204   3.037   6.957   1.855 -0.6030 -0.6851  0.7302
  101MOL     H524205   3.037   6.727   1.744 -2.6758 -0.1174  2.6280
  101MOL     H624206   2.857   6.716   1.705 -0.4526  1.9248 -1.3013
  101MOL     H724207   3.046   6.900   1.574 -1.1915  0.3781 -3.0533
  101MOL     H824208   2.846   7.016   1.771 -0.1776 -0.3288  0.7108
  101MOL     H924209   2.981   7.094   1.686 -0.4178 -0.8675 -1.9962
  101MOL    H1024210   3.139   6.937   1.822 -0.8508  0.2325 -0.6816
  101MOL    H1124211   3.034   7.038   1.928  1.1599  0.6185 -0.5910
  101MOL    H1224212   2.993   6.865   1.893  0.7103 -0.5079  2.7333
  101MOL    H1324213   2.979   6.677   1.589  0.3536 -0.7424  0.4854
  101MOL    C1424214   2.830   6.907   1.524  0.4308 -0.3215  0.9400
  101MOL    C1524215   2.819   7.039   1.440 -0.1221 -0.1579 -0.2404
  101MOL    C1624216   2.671   7.055   1.405 -0.6757  0.3572 -0.6929
  101MOL    C1724217   2.584   7.114   1.512 -0.0206  0.5715 -0.0623
  101MOL    H1824218   2.753   6.904   1.601  0.1063 -2.6365  0.5741
  101MOL    H1924219   2.814   6.824   1.455 -5.2337  0.2473  1.3850
  101MOL    H2024220   2.843   7.121   1.507 -0.4799  0.5381 -0.9593
  101MOL    H2124221   2.622   6.965   1.369  0.4551 -0.1274 -1.0233
  101MOL    H2224222   2.649   7.120   1.320  0.7106  0.6926 -0.8020
  101MOL    H2324223   2.626   7.208   1.546  0.7317 -0.1534  1.0505
  101MOL    H2424224   2.485   7.126   1.469 -0.1320 -0.8569 -0.2349
  101MOL    H2524225   2.565   7.053   1.601 -2.0722 -0.5987 -1.2629
  101MOL    C2624226   2.912   7.032   1.313 -0.0673 -0.1421  0.4143
  101MOL    C2724227   3.004   7.158   1.306  0.2774  0.3086  0.0881
  101MOL    C2824228   2.937   7.290   1.259  0.1793 -1.0542 -0.7037
  101MOL    C2924229   2.859   7.366   1.372  0.2741 -0.3763  0.0058
  101MOL    H3024230   2.856   7.020   1.220  0.5345 -1.3123  0.1895
  101MOL    H3124231   2.980   6.947   1.326  0.5992  0.3264  0.0450
  101MOL    H3224232   3.042   7.161   1.408  0.7150  1.6208 -0.1048
  101MOL    H3324233   2.869   7.274   1.175 -2.3205  0.4469  0.9573
  101MOL    H3424234   3.013   7.363   1.234  1.0228 -2.5734 -2.6971
  101MOL    H3524235   2.872   7.474   1.370  0.3046 -0.3955 -0.8656
  101MOL    H3624236   2.751   7.364   1.368  0.1640  4.0005 -2.7293
  101MOL    H3724237   2.902   7.350   1.472 -0.2583  1.7307  0.5900
  101MOL    C3824238   3.133   7.130   1.225  0.0031 -0.4147 -0.1660
  101MOL    C3924239   3.256   7.225   1.242  0.8294  0.1427 -0.0363
  101MOL    C4024240   3.352   7.242   1.122  0.5402 -0.3049 -0.1832
  101MOL    C4124241   3.450   7.362   1.116  0.4039 -0.8513 -0.6981
  101MOL    H4224242   3.106   7.122   1.120  1.6224 -0.8146 -0.5615
  101MOL    H4324243   3.170   7.032   1.254 -0.1990 -0.4194  0.0773
  101MOL    H4424244   3.217   7.325   1.262 -1.5305 -0.6912 -0.4050
  101MOL    H4524245   3.277   7.266   1.046 -0.3838  1.1524  1.1508
  101MOL    H4624246   3.400   7.146   1.105 -0.9523 -0.9036 -1.1776
  101MOL    H4724247   3.547   7.358   1.166  0.6553 -1.3660 -1.2279
  101MOL    H4824248   3.475   7.392   1.015 -1.1202  0.1768 -0.7827
  101MOL    H4924249   3.407   7.448   1.167  0.6603 -0.5236 -1.0323
  101MOL    C5024250   3.337   7.184   1.369  0.2428 -0.4622  0.2116
  101MOL    C5124251   3.366   7.298   1.467 -0.3377  0.5662 -0.3367
  101MOL    C5224252   3.481   7.259   1.565 -0.0881  0.2644  0.4618
  101MOL    C5324253   3.617   7.253   1.501  0.1972  0.2971  0.1097
  101MOL    H5424254   3.433   7.146   1.332 -0.2964 -0.3655 -1.3307
  101MOL    H5524255   3.286   7.109   1.430 -1.7919  0.2557 -0.5826
  101MOL    H5624256   3.388   7.387   1.409  0.3794 -0.2823 -1.3797
  101MOL    H5724257   3.461   7.160   1.606 -2.8101  1.2231  1.6121
  101MOL    H5824258   3.486   7.329   1.648 -0.5626  2.0871 -1.0010
  101MOL    H5924259   3.648   7.327   1.428  0.2795 -1.4152 -1.6530
  101MOL    H6024260   3.698   7.249   1.573  1.1236  0.7707 -0.8924
  101MOL    H6124261   3.637   7.157   1.453  1.0829  0.3023  0.4759
  101MOL    C6224262   3.236   7.334   1.543  0.1703 -0.7387  0.2907
  101MOL    C6324263   3.237   7.470   1.620  0.4996 -0.5033 -0.4702
  101MOL    C6424264   3.135   7.469   1.740  1.2641  0.2078 -0.4680
  101MOL    C6524265   3.173   7.371   1.855 -0.1001 -0.1865 -0.4929
  101MOL    H6624266   3.234   7.250   1.612 -0.3572 -1.6072 -0.7628
  101MOL    H6724267   3.149   7.343   1.478  0.0022  0.3304  0.6452
  101MOL    H6824268   3.336   7.484   1.663 -0.2275  3.3639  0.1329
  101MOL    H6924269   3.041   7.433   1.699  1.3417 -0.3739 -0.1447
  101MOL    H7024270   3.115   7.563   1.791  0.2875 -1.0747  1.5791
  101MOL    H7124271   3.088   7.380   1.923  1.1337 -0.1917  1.0586
  101MOL    H7224272   3.193   7.269   1.822 -2.6479 -0.6995 -0.5702
  101MOL    H7324273   3.259   7.400   1.916 -1.1411  2.2641 -0.1182
  101MOL    C7424274   3.205   7.592   1.519 -1.4495  0.1876  0.0824
  101MOL    C7524275   3.259   0.022   1.579  0.0345 -0.6139 -0.1631
  101MOL    C7624276   3.197   0.145   1.508 -0.4670 -0.1414 -0.4784
  101MOL    C7724277   3.263   0.280   1.540  0.6002 -0.9084 -0.6418
  101MOL    H7824278   3.102   7.583   1.486 -0.2473 -3.5223 -2.9064
  101MOL    H7924279   3.259   7.584   1.425  0.8184  0.0432  1.3450
  101MOL    H8024280   3.233   0.022   1.685  0.8426 -0.4682  0.0434
  101MOL    H8124281   3.090   0.152   1.530  0.3182  2.4421  2.9268
  101MOL    H8224282   3.224   0.129   1.404  0.2444 -0.3555 -0.2633
  101MOL    H8324283   3.218   0.360   1.480  0.5743 -0.2137  0.2974
  101MOL    H8424284   3.257   0.301   1.647 -1.1484  1.1071 -1.1027
  101MOL    H8524285   3.368   0.270   1.514  0.5791 -2.7555 -0.1029
  101MOL    C8624286   3.414   0.010   1.568 -0.2971  0.1586 -0.0194
  101MOL    C8724287   3.480   0.082   1.685 -0.2550  0.1972  0.0653
  101MOL    C8824288   3.624   0.127   1.628 -0.5400 -0.2695  0.6361
  101MOL    C8924289   3.706   0.023   1.556 -0.2416 -0.8252  0.1501
  101MOL    H9024290   3.439   0.052   1.471 -1.1089  0.4652 -0.1035
  101MOL    H9124291   3.461   7.618   1.561  0.4948  0.4582  0.9708
  101MOL    H9224292   3.431   0.177   1.703 -0.7152 -0.3536  1.8102
  101MOL    H9324293   3.669   0.191   1.705  2.8812  1.6616 -2.8107
  101MOL    H9424294   3.606   0.202   1.551 -2.2467 -1.2220  0.0782
  101MOL    H9524295   3.807   0.063   1.543 -0.3167 -0.4831  0.6048
  101MOL    H9624296   3.715   7.640   1.619 -0.6502 -0.5312  0.6271
  101MOL    H9724297   3.667   7.694   1.461 -3.9354  2.2949  0.4105
  101MOL    C9824298   3.492   0.004   1.819 -0.2970 -0.9885 -0.0172
  101MOL    C9924299   3.577   0.066   1.936 -0.5096  0.0263  0.2320
  101MOL   C10024300   3.618   7.666   2.038  0.1058 -0.4224 -0.5480
  101MOL   C10124301   3.522   7.602   2.130 -0.1085 -0.0527 -0.4405
  101MOL   H10224302   3.525   7.608   1.799 -1.6749 -1.2199 -1.1872
  101MOL   H10324303   3.389   0.009   1.855 -0.3679 -1.0073 -0.2134
  101MOL   H10424304   3.670   0.093   1.886  0.8941 -1.0901  2.1290
  101MOL   H10524305   3.702   7.702   2.098 -1.6827 -0.5247  2.0483
  101MOL   H10624306   3.660   7.579   1.986 -0.6485 -0.7975 -0.5286
  101MOL   H10724307   3.575   7.523   2.184  0.0466  1.1830  1.2743
  101MOL   H10824308   3.500   7.677   2.207 -1.5929 -0.1107 -0.8014
  101MOL   H10924309   3.425   7.574   2.089 -0.1404  1.4126 -1.4153
  101MOL   C11024310   3.518   0.202   1.973  0.2323  0.4785  0.9517
  101MOL   C11124311   3.586   0.260   2.099  0.2565 -0.3707 -0.3293
  101MOL   C11224312   3.514   0.386   2.169  0.3785  0.5333 -0.5627
  101MOL   C11324313   3.366   0.370   2.186  0.8840  0.7370  0.6073
  101MOL   H11424314   3.417   0.178   2.006 -0.5074  0.6847 -1.1439
  101MOL   H11524315   3.517   0.275   1.892 -0.7965  1.2507  1.6557
  101MOL   H11624316   3.581   0.187   2.180 -1.5816  0.0546 -0.0293
  101MOL   H11724317   3.556   0.472   2.117  0.0572  1.2286  0.3238
  101MOL   H11824318   3.565   0.393   2.264  2.4412  3.0215 -1.7868
  101MOL   H11924319   3.316   0.445   2.247 -1.1294 -0.5464  0.5897
  101MOL   H12024320   3.311   0.360   2.092  2.6605 -0.7380 -0.3011
  101MOL   H12124321   3.352   0.282   2.248  0.7338  0.6523  0.4556
  101MOL   C12224322   3.745   0.283   2.079  0.0423 -0.4130  0.3670
  101MOL   C12324323   3.828   0.315   2.207 -0.0702 -0.1576 -0.1809
  101MOL   C12424324   3.958   0.380   2.163 -0.1430 -0.0545  0.0463
  101MOL   C12524325   4.057   0.300   2.074  0.1527  0.8215 -0.4280
  101MOL   H12624326   3.760   0.371   2.016  0.8091 -1.5561 -1.0776
  101MOL   H12724327   3.794   0.201   2.027 -1.4334 -1.1522  0.1381
  101MOL   H12824328   3.779   0.391   2.268  1.8375  0.7417  0.2806
  101MOL   H12924329   4.020   0.427   2.239 -0.9572  1.0778  0.0277
  101MOL   H13024330   3.918   0.468   2.113 -1.4618 -0.3019  0.6336
  101MOL   H13124331   4.151   0.349   2.047  0.4704 -0.4574 -1.7157
  101MOL   H13224332   4.085   0.207   2.122 -1.2069  0.9556  0.6549
  101MOL   H13324333   4.008   0.269   1.982 -1.4887  0.4671  0.5510
  101MOL   C13424334   3.856   0.189   2.298 -0.5275 -0.4580  0.1651
  101MOL   C13524335   3.956   0.210   2.414 -0.3820 -0.0394  0.1977
  101MOL   C13624336   4.005   0.077   2.475 -0.7264  0.2352  0.0994
  101MOL   C13724337   4.087   7.696   2.378  0.1270 -0.2460 -0.2084
  101MOL   H13824338   3.898   0.114   2.231  0.6513 -0.7030  1.1750
  101MOL   H13924339   3.761   0.148   2.331 -0.7535  1.9841  2.7465
  101MOL   H14024340   4.041   0.262   2.370  0.5643 -1.8031 -0.0768
  101MOL   H14124341   3.923   0.007   2.489 -0.4104 -0.3182 -0.7496
  101MOL   H14224342   4.051   0.086   2.573  1.7614  1.6661 -1.1490
  101MOL   H14324343   4.160   0.043   2.317  1.7999 -2.6751 -0.3749
  101MOL   H14424344   4.131   7.610   2.428 -1.5682 -0.0206  1.7417
  101MOL   H14524345   4.009   7.657   2.313 -0.8509  1.1672  0.0996
  101MOL   C14624346   3.882   0.294   2.522  0.1299 -0.9368  0.1381
  101MOL   C14724347   3.966   0.372   2.626 -0.4261  0.2362 -0.1266
  101MOL   C14824348   3.882   0.378   2.760  0.1974  0.5280  0.0535
  101MOL   C14924349   3.902   0.241   2.841  0.4260 -0.5040 -1.1333
  101MOL   H15024350   3.814   0.229   2.577  0.4265 -1.9559 -0.6804
  101MOL   H15124351   3.807   0.359   2.475  0.1861 -1.1881 -0.3042
  101MOL   H15224352   4.058   0.322   2.655 -1.3478 -1.9756 -0.9085
  101MOL   H15324353   3.778   0.407   2.747 -0.1816  0.6205  3.1185
  101MOL   H15424354   3.920   0.452   2.829 -1.2787 -0.4957  2.0050
  101MOL   H15524355   3.835   0.234   2.928 -0.6265  0.5640 -1.8427
  101MOL   H15624356   3.882   0.154   2.778 -2.7617  0.3864 -1.4750
  101MOL   H15724357   4.002   0.226   2.881 -0.2064 -0.8443  0.3591
  101MOL   C15824358   3.994   0.511   2.558  0.5176 -0.6330  0.1142
  101MOL   C15924359   4.099   0.596   2.632  0.0077  0.5485 -0.8058
  101MOL   C16024360   4.090   0.743   2.599 -0.5546  0.3564 -0.0452
  101MOL   C16124361   4.115   0.774   2.450  0.1231 -0.4810  0.5034
  101MOL   H16224362   3.900   0.566   2.565  1.3205  0.7239  0.5439
  101MOL   H16324363   4.016   0.499   2.452  1.8654 -2.7889  0.6110
  101MOL   H16424364   4.079   0.587   2.739  0.2313  0.5154 -0.7651
  101MOL   H16524365   4.141   0.814   2.664 -1.3851  0.0808  0.9190
  101MOL   H16624366   3.984   0.766   2.605 -0.4168  0.7251  1.1515
  101MOL   H16724367   4.094   0.880   2.437  0.3380 -0.4326  0.5384
  101MOL   H16824368   4.216   0.751   2.415 -0.0865 -0.4156 -0.1441
  101MOL   H16924369   4.048   0.712   2.390  1.1907 -1.1906  0.0138
  101MOL   C17024370   4.239   0.533   2.604 -0.5408  0.0168 -0.4592
  101MOL   C17124371   4.355   0.585   2.693  0.4656 -0.3825 -0.1312
  101MOL   C17224372   4.426   0.705   2.637 -0.2035  0.1015  0.0535
  101MOL   C17324373   4.498   0.684   2.511 -0.7371 -0.8260  0.0914
  101MOL   H17424374   4.276   0.553   2.504  1.7069  1.4459  0.5942
  101MOL   H17524375   4.239   0.428   2.634  0.0184  0.4756  1.2626
  101MOL   H17624376   4.308   0.621   2.785  3.0124 -1.6689  1.7673
  101MOL   H17724377   4.502   0.739   2.707 -0.1310 -1.6720  0.8614
  101MOL   H17824378   4.367   0.797   2.628  1.0920  0.7550 -1.9624
  101MOL   H17924379   4.580   0.613   2.522  0.7502  1.0392  1.3453
  101MOL   H18024380   4.428   0.664   2.429 -1.4837  3.9781 -0.5629
  101MOL   H18124381   4.555   0.767   2.469 -0.5468 -1.2877 -0.5805
  101MOL   C18224382   4.440   0.465   2.744  0.1934 -0.1769  0.7673
  101MOL   C18324383   4.561   0.505   2.832  0.4518 -0.7201 -0.4653
  101MOL   C18424384   4.619   0.364   2.859 -0.5087  1.1686  0.1137
  101MOL   C18524385   4.715   0.317   2.763  0.4424 -0.0350 -0.1237
  101MOL   H18624386   4.475   0.413   2.655 -0.3718 -0.4188  0.6869
  101MOL   H18724387   4.372   0.399   2.797  0.6221  0.2819  1.9133
  101MOL   H18824388   4.633   0.558   2.769 -1.3105  0.0481 -1.8602
  101MOL   H18924389   4.549   0.284   2.883  1.8399 -0.7943  0.6124
  101MOL   H19024390   4.679   0.368   2.950  0.7380 -0.0839 -0.6476
  101MOL   H19124391   4.676   0.339   2.664 -0.3302  1.3658  0.4886
  101MOL   H19224392   4.815   0.361   2.760  0.8602 -0.9889 -0.7065
  101MOL   H19324393   4.726   0.210   2.782  1.3251  0.0848  0.1016
  101MOL   C19424394   4.520   0.596   2.956 -0.4221  0.1307 -0.6026
  101MOL   C19524395   4.636   0.642   3.047 -0.6261  0.1882  0.1113
  101MOL   C19624396   4.580   0.664   3.189 -0.0612 -0.1982  0.0969
  101MOL   C19724397   4.454   0.754   3.201 -0.3617  0.0828 -0.3183
  101MOL   H19824398   4.438   0.550   3.012 -0.9117  1.3084 -0.3428
  101MOL   H19924399   4.464   0.683   2.924  0.2168  0.7830  0.0319
  101MOL   H20024400   4.702   0.558   3.065  0.4368  0.6112 -1.6503
  101MOL   H20124401   4.656   0.712   3.252  0.5877 -2.0716  0.7645
  101MOL   H20224402   4.559   0.566   3.229  1.1075 -0.5724 -0.1757
  101MOL   H20324403   4.466   0.842   3.137 -0.9243 -0.7473 -1.5896
  101MOL   H20424404   4.370   0.695   3.167  0.6051 -0.8166 -1.1848
  101MOL   H20524405   4.448   0.789   3.304  0.6728 -0.7194  0.0237
  101MOL   C20624406   4.719   0.756   2.991 -0.3454  0.0074 -1.2018
  101MOL   C20724407   4.866   0.779   3.036 -0.0410  0.1873  0.5847
  101MOL   C20824408   4.947   0.653   3.001  0.1039 -0.2254 -0.4665
  101MOL   C20924409   4.979   0.622   2.856 -0.4955 -0.3065  0.1268
  101MOL   H21024410   4.659   0.847   3.000  0.7266  0.4307  2.5903
  101MOL   H21124411   4.723   0.741   2.883  2.4141 -2.7570 -0.7648
  101MOL   H21224412   4.909   0.855   2.970 -0.6488 -0.5221 -0.6301
  101MOL   H21324413   4.895   0.566   3.039 -1.8419  1.0292 -0.1639
  101MOL   H21424414   5.039   0.656   3.061 -0.6205 -0.8104  0.6892
  101MOL   H21524415   5.047   0.538   2.841  1.0316  0.6024  1.8369
  101MOL   H21624416   4.887   0.619   2.797 -0.3914  0.8912 -0.1025
  101MOL   H21724417   5.032   0.712   2.825 -0.6546 -1.2875 -3.2132
  101MOL   C21824418   4.887   0.805   3.187  0.7986  0.4141 -0.1437
  101MOL   C21924419   4.810   0.929   3.239  0.0956  0.0352 -0.0988
  101MOL   C22024420   4.857   1.062   3.175 -0.9082 -0.2690  0.0548
  101MOL   C22124421   4.779   1.176   3.232  0.5399  0.1550  0.1375
  101MOL   H22224422   4.993   0.811   3.213  1.0555  0.4197 -1.1565
  101MOL   H22324423   4.852   0.718   3.241  0.9181  0.2597 -0.3146
  101MOL   H22424424   4.705   0.915   3.211 -0.0788  1.8278 -0.4010
  101MOL   H22524425   4.843   1.062   3.067  0.4086 -0.2127 -0.1263
  101MOL   H22624426   4.959   1.097   3.194 -1.1946  1.4883 -1.5078
  101MOL   H22724427   4.778   1.179   3.341 -1.7968 -0.6579  0.1763
  101MOL   H22824428   4.796   1.275   3.188  0.1833 -0.1640 -0.7334
  101MOL   H22924429   4.674   1.161   3.204  0.1798  2.4097  0.1176
  101MOL   C23024430   4.822   0.928   3.398  0.2596  0.2948  0.2923
  101MOL   C23124431   4.962   0.956   3.449  0.5161 -0.8727 -0.7011
  101MOL   C23224432   4.960   0.969   3.602 -0.2113 -0.3184  0.4323
  101MOL   C23324433   5.103   0.953   3.660 -0.6815 -0.1477 -0.1590
  101MOL   H23424434   4.793   0.829   3.434 -0.3237  0.2282 -0.3666
  101MOL   H23524435   4.749   0.997   3.439  0.4787  1.5456 -1.3732
  101MOL   H23624436   5.019   0.865   3.430 -0.6159 -1.8121  0.3467
  101MOL   H23724437   4.901   0.890   3.648 -1.0952  0.3255  0.4047
  101MOL   H23824438   4.924   1.068   3.629 -1.5868 -1.3603  2.5902
  101MOL   H23924439   5.118   0.864   3.721 -1.2937 -1.0827 -1.3398
  101MOL   H24024440   5.181   0.949   3.583 -0.2394 -0.9502  0.3201
  101MOL   H24124441   5.118   1.029   3.736 -2.1306  0.3355 -0.3481
  101MOL   H24224442   5.008   1.045   3.406 -1.7130  0.8683  0.4314
  102MOL     C124443   2.791   5.387   5.891  0.3804  0.5804  0.1888
  102MOL     C224444   2.926   5.409   5.822 -0.1730 -0.4883 -0.2809
  102MOL     C324445   3.030   5.311   5.884 -0.3661 -0.2313  1.0074
  102MOL     C424446   3.151   5.276   5.789  0.1301  0.1767 -0.0002
  102MOL     H524447   2.793   5.425   5.993  0.3513 -2.8309  1.5496
  102MOL     H624448   2.715   5.444   5.838 -0.8142 -1.9513 -0.9510
  102MOL     H724449   2.921   5.372   5.720 -1.0628 -1.8508  0.2494
  102MOL     H824450   2.989   5.213   5.907 -0.2947 -0.6102 -0.4092
  102MOL     H924451   3.060   5.354   5.979  0.7471 -2.1662  1.5526
  102MOL    H1024452   3.137   5.192   5.722 -0.5994 -0.1051  0.5065
  102MOL    H1124453   3.176   5.363   5.728  0.4492  0.5826  0.6877
  102MOL    H1224454   3.239   5.258   5.851  0.3000  0.0114 -0.2881
  102MOL    H1324455   2.758   5.283   5.885  0.5113  0.4413  1.6418
  102MOL    C1424456   2.972   5.554   5.829 -0.5007  0.1061 -0.0319
  102MOL    C1524457   2.900   5.655   5.724  0.6459  0.0258  0.1841
  102MOL    C1624458   2.878   5.596   5.585  0.8947 -0.6103  0.6481
  102MOL    C1724459   3.015   5.551   5.516 -0.9311  0.2096 -0.5386
  102MOL    H1824460   3.080   5.558   5.818 -0.6395  0.0815 -1.4229
  102MOL    H1924461   2.964   5.583   5.934 -0.1438  1.2142 -0.3108
  102MOL    H2024462   2.799   5.678   5.760  0.8912  1.1515  0.1765
  102MOL    H2124463   2.827   5.670   5.523  1.3500  0.9895  2.1383
  102MOL    H2224464   2.813   5.509   5.595  1.2396 -0.9541 -0.0830
  102MOL    H2324465   3.082   5.634   5.494  1.4758 -1.0612  1.6842
  102MOL    H2424466   3.078   5.478   5.569 -2.1598  0.7923  1.7725
  102MOL    H2524467   2.991   5.503   5.421 -2.3178 -1.8197  0.7963
  102MOL    C2624468   2.965   5.799   5.728  0.9017  0.2554 -0.3148
  102MOL    C2724469   2.900   5.884   5.838 -0.2529 -0.1601 -0.0747
  102MOL    C2824470   2.767   5.945   5.795 -0.0742  0.5431 -0.4324
  102MOL    C2924471   2.668   5.985   5.905 -0.2447  0.1522  0.3626
  102MOL    H3024472   2.942   5.853   5.636 -4.0138 -1.6027 -0.3243
  102MOL    H3124473   3.072   5.809   5.745  0.5912  2.0390  0.6667
  102MOL    H3224474   2.888   5.807   5.914  1.9475 -0.4342  0.0178
  102MOL    H3324475   2.707   5.874   5.738 -0.9905 -0.4016  1.6413
  102MOL    H3424476   2.768   6.032   5.728 -0.7108 -0.5202 -1.8460
  102MOL    H3524477   2.562   5.973   5.882 -0.4674  1.2205  0.7981
  102MOL    H3624478   2.693   5.930   5.996 -0.1212  0.5086  0.5466
  102MOL    H3724479   2.684   6.088   5.938  2.7973  0.7163 -2.5520
  102MOL    C3824480   2.996   5.981   5.900 -0.1869 -0.5416  0.9824
  102MOL    C3924481   3.037   6.102   5.816  0.1864 -0.3185  0.2875
  102MOL    C4024482   3.193   6.118   5.793  0.2821  0.3911 -0.2524
  102MOL    C4124483   3.255   5.998   5.729  0.2622 -0.0181  0.1651
  102MOL    H4224484   3.084   5.931   5.941  1.0190  1.5290  0.9807
  102MOL    H4324485   2.943   6.015   5.988 -0.5937 -1.4323  1.0863
  102MOL    H4424486   3.008   6.088   5.712  1.0194  1.4872 -0.2162
  102MOL    H4524487   3.234   6.141   5.891  4.0722  0.3399 -1.7608
  102MOL    H4624488   3.213   6.205   5.730  3.9507  1.9221  2.8771
  102MOL    H4724489   3.253   5.908   5.790  4.1843  0.2050  0.7500
  102MOL    H4824490   3.194   5.961   5.646  0.1615 -0.3978  0.4037
  102MOL    H4924491   3.355   6.033   5.704 -0.2913  1.6914  0.2977
  102MOL    C5024492   2.980   6.238   5.862 -0.1115 -0.1353  0.2070
  102MOL    C5124493   2.953   6.343   5.751  0.1778  0.0020  0.0005
  102MOL    C5224494   2.947   6.490   5.816 -0.4183  0.2903 -0.2065
  102MOL    C5324495   3.071   6.532   5.891  0.1706 -0.8449 -0.3146
  102MOL    H5424496   3.052   6.283   5.931  0.1559  1.8100 -1.3180
  102MOL    H5524497   2.885   6.240   5.915 -1.6525  0.5042 -2.5340
  102MOL    H5624498   3.036   6.348   5.681 -0.8085  1.6448 -1.0795
  102MOL    H5724499   2.860   6.499   5.880 -1.7261 -0.2251 -1.8828
  102MOL    H5824500   2.942   6.563   5.735 -0.5594  0.5347  0.0213
  102MOL    H5924501   3.087   6.639   5.890 -0.3326 -0.7694 -3.3685
  102MOL    H6024502   3.062   6.500   5.995 -0.5738  0.6807  0.0995
  102MOL    H6124503   3.169   6.496   5.861  1.2985  1.2063  0.8129
  102MOL    C6224504   2.818   6.314   5.674  0.1631  0.2169 -0.5505
  102MOL    C6324505   2.785   6.401   5.551 -0.4128 -0.1698 -0.1768
  102MOL    C6424506   2.638   6.373   5.513 -0.2125  0.1922 -0.0331
  102MOL    C6524507   2.530   6.439   5.609 -0.0057 -0.3931  0.1046
  102MOL    H6624508   2.740   6.321   5.750  1.0307 -0.2497  0.3934
  102MOL    H6724509   2.830   6.211   5.641 -2.5492 -0.7713  1.3705
  102MOL    H6824510   2.788   6.507   5.576  1.9823  0.3210 -2.2643
  102MOL    H6924511   2.638   6.265   5.496  0.5869  0.4271 -1.5977
  102MOL    H7024512   2.618   6.412   5.413 -1.4726  0.9416  0.4888
  102MOL    H7124513   2.559   6.539   5.641  0.8672 -0.3305 -0.8592
  102MOL    H7224514   2.436   6.450   5.556  0.6769  1.8990 -0.6832
  102MOL    H7324515   2.493   6.378   5.692  3.3690 -0.1059  1.9123
  102MOL    C7424516   2.884   6.387   5.432  0.2963  0.0552  0.9055
  102MOL    C7524517   3.021   6.462   5.440 -0.8677 -0.0570 -0.5782
  102MOL    C7624518   3.029   6.561   5.315  0.3132 -0.3516  0.3233
  102MOL    C7724519   2.914   6.664   5.332 -0.1907  0.2226 -0.6018
  102MOL    H7824520   2.836   6.415   5.339  2.6683  0.1699 -0.3350
  102MOL    H7924521   2.903   6.281   5.418 -0.6630  0.1745 -1.4868
  102MOL    H8024522   3.041   6.522   5.529 -3.5169  1.3918 -0.9171
  102MOL    H8124523   3.015   6.508   5.221 -1.8536  0.6572  0.0432
  102MOL    H8224524   3.123   6.616   5.310  0.8731 -1.2556  0.8918
  102MOL    H8324525   2.925   6.741   5.255 -0.8183  0.1829 -0.7344
  102MOL    H8424526   2.812   6.629   5.315 -0.6900  0.9014  0.9286
  102MOL    H8524527   2.919   6.710   5.430 -1.5380  0.0717 -0.4532
  102MOL    C8624528   3.129   6.350   5.427 -1.0487  0.5649  0.2021
  102MOL    C8724529   3.279   6.399   5.424  0.0564 -0.0049  0.3438
  102MOL    C8824530   3.370   6.282   5.365 -0.1282  0.0361 -0.3283
  102MOL    C8924531   3.348   6.270   5.218  0.3298 -1.0229  0.6856
  102MOL    H9024532   3.106   6.316   5.326  0.6524  0.2105 -0.0747
  102MOL    H9124533   3.116   6.271   5.501  0.2391  0.1153 -0.0479
  102MOL    H9224534   3.288   6.477   5.348  1.6646  0.8436  1.3869
  102MOL    H9324535   3.355   6.189   5.419 -1.5072 -0.2828 -1.2423
  102MOL    H9424536   3.478   6.299   5.374 -0.3834  1.5879 -0.0479
  102MOL    H9524537   3.254   6.219   5.196  0.1688  0.2190 -1.6849
  102MOL    H9624538   3.364   6.363   5.165  0.3411 -0.4845  1.6215
  102MOL    H9724539   3.424   6.197   5.189  1.4237  0.7219 -0.9019
  102MOL    C9824540   3.320   6.455   5.559 -0.6794 -0.2526  0.1419
  102MOL    C9924541   3.459   6.520   5.573 -0.6008  0.4118 -0.1703
  102MOL   C10024542   3.484   6.576   5.716  0.0904 -0.4863 -0.3292
  102MOL   C10124543   3.419   6.702   5.770 -1.0435  0.7239  0.3453
  102MOL   H10224544   3.302   6.375   5.631  0.7223  0.6374  1.5174
  102MOL   H10324545   3.251   6.529   5.599  1.2606  1.1210  1.0433
  102MOL   H10424546   3.525   6.434   5.571  2.1694  2.3326  3.2245
  102MOL   H10524547   3.588   6.582   5.747  0.0710  0.9899 -0.5534
  102MOL   H10624548   3.464   6.498   5.790  0.7997 -0.3627 -0.0056
  102MOL   H10724549   3.313   6.696   5.748 -0.4004  0.3206 -2.7968
  102MOL   H10824550   3.445   6.710   5.876 -0.4719 -0.7466  0.3254
  102MOL   H10924551   3.449   6.794   5.720  0.9349  0.4404  0.9619
  102MOL   C11024552   3.496   6.629   5.470  0.5070  0.1305 -0.1956
  102MOL   C11124553   3.602   6.578   5.365  0.0461 -0.1029 -0.4544
  102MOL   C11224554   3.743   6.567   5.432  0.2670  0.0736 -0.0214
  102MOL   C11324555   3.856   6.488   5.365  0.0152  0.1171  0.7806
  102MOL   H11424556   3.532   6.715   5.527 -2.0624 -0.6831  2.8080
  102MOL   H11524557   3.404   6.663   5.423  0.8277  1.8409  0.3611
  102MOL   H11624558   3.568   6.482   5.326  0.3913 -1.1275  1.7142
  102MOL   H11724559   3.738   6.502   5.519  0.9136 -0.9790 -0.7723
  102MOL   H11824560   3.773   6.671   5.441 -1.0922  0.4633  0.2138
  102MOL   H11924561   3.808   6.398   5.326  0.6440  0.5001 -0.9409
  102MOL   H12024562   3.896   6.539   5.278 -2.1051  0.5303  0.0218
  102MOL   H12124563   3.943   6.474   5.430  1.0166 -0.5367 -0.6677
  102MOL   C12224564   3.605   6.691   5.256 -0.3749  0.0412 -0.2417
  102MOL   C12324565   3.527   6.665   5.130 -0.3562 -0.2049 -0.3843
  102MOL   C12424566   3.603   6.559   5.052 -0.2293 -0.6505 -0.7434
  102MOL   C12524567   3.729   6.596   4.974 -0.5861  0.4920  0.7056
  102MOL   H12624568   3.707   6.716   5.227 -0.3376 -0.2896 -0.3939
  102MOL   H12724569   3.571   6.787   5.297 -0.7540  0.6904 -2.0153
  102MOL   H12824570   3.440   6.613   5.172 -0.6358  0.5578 -0.0141
  102MOL   H12924571   3.523   6.518   4.990  0.9356 -1.9177 -1.4461
  102MOL   H13024572   3.638   6.478   5.115  1.5593  1.9028  1.6690
  102MOL   H13124573   3.704   6.670   4.897 -0.4755 -1.5218 -1.3121
  102MOL   H13224574   3.793   6.644   5.048  1.0640 -0.0311 -0.3318
  102MOL   H13324575   3.775   6.514   4.918 -0.1234  0.3672  1.2606
  102MOL   C13424576   3.497   6.800   5.062  0.6065  0.3139  0.4949
  102MOL   C13524577   3.400   6.789   4.932 -0.4248  0.3256 -0.6401
  102MOL   C13624578   3.391   6.927   4.876 -0.1917  0.2983  0.3650
  102MOL   C13724579   3.524   6.971   4.809  0.0111  0.4204 -0.5534
  102MOL   H13824580   3.587   6.851   5.027  0.3500 -0.1468 -0.8628
  102MOL   H13924581   3.441   6.852   5.140  0.3586  2.6541 -1.2047
  102MOL   H14024582   3.444   6.725   4.856 -0.1236 -0.0784 -0.1317
  102MOL   H14124583   3.359   7.004   4.946 -0.9547 -0.1699  0.5419
  102MOL   H14224584   3.315   6.925   4.797  0.2679 -1.5758 -0.0648
  102MOL   H14324585   3.597   6.899   4.773 -0.0931  0.0563 -0.0334
  102MOL   H14424586   3.499   7.035   4.723  1.4737  0.8253 -0.6937
  102MOL   H14524587   3.579   7.035   4.878 -0.2882  0.1950 -0.1106
  102MOL   C14624588   3.262   6.737   4.970 -0.2199  0.2059 -0.8780
  102MOL   C14724589   3.192   6.685   4.840 -0.0726 -0.1736  0.6957
  102MOL   C14824590   3.047   6.743   4.832  0.6041  0.5517  0.1949
  102MOL   C14924591   2.962   6.702   4.949  0.0479  0.0298 -0.3117
  102MOL   H15024592   3.212   6.819   5.022  0.1837 -0.0870 -0.0127
  102MOL   H15124593   3.278   6.652   5.035  0.1137  1.8286  1.2206
  102MOL   H15224594   3.241   6.726   4.752  0.4057  0.4221  1.2317
  102MOL   H15324595   2.999   6.708   4.740  2.7256 -2.3045  0.1023
  102MOL   H15424596   3.060   6.851   4.835 -1.0897  0.8094 -0.8637
  102MOL   H15524597   2.952   6.593   4.945  0.3564  0.0064 -0.4520
  102MOL   H15624598   2.994   6.754   5.039  1.5202 -0.2481 -0.6702
  102MOL   H15724599   2.860   6.740   4.940 -0.0733 -0.5202 -1.3538
  102MOL   C15824600   3.207   6.533   4.831 -0.2840 -0.0995 -0.2825
  102MOL   C15924601   3.183   6.461   4.698  0.1439 -0.3495  0.5306
  102MOL   C16024602   3.159   6.312   4.718  0.0084 -0.3411  0.8527
  102MOL   C16124603   3.011   6.285   4.743 -0.1444 -0.2555  0.8740
  102MOL   H16224604   3.144   6.489   4.908 -0.8383 -2.2080 -1.8955
  102MOL   H16324605   3.311   6.504   4.848  0.2001  0.8003 -1.6877
  102MOL   H16424606   3.091   6.504   4.660  0.5303 -1.2076 -1.4183
  102MOL   H16524607   3.222   6.268   4.795  1.4746 -1.1248 -0.7861
  102MOL   H16624608   3.179   6.268   4.621  1.6181 -0.4040  1.2130
  102MOL   H16724609   2.978   6.182   4.732 -0.1919 -0.0284 -1.4375
  102MOL   H16824610   2.985   6.314   4.845 -0.2057 -0.6781  0.9788
  102MOL   H16924611   2.946   6.333   4.669  0.2470 -2.0094 -0.6509
  102MOL   C17024612   3.299   6.492   4.593 -0.0778 -0.5213 -0.6234
  102MOL   C17124613   3.275   6.444   4.444  0.5487 -0.1839  0.0700
  102MOL   C17224614   3.404   6.469   4.362 -0.4166 -0.2471  0.2155
  102MOL   C17324615   3.537   6.402   4.408 -0.6620  0.4962 -0.6180
  102MOL   H17424616   3.394   6.463   4.637  0.0943  0.2138 -0.5175
  102MOL   H17524617   3.312   6.600   4.594 -0.4025 -0.4815  0.0028
  102MOL   H17624618   3.248   6.339   4.439 -1.1350  0.3252 -2.6258
  102MOL   H17724619   3.423   6.576   4.357  1.3862 -0.5828 -0.4152
  102MOL   H17824620   3.392   6.437   4.259  0.8865  1.1412 -0.3786
  102MOL   H17924621   3.617   6.399   4.334 -0.5144 -0.6671 -0.4303
  102MOL   H18024622   3.573   6.423   4.509 -0.9792 -2.6015  0.2023
  102MOL   H18124623   3.506   6.297   4.415 -0.2098  0.5192  2.4351
  102MOL   C18224624   3.162   6.537   4.377  0.2366 -0.0910  0.3179
  102MOL   C18324625   3.098   6.468   4.256  0.6626  0.0508  0.1118
  102MOL   C18424626   3.035   6.573   4.158  0.3436  0.4013 -0.8455
  102MOL   C18524627   2.912   6.633   4.224 -0.3490  0.3819  0.0992
  102MOL   H18624628   3.210   6.627   4.340  1.4883 -0.3598  1.2592
  102MOL   H18724629   3.089   6.565   4.453 -1.4898 -1.1267 -0.9164
  102MOL   H18824630   3.177   6.415   4.202  0.3978  1.8334 -2.0951
  102MOL   H18924631   3.015   6.534   4.059 -0.9255  2.6995 -1.5233
  102MOL   H19024632   3.107   6.651   4.133  0.4369  1.0143  1.1869
  102MOL   H19124633   2.825   6.570   4.242 -0.0331  0.0106  0.3460
  102MOL   H19224634   2.942   6.676   4.319 -1.5692 -1.3542  1.3082
  102MOL   H19324635   2.875   6.720   4.169  0.7664  0.2903 -0.8135
  102MOL   C19424636   3.002   6.355   4.291  0.6417  0.0155  0.1958
  102MOL   C19524637   2.961   6.260   4.167 -0.1242 -0.9325  0.1845
  102MOL   C19624638   2.840   6.170   4.215  0.3452 -0.1531 -0.6101
  102MOL   C19724639   2.713   6.159   4.134  0.1496  0.3391 -0.2370
  102MOL   H19824640   2.908   6.391   4.333  1.1799  1.3350  0.2893
  102MOL   H19924641   3.043   6.300   4.376 -2.9226  0.1025  2.1044
  102MOL   H20024642   2.936   6.321   4.080  1.4922  0.9927  1.0073
  102MOL   H20124643   2.813   6.193   4.318 -0.9840 -0.1258 -0.9647
  102MOL   H20224644   2.888   6.073   4.234 -0.6858 -0.0591  2.8828
  102MOL   H20324645   2.637   6.092   4.173 -1.9604  1.8480 -1.6688
  102MOL   H20424646   2.666   6.256   4.120  1.4945  0.9076 -0.9991
  102MOL   H20524647   2.734   6.122   4.033  1.5621  2.3852 -0.7264
  102MOL   C20624648   3.075   6.169   4.108 -0.0123 -0.5596 -0.1466
  102MOL   C20724649   3.060   6.102   3.968 -0.0013 -0.0089  0.2710
  102MOL   C20824650   3.169   5.988   3.932 -0.7245 -0.2010  0.3169
  102MOL   C20924651   3.159   5.874   4.028  0.7063  0.4401  0.0266
  102MOL   H21024652   3.099   6.094   4.184  1.2756  1.0310  1.0294
  102MOL   H21124653   3.170   6.221   4.102  0.3615 -1.0858  1.1179
  102MOL   H21224654   2.968   6.043   3.973  0.2650 -0.5428 -1.0184
  102MOL   H21324655   3.270   6.028   3.922 -0.2320 -1.7605 -1.4897
  102MOL   H21424656   3.142   5.951   3.833 -0.6746  0.4103  0.0715
  102MOL   H21524657   3.218   5.786   4.000  2.6218  1.9607 -0.7657
  102MOL   H21624658   3.212   5.899   4.120  2.1558  1.0964 -0.9833
  102MOL   H21724659   3.058   5.854   4.066 -0.1948 -0.0550 -2.5368
  102MOL   C21824660   3.037   6.202   3.848  0.7425 -0.0012  0.5247
  102MOL   C21924661   3.002   6.150   3.706  0.4461  0.0204  0.5183
  102MOL   C22024662   2.995   6.260   3.605  0.5099 -0.8079 -0.0229
  102MOL   C22124663   3.129   6.340   3.588  0.2572  0.1976  0.8982
  102MOL   H22224664   3.107   6.286   3.838  0.9986 -0.1943  0.6843
  102MOL   H22324665   2.954   6.268   3.872  0.2618  1.5187 -4.7934
  102MOL   H22424666   3.084   6.088   3.669  1.3900  0.7690  1.3245
  102MOL   H22524667   2.914   6.328   3.631  3.2610  2.5033  0.1499
  102MOL   H22624668   2.981   6.207   3.511 -0.2761  1.2048 -1.0705
  102MOL   H22724669   3.139   6.419   3.663 -1.9705  1.0329  0.3463
  102MOL   H22824670   3.220   6.281   3.577 -1.1562 -2.3011  2.0455
  102MOL   H22924671   3.127   6.399   3.497 -3.0356  0.1454  0.8662
  102MOL   C23024672   2.878   6.056   3.704  0.3636  0.0896 -0.5281
  102MOL   C23124673   2.863   5.980   3.566  0.6740  0.4926 -0.0516
  102MOL   C23224674   2.741   5.881   3.567 -0.0511 -0.2604  0.5694
  102MOL   C23324675   2.616   5.959   3.560 -0.3042  0.5504  0.1170
  102MOL   H23424676   2.797   6.128   3.714  0.3840 -0.0128  0.4021
  102MOL   H23524677   2.877   5.986   3.787  0.1095 -0.4109 -0.9565
  102MOL   H23624678   2.858   6.045   3.479  1.3218  1.5341  0.6762
  102MOL   H23724679   2.740   5.814   3.653  1.4058 -0.7744  0.2139
  102MOL   H23824680   2.761   5.805   3.491  1.6313  0.6491  0.0657
  102MOL   H23924681   2.630   6.032   3.480  2.1934  0.3596  0.3232
  102MOL   H24024682   2.527   5.903   3.531 -0.4497  1.0431 -0.3905
  102MOL   H24124683   2.590   5.996   3.659 -0.0984 -1.7372  1.0666
  102MOL   H24224684   2.950   5.915   3.556  0.2112 -0.0108 -0.8679
  103MOL     C124685   7.689   7.217   1.998 -0.2984 -0.4570  0.5545
  103MOL     C224686   7.597   7.329   2.043 -0.1066 -0.5010  0.2480
  103MOL     C324687   7.674   7.468   2.058  0.2692  0.0662 -0.7725
  103MOL     C424688   0.090   7.445   2.156  0.9696  0.1679 -0.7830
  103MOL     H524689   7.636   7.141   1.940  2.3890 -1.6601 -0.4502
  103MOL     H624690   0.064   7.249   1.932  1.0743 -1.9145  1.5004
  103MOL     H724691   7.531   7.344   1.957  0.5873  2.4540  0.1967
  103MOL     H824692   7.604   7.549   2.078  1.8031  1.0509  0.8040
  103MOL     H924693   0.005   7.492   1.958  0.8777  0.0159 -0.5634
  103MOL    H1024694   0.135   7.543   2.176  2.7130 -1.0886  1.7838
  103MOL    H1124695   0.044   7.407   2.247  0.5730 -2.3823 -2.0263
  103MOL    H1224696   0.171   7.375   2.138  2.9623  2.4667 -1.1461
  103MOL    H1324697   0.028   7.163   2.081  0.9605 -1.0041 -0.4586
  103MOL    C1424698   7.490   7.301   2.153  0.6429  0.2130 -0.5476
  103MOL    C1524699   7.350   7.240   2.117  0.5447  0.6866 -0.5332
  103MOL    C1624700   7.267   7.334   2.023 -0.4672  0.4297 -0.9409
  103MOL    C1724701   7.244   7.275   1.882  0.3464  0.0698  0.1902
  103MOL    H1824702   7.471   7.398   2.200 -0.0185  1.5394 -3.4286
  103MOL    H1924703   7.543   7.242   2.227  2.8998 -2.7796 -4.3374
  103MOL    H2024704   7.379   7.146   2.069  1.2186 -0.4019  1.9018
  103MOL    H2124705   7.296   7.439   2.025 -0.5332  0.4389 -0.1962
  103MOL    H2224706   7.167   7.345   2.064 -0.0563 -0.3033  0.3120
  103MOL    H2324707   7.173   7.193   1.899  0.2172  0.3495  0.9821
  103MOL    H2424708   7.192   7.330   1.803 -0.2252  0.3428  0.7616
  103MOL    H2524709   7.328   7.228   1.831  1.0103  0.0201  1.3263
  103MOL    C2624710   7.271   7.204   2.238  0.7271 -0.4949  0.3157
  103MOL    C2724711   7.139   7.122   2.229  0.6531  0.9187 -0.4877
  103MOL    C2824712   7.080   7.096   2.371 -0.6634 -0.3716 -0.5184
  103MOL    C2924713   7.032   7.213   2.454 -0.0741  0.0164 -0.9464
  103MOL    H3024714   7.235   7.287   2.299 -1.2993 -0.1639 -1.3045
  103MOL    H3124715   7.335   7.148   2.307  1.0302  1.1565  1.4195
  103MOL    H3224716   7.065   7.186   2.180 -0.0380  0.7226  0.2827
  103MOL    H3324717   7.157   7.044   2.428 -0.5112  0.4514  0.0422
  103MOL    H3424718   7.000   7.024   2.355 -1.2362  0.1869 -0.1908
  103MOL    H3524719   6.947   7.252   2.399  0.1472  2.2729  0.2406
  103MOL    H3624720   6.998   7.183   2.553 -0.0004 -2.2907 -1.6029
  103MOL    H3724721   7.101   7.293   2.480  1.1200 -1.9149  2.1547
  103MOL    C3824722   7.169   6.994   2.148  0.1076  0.2371 -0.8136
  103MOL    C3924723   7.046   6.906   2.117 -0.2951  0.4485  0.2667
  103MOL    C4024724   7.085   6.777   2.037  0.4085  0.5925  0.2880
  103MOL    C4124725   7.225   6.713   2.055  0.1912  0.5330  0.1531
  103MOL    H4224726   7.257   6.944   2.188 -0.6402  0.0569  0.6004
  103MOL    H4324727   7.205   7.010   2.046 -0.2378  0.3139 -0.9249
  103MOL    H4424728   6.992   6.878   2.207  0.6839 -2.9753 -0.1593
  103MOL    H4524729   7.081   6.810   1.933 -0.2404  1.3968  0.5609
  103MOL    H4624730   7.011   6.699   2.054  0.4331  0.5353  0.1270
  103MOL    H4724731   7.305   6.785   2.039  0.9744 -0.1726  0.8524
  103MOL    H4824732   7.226   6.659   2.150 -0.8946 -1.2051 -0.7950
  103MOL    H4924733   7.230   6.630   1.984  1.8705 -0.1161  1.0122
  103MOL    C5024734   6.932   6.981   2.044  0.2652  0.0003  0.0344
  103MOL    C5124735   6.791   6.901   2.037 -0.6106  0.0956 -0.0333
  103MOL    C5224736   6.696   6.945   1.932  0.0833  0.2706  0.0126
  103MOL    C5324737   6.722   6.888   1.797 -0.6333  0.6437  0.4127
  103MOL    H5424738   6.960   6.989   1.939  0.1497 -2.2782 -0.1870
  103MOL    H5524739   6.910   7.081   2.082 -0.2308 -0.0621 -0.0932
  103MOL    H5624740   6.816   6.801   2.002 -0.3691  0.3197 -0.5060
  103MOL    H5724741   6.696   7.054   1.932 -2.0110  0.3007  1.6393
  103MOL    H5824742   6.591   6.922   1.951  0.0971 -1.3661 -1.6782
  103MOL    H5924743   6.664   6.938   1.719 -1.1175  0.2464  0.5162
  103MOL    H6024744   6.825   6.880   1.765 -0.7674  2.6155 -0.6229
  103MOL    H6124745   6.674   6.791   1.811  0.4109 -0.3505 -2.5994
  103MOL    C6224746   6.724   6.885   2.177  0.6933  1.1222 -0.5444
  103MOL    C6324747   6.697   7.016   2.251  0.3254 -0.1906  0.1106
  103MOL    C6424748   6.711   7.000   2.407 -0.0552  0.3182 -0.1179
  103MOL    C6524749   6.599   6.915   2.475  0.0124 -0.2422  0.1360
  103MOL    H6624750   6.791   6.825   2.238 -0.7567  0.2774  0.2454
  103MOL    H6724751   6.632   6.829   2.160  1.3510 -0.1202 -0.0315
  103MOL    H6824752   6.774   7.091   2.232 -0.3813  1.0847  2.1838
  103MOL    H6924753   6.720   7.098   2.456  0.5775 -1.2690  3.0899
  103MOL    H7024754   6.799   6.943   2.435  0.7695  0.4987 -2.2574
  103MOL    H7124755   6.570   6.835   2.407  2.1234 -0.9553  0.0186
  103MOL    H7224756   6.648   6.873   2.563  1.1932  1.3122  0.2530
  103MOL    H7324757   6.516   6.975   2.511 -0.4616 -0.8954  0.1348
  103MOL    C7424758   6.564   7.086   2.208  0.0312  0.1141 -0.0760
  103MOL    C7524759   6.533   7.220   2.288 -0.2630 -0.7954  0.1473
  103MOL    C7624760   6.395   7.269   2.240 -0.0556 -0.6008 -0.0926
  103MOL    C7724761   6.275   7.183   2.275  0.4574 -0.0622  0.2455
  103MOL    H7824762   6.479   7.020   2.194 -0.0453  0.3334 -0.6523
  103MOL    H7924763   6.587   7.127   2.110  0.5198  1.3980  0.5487
  103MOL    H8024764   6.513   7.197   2.393  0.8203  1.1128  0.8024
  103MOL    H8124765   6.410   7.281   2.133  3.2905  0.6163  0.4461
  103MOL    H8224766   6.381   7.361   2.295 -0.4412 -0.2359 -0.7953
  103MOL    H8324767   6.190   7.217   2.215 -0.1057  0.0218  1.0827
  103MOL    H8424768   6.280   7.074   2.264  1.2123 -0.1316  1.2659
  103MOL    H8524769   6.244   7.224   2.371 -0.4901  1.4816 -0.6890
  103MOL    C8624770   6.647   7.329   2.271  0.0103 -0.3949  0.7731
  103MOL    C8724771   6.615   7.466   2.331  0.1343  0.5686 -0.1307
  103MOL    C8824772   6.721   7.571   2.291 -0.1242 -0.4009 -0.2043
  103MOL    C8924773   6.873   7.538   2.331 -0.2339  0.1204  0.2016
  103MOL    H9024774   6.679   7.336   2.167  0.4520 -1.2961  0.8462
  103MOL    H9124775   6.736   7.293   2.323  0.5884 -3.9982 -2.5003
  103MOL    H9224776   6.527   7.507   2.282  0.4912  0.7488 -0.6294
  103MOL    H9324777   6.703   7.670   2.334 -2.6833 -0.4849 -1.0019
  103MOL    H9424778   6.711   7.585   2.184 -1.4097  0.0433 -0.0266
  103MOL    H9524779   6.936   7.617   2.290 -0.2525 -0.3250 -0.7058
  103MOL    H9624780   6.893   7.506   2.433  0.8917  1.9416  0.5801
  103MOL    H9724781   6.909   7.452   2.274 -1.0526 -0.6212  0.8071
  103MOL    C9824782   6.588   7.450   2.487  0.2237  0.2322 -0.5172
  103MOL    C9924783   6.514   7.572   2.549 -0.0844  0.0329 -0.0840
  103MOL   C10024784   6.550   7.593   2.703 -0.2676 -0.2659  0.0608
  103MOL   C10124785   6.680   7.674   2.711  0.0538  0.5147 -0.2400
  103MOL   H10224786   6.681   7.448   2.544 -0.0263 -0.3379 -0.1287
  103MOL   H10324787   6.527   7.368   2.524 -0.9882  1.7526  0.9085
  103MOL   H10424788   6.554   7.656   2.491 -0.4529 -0.7613 -1.5195
  103MOL   H10524789   6.574   7.501   2.757  0.8869  1.4327  2.5586
  103MOL   H10624790   6.469   7.648   2.751  0.2415 -1.1016  1.9258
  103MOL   H10724791   6.670   0.067   2.665  1.2992  0.5272 -0.5249
  103MOL   H10824792   6.716   7.690   2.813  1.2948  1.8074 -0.8538
  103MOL   H10924793   6.761   7.623   2.659  0.0430 -0.5598  0.7878
  103MOL   C11024794   6.359   7.557   2.537  0.9594  0.6999 -0.4981
  103MOL   C11124795   6.259   7.671   2.571 -0.5314 -0.4779  0.0416
  103MOL   C11224796   6.118   7.613   2.599 -0.4437 -0.6422 -0.0434
  103MOL   C11324797   6.049   7.540   2.479 -0.0137  0.6219  0.2467
  103MOL   H11424798   6.333   7.474   2.603 -0.3122  0.5013 -1.2302
  103MOL   H11524799   6.335   7.531   2.434 -1.8735 -2.7054  0.9231
  103MOL   H11624800   6.293   0.012   2.664 -1.7658  0.2539  0.1295
  103MOL   H11724801   6.053   7.696   2.625 -0.6040 -0.8830  0.3354
  103MOL   H11824802   6.108   7.554   2.691  0.9311 -4.4182 -2.1945
  103MOL   H11924803   6.063   7.606   2.394 -0.8870 -0.5337 -0.8195
  103MOL   H12024804   6.084   7.439   2.459 -2.7388 -0.0056 -1.6240
  103MOL   H12124805   5.942   7.528   2.494 -0.0727 -1.0096 -1.3358
  103MOL   C12224806   6.255   0.076   2.459 -1.1205 -0.4604 -0.6301
  103MOL   C12324807   6.366   0.181   2.455 -0.8001 -0.8292  0.4085
  103MOL   C12424808   6.409   0.242   2.598 -0.1678 -0.1673 -0.4275
  103MOL   C12524809   6.297   0.328   2.667  0.2323 -0.8398  0.3360
  103MOL   H12624810   6.160   0.127   2.474 -0.1464  1.0337  0.6336
  103MOL   H12724811   6.246   0.046   2.355  1.1171  1.7455 -1.5170
  103MOL   H12824812   6.451   0.114   2.440 -0.3581 -0.0005 -0.8105
  103MOL   H12924813   6.491   0.310   2.574  0.5593 -0.5894  0.8150
  103MOL   H13024814   6.456   0.172   2.667  1.2671  0.3506 -0.8756
  103MOL   H13124815   6.218   0.267   2.713 -2.0185  1.5914 -0.2196
  103MOL   H13224816   6.331   0.396   2.745  0.3541  0.0468 -0.4886
  103MOL   H13324817   6.247   0.390   2.593 -1.2371 -2.8641 -0.4238
  103MOL   C13424818   6.347   0.284   2.342  0.1900 -0.2481  0.3238
  103MOL   C13524819   6.478   0.352   2.292 -0.1012 -0.0488 -0.6633
  103MOL   C13624820   6.446   0.440   2.162  0.3995 -0.0438  0.7990
  103MOL   C13724821   6.334   0.549   2.180 -0.3407  0.3148  0.3737
  103MOL   H13824822   6.275   0.361   2.370  0.9514  0.5485  0.1201
  103MOL   H13924823   6.301   0.239   2.254  0.3111 -0.8525  0.5664
  103MOL   H14024824   6.503   0.433   2.361  2.4115  0.5833 -2.2368
  103MOL   H14124825   6.408   0.376   2.082 -0.1806 -0.3694  1.3320
  103MOL   H14224826   6.539   0.476   2.117 -0.3515 -0.3383 -0.9962
  103MOL   H14324827   6.321   0.620   2.099 -2.1150 -0.7160 -0.2902
  103MOL   H14424828   6.238   0.499   2.197 -0.3129  0.8054  2.0752
  103MOL   H14524829   6.347   0.593   2.279 -1.4262  0.2575  0.5473
  103MOL   C14624830   6.589   0.255   2.260  0.0455  0.7586  0.1243
  103MOL   C14724831   6.726   0.301   2.208  0.5649 -0.1315  0.5844
  103MOL   C14824832   6.771   0.217   2.079 -0.3755  0.3232 -0.5293
  103MOL   C14924833   6.697   0.277   1.957  0.2084  0.3850  0.4766
  103MOL   H15024834   6.542   0.186   2.189  0.4422 -1.1263  1.6405
  103MOL   H15124835   6.614   0.196   2.348 -0.5223  1.8085  0.9869
  103MOL   H15224836   6.723   0.401   2.165  0.9716 -1.8488 -3.7695
  103MOL   H15324837   6.746   0.112   2.098 -2.4074  1.1523  1.6262
  103MOL   H15424838   6.875   0.230   2.049  0.1894  0.4827  1.4160
  103MOL   H15524839   6.728   0.379   1.936  0.3982  0.7905  2.6021
  103MOL   H15624840   6.710   0.222   1.864 -2.1075  0.9763 -0.2406
  103MOL   H15724841   6.590   0.278   1.978  0.3311  2.9773  1.1587
  103MOL   C15824842   6.834   0.289   2.313  0.3151 -0.2843 -0.3801
  103MOL   C15924843   6.821   0.378   2.440 -0.1177 -0.0867  0.2266
  103MOL   C16024844   6.791   0.531   2.425  0.3894  0.4690  0.7913
  103MOL   C16124845   6.905   0.606   2.352  0.1087  0.8983  0.0916
  103MOL   H16224846   6.926   0.327   2.268  1.8390 -2.1390  1.0572
  103MOL   H16324847   6.846   0.182   2.333 -1.1987 -0.5856 -1.0130
  103MOL   H16424848   6.733   0.334   2.488 -1.1324  1.0160 -0.6150
  103MOL   H16524849   6.780   0.578   2.522 -2.5656  2.6778 -0.5441
  103MOL   H16624850   6.698   0.562   2.378  0.2247  1.3735  1.6916
  103MOL   H16724851   6.873   0.709   2.368 -0.5364  0.5484  1.1326
  103MOL   H16824852   7.006   0.601   2.391 -0.4214  0.0574  1.3745
  103MOL   H16924853   6.913   0.596   2.244  1.7529  0.3252  0.2538
  103MOL   C17024854   6.943   0.342   2.527 -0.8687 -0.3063 -0.4114
  103MOL   C17124855   6.935   0.389   2.676 -1.4766 -0.8520  0.0666
  103MOL   C17224856   7.084   0.393   2.737  0.0051  0.1468  0.6372
  103MOL   C17324857   7.149   0.527   2.702  0.0628 -0.6761  0.1248
  103MOL   H17424858   7.033   0.381   2.479 -0.0458 -1.5388  0.1059
  103MOL   H17524859   6.962   0.235   2.517  1.6903  0.1243 -0.7024
  103MOL   H17624860   6.898   0.491   2.683 -0.1609 -0.2373 -1.5445
  103MOL   H17724861   7.137   0.309   2.691 -1.5006 -0.4129 -0.1058
  103MOL   H17824862   7.087   0.375   2.844 -2.2224 -2.8561  0.2229
  103MOL   H17924863   7.141   0.546   2.595 -1.0501  0.9321  0.4679
  103MOL   H18024864   7.087   0.608   2.742 -0.9538 -1.8014  0.8482
  103MOL   H18124865   7.245   0.519   2.753  0.7669 -0.9647 -1.2203
  103MOL   C18224866   6.850   0.287   2.758 -0.8096  0.3216  0.4245
  103MOL   C18324867   6.808   0.343   2.895 -0.6443  0.0508  0.5740
  103MOL   C18424868   6.757   0.223   2.988 -0.1288 -0.3757 -0.0608
  103MOL   C18524869   6.735   0.264   3.136  0.5076  0.2477 -0.2346
  103MOL   H18624870   6.906   0.194   2.765 -2.2450 -0.7300 -1.5771
  103MOL   H18724871   6.759   0.265   2.702 -1.4488  1.0178  1.1736
  103MOL   H18824872   6.902   0.376   2.940 -1.0608  2.0521  0.0210
  103MOL   H18924873   6.822   0.136   2.977  0.0507 -0.2832  0.2731
  103MOL   H19024874   6.659   0.201   2.946 -0.7364  1.2499  0.4735
  103MOL   H19124875   6.660   0.342   3.147  0.9658  1.0603 -2.6100
  103MOL   H19224876   6.732   0.178   3.204  1.7216  0.7671  0.4896
  103MOL   H19324877   6.828   0.309   3.171  0.3244  1.9732 -1.9251
  103MOL   C19424878   6.706   0.460   2.888  0.3361 -0.3813 -0.2957
  103MOL   C19524879   6.731   0.566   2.995  0.1326  0.1828  0.2432
  103MOL   C19624880   6.608   0.659   3.025  0.3448 -0.7502 -0.0694
  103MOL   C19724881   6.479   0.589   3.073 -0.3243 -0.2064  0.0679
  103MOL   H19824882   6.614   0.407   2.910 -0.1725  1.5254  2.4922
  103MOL   H19924883   6.694   0.501   2.788 -1.1685 -0.7559 -0.2711
  103MOL   H20024884   6.772   0.524   3.086  1.2164  0.6712 -0.0183
  103MOL   H20124885   6.580   0.711   2.933  1.5318  1.8060  0.9438
  103MOL   H20224886   6.634   0.731   3.102  0.4952 -0.0321 -0.7807
  103MOL   H20324887   6.441   0.522   2.996  0.7218  0.6383 -1.2053
  103MOL   H20424888   6.494   0.533   3.165 -0.5020 -0.3560  0.0055
  103MOL   H20524889   6.392   0.651   3.093 -1.1207 -1.7695  1.5704
  103MOL   C20624890   6.852   0.649   2.945 -0.0735 -0.3706  0.3649
  103MOL   C20724891   6.926   0.733   3.052 -0.3193 -0.6317 -0.3358
  103MOL   C20824892   6.978   0.869   2.994  0.1969 -0.6549 -1.2593
  103MOL   C20924893   6.882   0.987   3.008 -0.0071  0.2180 -0.5619
  103MOL   H21024894   6.817   0.721   2.870  2.4516  1.0997  0.5284
  103MOL   H21124895   6.923   0.587   2.889 -0.9254 -0.9109 -0.1201
  103MOL   H21224896   6.857   0.759   3.132  1.8666  0.8383  1.1168
  103MOL   H21324897   7.002   0.867   2.888 -0.2719  0.7807 -1.4179
  103MOL   H21424898   7.077   0.898   3.029 -0.1038  1.0766 -1.7943
  103MOL   H21524899   6.930   1.076   2.967 -2.3815  0.9695 -1.8269
  103MOL   H21624900   6.790   0.983   2.949 -0.3225  2.3862 -0.2830
  103MOL   H21724901   6.844   1.014   3.107 -1.8285 -0.6182 -1.0008
  103MOL   C21824902   7.039   0.646   3.118 -0.1549  0.2489 -0.9728
  103MOL   C21924903   7.095   0.704   3.254  0.0008 -0.1512 -0.5280
  103MOL   C22024904   7.227   0.642   3.290 -0.0934 -0.7075 -0.2166
  103MOL   C22124905   7.337   0.643   3.186 -0.3537  0.1115 -0.2725
  103MOL   H22224906   7.115   0.638   3.040 -0.2194  1.4553 -1.1684
  103MOL   H22324907   7.002   0.545   3.132  0.0819  0.2404 -0.4135
  103MOL   H22424908   7.121   0.808   3.234 -1.5840  0.4841  0.6510
  103MOL   H22524909   7.209   0.539   3.321  1.1033 -0.5381  1.1380
  103MOL   H22624910   7.262   0.692   3.381 -0.0233  1.9172 -1.6246
  103MOL   H22724911   7.347   0.744   3.147  1.4171  0.6140  1.3890
  103MOL   H22824912   7.437   0.614   3.221 -0.0240  0.0064 -1.2887
  103MOL   H22924913   7.315   0.563   3.117 -0.1230  0.2158 -0.4693
  103MOL   C23024914   6.990   0.683   3.372 -0.3510 -0.4134  0.6815
  103MOL   C23124915   6.921   0.815   3.415 -0.7889  0.2467 -0.4316
  103MOL   C23224916   6.817   0.801   3.526 -0.2500  0.4195  0.8411
  103MOL   C23324917   6.676   0.791   3.471 -0.4409 -0.3560  0.5050
  103MOL   H23424918   7.043   0.646   3.460 -0.4461  0.8314  1.2766
  103MOL   H23524919   6.906   0.618   3.348 -1.8026  1.7682 -0.3453
  103MOL   H23624920   7.013   0.863   3.450 -1.5490  1.3744  0.0487
  103MOL   H23724921   6.819   0.886   3.595  0.4526  1.0725  0.0357
  103MOL   H23824922   6.834   0.725   3.602  1.2600  1.5056  1.6191
  103MOL   H23924923   6.642   0.864   3.398 -2.2574  0.1145  1.7850
  103MOL   H24024924   6.666   0.701   3.409  1.2352 -0.5715  0.5378
  103MOL   H24124925   6.606   0.791   3.555 -0.7641  0.5729  0.2343
  103MOL   H24224926   6.890   0.882   3.335  2.7584 -0.5727 -2.5921
  104MOL     C124927   6.832   5.876   7.381  0.1736  0.8072  0.0078
  104MOL     C224928   6.849   5.957   7.518  0.0163 -0.3905  0.2892
  104MOL     C324929   6.824   6.110   7.502 -0.8257 -0.1427  0.6640
  104MOL     C424930   6.687   6.144   7.453 -0.7461 -0.4717  0.0876
  104MOL     H524931   6.732   5.835   7.375 -0.5314  1.4207  5.3434
  104MOL     H624932   6.841   5.943   7.295 -0.3670  0.0335 -0.6662
  104MOL     H724933   6.770   5.921   7.583 -0.0567  0.4260  0.6536
  104MOL     H824934   6.904   6.150   7.440 -0.0814  0.5090  2.0266
  104MOL     H924935   6.827   6.151   7.603  0.7930  0.2469  0.4625
  104MOL    H1024936   6.618   6.069   7.490 -0.3039  0.2017  2.3545
  104MOL    H1124937   6.663   6.242   7.495 -1.4318 -0.1249 -1.0718
  104MOL    H1224938   6.685   6.163   7.345 -0.3052  0.2963  0.2073
  104MOL    H1324939   6.892   5.785   7.378  0.6284  1.1209 -4.0843
  104MOL    C1424940   6.982   5.936   7.592  0.1046  0.8698 -0.0362
  104MOL    C1524941   6.998   5.987   0.029 -0.3700 -0.6880 -0.1055
  104MOL    C1624942   7.148   5.988   0.066  0.0086 -0.2497  0.3882
  104MOL    C1724943   7.207   5.848   0.077  0.0916  0.3807  0.6499
  104MOL    H1824944   7.058   5.967   7.521 -0.3522 -0.5202 -1.1461
  104MOL    H1924945   6.999   5.829   7.599 -0.8890  0.5049 -2.7596
  104MOL    H2024946   6.959   6.089   0.033  0.4550 -0.4149  1.5696
  104MOL    H2124947   7.169   6.040   0.160  0.9651 -4.5817  2.6950
  104MOL    H2224948   7.198   6.046   7.695  0.7734 -0.0852  0.9985
  104MOL    H2324949   7.184   5.783   7.699  2.7950  0.4725 -0.2003
  104MOL    H2424950   7.316   5.854   0.075  0.0456  1.5083  0.9692
  104MOL    H2524951   7.178   5.791   0.166 -1.1504  0.2637  0.1866
  104MOL    C2624952   6.913   5.907   0.130  0.7513  0.4153  0.1839
  104MOL    C2724953   6.924   5.958   0.277  0.0024 -0.2175  0.0739
  104MOL    C2824954   6.851   5.873   0.382  0.7104  0.4736 -0.3139
  104MOL    C2924955   6.874   5.723   0.372  0.7794 -0.2739  0.3163
  104MOL    H3024956   6.960   5.809   0.122  0.5645  0.3766 -0.4775
  104MOL    H3124957   6.811   5.889   0.095  1.5044 -0.3622 -1.6965
  104MOL    H3224958   7.029   5.954   0.308  0.5795  1.3149 -1.6285
  104MOL    H3324959   6.744   5.894   0.379  1.0457  2.4231  0.7661
  104MOL    H3424960   6.881   5.899   0.484 -0.2098  3.1974 -0.7028
  104MOL    H3524961   6.979   5.698   0.383  0.8267  0.7577  2.5390
  104MOL    H3624962   6.822   5.664   0.448  0.9445 -2.7169 -1.4123
  104MOL    H3724963   6.839   5.685   0.276  2.8266 -0.3444 -0.4379
  104MOL    C3824964   6.868   6.105   0.285  0.2909  0.5861 -0.8233
  104MOL    C3924965   6.968   6.216   0.302  0.3505 -0.8140 -0.1920
  104MOL    C4024966   7.047   6.202   0.435  0.1473  0.8092 -0.7320
  104MOL    C4124967   7.159   6.303   0.470  0.0320  0.1691  0.4001
  104MOL    H4224968   6.799   6.109   0.370 -0.7600 -3.9055 -1.3562
  104MOL    H4324969   6.810   6.115   0.193 -0.6194 -1.4712 -0.5010
  104MOL    H4424970   7.040   6.203   0.221  1.5069 -1.3324  0.8887
  104MOL    H4524971   7.102   6.108   0.434  1.9951  1.7725  2.2570
  104MOL    H4624972   6.980   6.203   0.520 -0.5881  3.7449 -1.2741
  104MOL    H4724973   7.222   6.321   0.384  0.8574  0.3112  1.0270
  104MOL    H4824974   7.112   6.398   0.493 -0.6959  0.0868 -0.7166
  104MOL    H4924975   7.220   6.265   0.552 -1.3814 -2.8048  0.1649
  104MOL    C5024976   6.902   6.349   0.292  0.6675  0.0697 -0.0017
  104MOL    C5124977   6.850   6.389   0.156 -0.0363  0.3872 -0.1322
  104MOL    C5224978   6.965   6.415   0.052 -0.1023  1.0896 -0.2489
  104MOL    C5324979   6.917   6.454   7.615  0.0144  0.3273 -0.8813
  104MOL    H5424980   6.973   6.425   0.324  0.8784  0.3088 -1.0463
  104MOL    H5524981   6.819   6.360   0.363  1.5450 -2.0522  1.3843
  104MOL    H5624982   6.790   6.305   0.122  0.5396 -0.3033  0.5327
  104MOL    H5724983   7.027   6.325   0.044  0.7432  1.5326  1.1468
  104MOL    H5824984   7.030   6.497   0.083 -1.4569  1.6064  1.2748
  104MOL    H5924985   6.884   6.557   7.603  0.2293  0.4024 -0.8269
  104MOL    H6024986   7.007   6.437   7.555  1.1761 -0.1169  0.9330
  104MOL    H6124987   6.847   6.376   7.585  1.3257 -1.2421 -0.0007
  104MOL    C6224988   6.758   6.517   0.164 -0.3488 -0.8019 -0.1142
  104MOL    C6324989   6.619   6.503   0.226  0.3137  0.2409 -0.4809
  104MOL    C6424990   6.527   6.390   0.160  0.1898  0.0205  0.6600
  104MOL    C6524991   6.486   6.420   0.012 -0.1518 -0.1131 -0.2152
  104MOL    H6624992   6.740   6.555   0.064 -0.4752 -1.0737 -0.1947
  104MOL    H6724993   6.820   6.593   0.213 -0.3627 -1.0683  0.3143
  104MOL    H6824994   6.634   6.454   0.322  1.9714  0.0558 -0.8209
  104MOL    H6924995   6.437   6.375   0.220 -1.0381 -1.1996 -1.4402
  104MOL    H7024996   6.572   6.292   0.178 -0.1993 -0.5472 -1.3609
  104MOL    H7124997   6.571   6.431   7.650  0.0047 -1.3806 -0.2211
  104MOL    H7224998   6.436   6.327   7.694  1.3300 -0.5668 -1.6645
  104MOL    H7324999   6.422   6.508   0.007 -0.3759 -0.2652 -0.0032
  104MOL    C7425000   6.548   6.637   0.252 -0.2144  0.8942  0.0861
  104MOL    C7525001   6.396   6.644   0.309 -0.1087  0.6776  0.2316
  104MOL    C7625002   6.343   6.792   0.315 -0.3206  0.5003  0.1016
  104MOL    C7725003   6.343   6.858   0.177  0.1483  0.0410 -0.9282
  104MOL    H7825004   6.556   6.694   0.160  0.1143  1.3564  0.3977
  104MOL    H7925005   6.608   6.699   0.319 -2.3774  2.5647  0.5542
  104MOL    H8025006   6.337   6.582   0.242 -1.0497 -0.2800  1.9041
  104MOL    H8125007   6.387   6.855   0.393 -1.5347  2.1437 -0.5312
  104MOL    H8225008   6.237   6.792   0.339 -0.7948  1.6354 -1.9256
  104MOL    H8325009   6.280   6.948   0.178 -0.2645 -0.2436  1.3861
  104MOL    H8425010   6.438   6.894   0.138 -0.1556  1.9559  0.0508
  104MOL    H8525011   6.292   6.787   0.111 -0.3802 -0.3228 -0.1290
  104MOL    C8625012   6.388   6.577   0.451  0.3126  0.5074 -0.3048
  104MOL    C8725013   6.244   6.537   0.503  0.5942 -0.3412  1.0721
  104MOL    C8825014   6.240   6.498   0.652  0.5293  0.3157 -0.3422
  104MOL    C8925015   6.246   6.607   0.765  0.5732  0.2297  0.1456
  104MOL    H9025016   6.431   6.644   0.526 -4.8678  3.3063  0.3762
  104MOL    H9125017   6.442   6.483   0.464  0.2268  0.7754  2.2455
  104MOL    H9225018   6.175   6.619   0.481 -0.6864 -1.8846 -0.8125
  104MOL    H9325019   6.301   6.410   0.673 -1.0081 -0.7991 -0.4724
  104MOL    H9425020   6.146   6.444   0.660  0.7940 -0.3341 -1.5327
  104MOL    H9525021   6.144   6.644   0.778 -0.2018 -1.2451 -1.4929
  104MOL    H9625022   6.285   6.575   0.861 -0.9150 -4.8608 -0.7744
  104MOL    H9725023   6.305   6.696   0.745 -0.2889  0.8080  0.1348
  104MOL    C9825024   6.194   6.406   0.424  0.4948  0.5850  0.1916
  104MOL    C9925025   6.037   6.395   0.389  0.6912  0.0282 -0.6497
  104MOL   C10025026   6.005   6.257   0.334 -0.0779 -0.3216  0.2862
  104MOL   C10125027   6.036   6.128   0.429  0.7878 -0.1130 -0.1472
  104MOL   H10225028   6.231   6.320   0.480 -1.1217 -1.2429 -1.5289
  104MOL   H10325029   6.240   6.395   0.326  0.1224  1.2985 -0.0618
  104MOL   H10425030   5.993   6.407   0.488 -0.2066  0.1918 -1.0648
  104MOL   H10525031   6.058   6.250   0.239  0.1165 -2.0116  0.5041
  104MOL   H10625032   5.900   6.265   0.308  0.2902  0.7096 -0.9186
  104MOL   H10725033   6.036   6.032   0.375  1.5101 -0.3697  0.3066
  104MOL   H10825034   6.140   6.136   0.459  0.4369  1.8004  0.5907
  104MOL   H10925035   5.979   6.128   0.522 -1.7135 -2.8801 -1.5515
  104MOL   C11025036   5.983   6.500   0.289  0.0330 -0.2879 -0.1721
  104MOL   C11125037   5.828   6.518   0.273 -0.4118 -0.9257 -0.6969
  104MOL   C11225038   5.775   6.445   0.146 -0.1710 -0.0936 -0.0719
  104MOL   C11325039   5.619   6.426   0.133 -0.3731 -0.8376 -0.0761
  104MOL   H11425040   6.030   6.469   0.195 -1.1747  0.0440 -0.8882
  104MOL   H11525041   6.027   6.598   0.307 -2.6055  0.6675  1.2946
  104MOL   H11625042   5.777   6.475   0.360 -0.0919  2.2051  1.1386
  104MOL   H11725043   5.835   6.357   0.122  1.6580  1.9847 -3.5056
  104MOL   H11825044   5.806   6.501   0.058  0.9086 -0.3658  0.1295
  104MOL   H11925045   5.568   6.383   0.219 -1.6991  1.3966  0.2931
  104MOL   H12025046   5.575   6.526   0.128 -3.2072 -2.0229  0.6813
  104MOL   H12125047   5.602   6.378   0.037  1.0837  1.9623 -1.7995
  104MOL   C12225048   5.791   6.667   0.281  0.1182  0.1606  0.7244
  104MOL   C12325049   5.783   6.737   0.420 -0.0160 -0.5730  0.3842
  104MOL   C12425050   5.652   6.699   0.497 -0.6833 -0.1372 -0.2377
  104MOL   C12525051   5.528   6.753   0.426 -0.1362  0.7981 -0.0281
  104MOL   H12625052   5.692   6.676   0.236 -0.2184  2.6226  1.8771
  104MOL   H12725053   5.849   6.716   0.203 -0.4417 -0.8509 -0.3391
  104MOL   H12825054   5.860   6.712   0.492 -0.6202 -0.9158  0.9092
  104MOL   H12925055   5.657   6.752   0.592 -1.3470  0.8455 -0.7375
  104MOL   H13025056   5.652   6.595   0.527 -1.0208  0.1026  0.5991
  104MOL   H13125057   5.436   6.759   0.484 -1.1656  0.4483 -1.5680
  104MOL   H13225058   5.544   6.857   0.399  1.6345  0.3349 -0.8679
  104MOL   H13325059   5.487   6.696   0.342  0.4121  0.7841 -0.2853
  104MOL   C13425060   5.789   6.896   0.391 -0.3691  0.3578  0.6677
  104MOL   C13525061   5.930   6.944   0.339  0.6078  0.5870  0.6720
  104MOL   C13625062   6.040   6.936   0.450 -0.7651  0.3731 -0.0997
  104MOL   C13725063   6.017   7.027   0.566  0.3113 -0.4780  0.0579
  104MOL   H13825064   5.757   6.952   0.479 -1.1784  1.0521 -0.0542
  104MOL   H13925065   5.719   6.915   0.310 -0.6057 -2.7300  0.1019
  104MOL   H14025066   5.958   6.881   0.254  0.6919 -0.5782  1.5523
  104MOL   H14125067   6.140   6.958   0.411 -0.2296 -0.7791  0.6227
  104MOL   H14225068   6.042   6.838   0.497  3.3626  0.5007  0.2468
  104MOL   H14325069   6.005   7.132   0.541  0.6824 -0.0282  1.7085
  104MOL   H14425070   5.926   7.010   0.624 -0.2066 -0.2460 -0.6725
  104MOL   H14525071   6.108   7.019   0.626 -0.8275  0.1652  1.8999
  104MOL   C14625072   5.910   7.082   0.275  0.1622  0.5092 -0.0810
  104MOL   C14725073   5.844   7.071   0.136  0.1744 -0.6856  0.3550
  104MOL   C14825074   5.945   7.024   0.024 -0.0617 -0.2103  0.6640
  104MOL   C14925075   5.860   6.985   7.606 -0.1893 -0.4492 -1.0855
  104MOL   H15025076   6.009   7.122   0.256  0.4768 -0.3047 -0.1880
  104MOL   H15125077   5.863   7.159   0.337  1.6909  1.7049 -0.4017
  104MOL   H15225078   5.760   7.002   0.141 -0.6851  0.3004 -0.3349
  104MOL   H15325079   6.006   6.937   0.050  0.1399  0.1234  1.2967
  104MOL   H15425080   6.015   7.102   7.702 -0.7502  0.0875 -0.2300
  104MOL   H15525081   5.794   7.057   7.557 -0.6592  0.2132  0.4943
  104MOL   H15625082   5.939   6.964   7.534 -0.1983 -0.4476 -1.0956
  104MOL   H15725083   5.807   6.890   7.620 -0.2351 -0.2543  0.0499
  104MOL   C15825084   5.785   7.207   0.106  0.4718 -0.3599 -0.1330
  104MOL   C15925085   5.620   7.213   0.108  0.2409  1.2527  0.3220
  104MOL   C16025086   5.568   7.350   0.061  0.0309  0.2694  0.2310
  104MOL   C16125087   5.620   7.398   7.631 -0.4494  0.8126 -0.0620
  104MOL   H16225088   5.821   7.249   0.012 -1.5585  0.7493 -0.4512
  104MOL   H16325089   5.808   7.296   0.166 -1.0786  0.3861 -0.6059
  104MOL   H16425090   5.594   7.131   0.041  1.4945  0.7836  0.3909
  104MOL   H16525091   5.592   7.419   0.142  2.1846 -1.1533  0.8382
  104MOL   H16625092   5.459   7.345   0.060  0.0305  0.2013  0.4962
  104MOL   H16725093   5.726   7.422   7.632  0.0356 -1.1890  1.8121
  104MOL   H16825094   5.617   7.321   7.554 -0.3118  0.2971  0.4409
  104MOL   H16925095   5.581   7.494   7.600  0.0627  0.4824 -1.7707
  104MOL   C17025096   5.553   7.169   0.239 -0.2330  0.1536 -0.0017
  104MOL   C17125097   5.396   7.133   0.246 -0.6862 -0.1469  0.7708
  104MOL   C17225098   5.361   7.139   0.396  0.3744 -0.8006  0.4596
  104MOL   C17325099   5.320   7.280   0.441 -0.4328 -0.0631  0.0577
  104MOL   H17425100   5.578   7.245   0.313 -0.9431  1.9446 -1.5722
  104MOL   H17525101   5.598   7.080   0.283  1.2921  2.0979  2.5021
  104MOL   H17625102   5.340   7.208   0.190  0.3991 -0.7799 -1.2175
  104MOL   H17725103   5.436   7.107   0.468  0.3149 -0.3411  0.7281
  104MOL   H17825104   5.265   7.089   0.406  0.8526 -1.9029 -0.3620
  104MOL   H17925105   5.235   7.316   0.383 -1.3763 -2.8861 -0.4083
  104MOL   H18025106   5.290   7.281   0.546 -0.9687 -0.4163 -0.0864
  104MOL   H18125107   5.400   7.353   0.429  0.0438 -0.5914  0.0009
  104MOL   C18225108   5.374   6.997   0.167  1.0044  0.0505  0.3179
  104MOL   C18325109   5.239   6.924   0.174  0.1920  0.1506  0.2385
  104MOL   C18425110   5.231   6.827   0.059  0.2038  0.7439 -0.2988
  104MOL   C18525111   5.325   6.699   0.080  0.1011  0.4634 -0.0755
  104MOL   H18625112   5.458   6.931   0.189  1.4273  0.7817  0.9144
  104MOL   H18725113   5.403   7.023   0.065  1.2487 -1.4372 -0.0046
  104MOL   H18825114   5.237   6.864   0.265  0.3494 -0.4512 -0.1480
  104MOL   H18925115   5.237   6.870   7.665 -1.5145  1.8339  0.0630
  104MOL   H19025116   5.128   6.791   0.055  0.2818  0.6678 -2.1993
  104MOL   H19125117   5.350   6.695   0.186  0.3960 -0.7091 -0.1754
  104MOL   H19225118   5.281   6.604   0.047  1.0063 -0.6729  1.9255
  104MOL   H19325119   5.412   6.715   0.017  0.3412  3.8740  1.0697
  104MOL   C19425120   5.120   7.024   0.163  0.1908 -0.1132 -0.0886
  104MOL   C19525121   4.985   6.960   0.213 -0.5741  0.1308 -0.3420
  104MOL   C19625122   4.868   7.049   0.165  0.3443 -0.5885  0.5547
  104MOL   C19725123   4.809   7.010   0.033  0.3517 -0.2369  0.2320
  104MOL   H19825124   5.112   7.051   0.058 -2.6875 -3.0034 -0.6722
  104MOL   H19925125   5.137   7.105   0.234 -0.0232 -0.9205  0.8885
  104MOL   H20025126   4.971   6.863   0.165 -1.6915 -0.0702  0.3601
  104MOL   H20125127   4.911   7.147   0.147 -0.3968  0.0350  2.1414
  104MOL   H20225128   4.797   7.046   0.248  0.4895 -1.1553  0.6643
  104MOL   H20325129   4.747   6.922   0.046 -0.8542  0.7160  0.9731
  104MOL   H20425130   4.740   7.089   0.003 -2.2024 -1.9686  1.3777
  104MOL   H20525131   4.879   6.982   7.659  0.5078 -0.3001  0.3897
  104MOL   C20625132   4.978   6.946   0.368  0.5176  0.3385  0.6138
  104MOL   C20725133   4.879   6.842   0.411 -0.7846 -0.2964 -0.3951
  104MOL   C20825134   4.847   6.875   0.554 -0.2779  0.2700  0.1307
  104MOL   C20925135   4.731   6.793   0.615  0.1262 -0.0570 -0.3062
  104MOL   H21025136   4.939   7.041   0.406  1.4122  0.2677  1.7561
  104MOL   H21125137   5.075   6.927   0.413  0.6755 -0.7212 -0.1545
  104MOL   H21225138   4.793   6.846   0.345 -1.3140  3.7321  0.3959
  104MOL   H21325139   4.809   6.977   0.553  1.3104  0.8805  1.0234
  104MOL   H21425140   4.930   6.863   0.624 -0.3102 -0.8519 -0.0101
  104MOL   H21525141   4.685   6.848   0.698 -1.7921 -0.4289 -1.1028
  104MOL   H21625142   4.647   6.794   0.547  0.1162 -2.9757 -0.3866
  104MOL   H21725143   4.755   6.688   0.634 -1.2575 -0.4493 -0.6853
  104MOL   C21825144   4.930   6.699   0.408  0.3343  0.2750  0.3220
  104MOL   C21925145   4.986   6.628   0.277  0.3878 -0.3467  0.2193
  104MOL   C22025146   4.876   6.610   0.165  0.1109  0.9666  0.4541
  104MOL   C22125147   4.939   6.549   0.039 -0.7791 -0.1808 -0.5340
  104MOL   H22225148   4.848   6.639   0.447  1.3026 -1.7411 -0.6463
  104MOL   H22325149   5.008   6.701   0.485 -0.2914  0.4664  0.9641
  104MOL   H22425150   5.065   6.687   0.230 -0.5310  1.0867  0.4115
  104MOL   H22525151   4.846   6.709   0.131 -1.4015 -0.4692 -2.5928
  104MOL   H22625152   4.792   6.553   0.203  0.1642  0.4136 -0.2366
  104MOL   H22725153   5.021   6.614   0.007 -1.0018  0.2594 -0.2228
  104MOL   H22825154   4.976   6.447   0.042  1.9309  0.7809  0.9447
  104MOL   H22925155   4.861   6.536   7.670  0.0418  1.3968 -1.7050
  104MOL   C23025156   5.043   6.491   0.312 -0.9626  0.4186 -0.1917
  104MOL   C23125157   5.162   6.499   0.406  0.2893  0.3952 -0.5100
  104MOL   C23225158   5.243   6.369   0.403 -0.6146  0.1355 -0.5207
  104MOL   C23325159   5.381   6.367   0.474 -0.4458 -0.5128  0.1042
  104MOL   H23425160   5.078   6.435   0.225 -0.9607 -0.0885  0.1382
  104MOL   H23525161   4.967   6.422   0.349 -0.2094  0.4728  1.4645
  104MOL   H23625162   5.218   6.589   0.381 -0.3350  0.7571 -0.6205
  104MOL   H23725163   5.265   6.327   0.305  1.6866  1.1303 -0.4781
  104MOL   H23825164   5.183   6.295   0.456 -1.1452  0.4177 -0.7237
  104MOL   H23925165   5.367   6.409   0.574 -0.4665  1.4546 -0.6859
  104MOL   H24025166   5.428   6.269   0.475 -0.2912 -0.4699  3.3284
  104MOL   H24125167   5.448   6.435   0.422 -0.3184 -1.3612 -0.8486
  104MOL   H24225168   5.127   6.523   0.507  0.4248  2.1218 -0.8556
  105MOL     C125169   1.455   0.496   7.638 -0.3330 -0.4844  0.1876
  105MOL     C225170   1.426   0.649   7.608 -0.0986  0.3703  0.0240
  105MOL     C325171   1.508   0.713   7.499  0.6883 -0.1797  0.3281
  105MOL     C425172   1.522   0.640   7.366 -0.1837  0.3235  0.2018
  105MOL     H525173   1.549   0.482   7.690  0.4966  1.1066 -0.8385
  105MOL     H625174   1.377   0.457   7.704  0.0550 -1.5715  0.0067
  105MOL     H725175   1.324   0.648   7.571 -0.0062 -0.3648 -0.2167
  105MOL     H825176   1.609   0.734   7.532  1.3016 -1.8620 -0.3868
  105MOL     H925177   1.465   0.808   7.470 -0.3380 -0.8251 -0.2985
  105MOL    H1025178   1.419   0.613   7.342 -0.1935  0.0891  0.4901
  105MOL    H1125179   1.563   0.709   7.293 -1.4284  1.2638  0.3765
  105MOL    H1225180   1.591   0.556   7.381  0.1597  0.5301 -0.2392
  105MOL    H1325181   1.446   0.442   7.544 -1.0858  2.0133 -1.2322
  105MOL    C1425182   1.427   0.749   0.021  0.6875  0.5056 -0.5630
  105MOL    C1525183   1.332   0.712   0.143  0.0014 -0.6368  0.3209
  105MOL    C1625184   1.183   0.717   0.100  0.5652  0.1104 -0.0099
  105MOL    C1725185   1.106   0.592   0.042 -0.1482 -0.7424  0.3987
  105MOL    H1825186   1.391   0.846   7.692 -0.7334 -0.1701 -1.0238
  105MOL    H1925187   1.523   0.769   0.068  0.2853  1.2156 -0.0390
  105MOL    H2025188   1.354   0.608   0.166  0.3080 -0.3355  1.4044
  105MOL    H2125189   1.161   0.801   0.035  0.1980  0.7330  0.9117
  105MOL    H2225190   1.134   0.744   0.194 -0.4859  0.6782 -0.7117
  105MOL    H2325191   1.155   0.499   0.070 -1.5825 -1.2683  1.2361
  105MOL    H2425192   1.003   0.608   0.073 -1.1317 -0.8850 -2.6154
  105MOL    H2525193   1.092   0.592   7.640  0.0762  2.7000  0.2860
  105MOL    C2625194   1.368   0.799   0.272  0.0499  0.1284 -0.1478
  105MOL    C2725195   1.498   0.783   0.358  0.6593  0.5317 -0.6974
  105MOL    C2825196   1.530   0.627   0.387  0.0728  0.9620 -0.2020
  105MOL    C2925197   1.616   0.556   0.286 -0.0811  0.5238 -0.5800
  105MOL    H3025198   1.290   0.785   0.347 -0.1796 -3.8549 -1.0409
  105MOL    H3125199   1.360   0.900   0.230  1.3385  0.7317  1.0359
  105MOL    H3225200   1.581   0.814   0.293  2.0204  0.1104  0.8084
  105MOL    H3325201   1.439   0.568   0.404  1.5020 -0.4369  3.2227
  105MOL    H3425202   1.583   0.629   0.483 -0.5788 -0.3749  0.2080
  105MOL    H3525203   1.574   0.573   0.187 -1.4022 -0.1355 -0.1434
  105MOL    H3625204   1.714   0.604   0.278 -0.0364  0.4082 -0.7320
  105MOL    H3725205   1.620   0.448   0.300  2.3110  0.5465 -0.7756
  105MOL    C3825206   1.488   0.858   0.490 -0.1041 -0.4361 -0.8294
  105MOL    C3925207   1.618   0.941   0.537 -0.1562  0.0461  0.3574
  105MOL    C4025208   1.717   0.854   0.611 -0.9217  0.8470 -0.8895
  105MOL    C4125209   1.866   0.893   0.620  0.8362  0.6401  0.7501
  105MOL    H4225210   1.456   0.786   0.565 -2.2701  0.7872 -0.5364
  105MOL    H4325211   1.408   0.931   0.478  1.5895  1.5781 -0.1264
  105MOL    H4425212   1.667   0.981   0.448 -0.5966 -0.0660  0.0651
  105MOL    H4525213   1.710   0.746   0.596  1.3304  0.5992 -0.3272
  105MOL    H4625214   1.673   0.857   0.711 -1.2108 -0.9388 -0.9407
  105MOL    H4725215   1.917   0.826   0.689 -2.0251 -3.1735 -0.6750
  105MOL    H4825216   1.911   0.880   0.521 -2.1044 -1.4340 -0.3655
  105MOL    H4925217   1.887   0.995   0.652 -0.0940  1.5327 -1.3751
  105MOL    C5025218   1.583   1.067   0.625  0.1493 -0.0373 -1.2628
  105MOL    C5125219   1.516   1.188   0.562 -0.1266  0.4344  0.2607
  105MOL    C5225220   1.610   1.267   0.471 -0.2287 -0.5194 -0.2971
  105MOL    C5325221   1.591   1.250   0.319  0.1732 -0.0921  0.3616
  105MOL    H5425222   1.683   1.096   0.658 -0.5385 -0.3180  1.1264
  105MOL    H5525223   1.536   1.033   0.717  0.7313  2.1302 -0.1548
  105MOL    H5625224   1.429   1.157   0.506 -0.1665 -0.1599  0.6523
  105MOL    H5725225   1.715   1.256   0.494 -0.8636 -3.5797  1.3928
  105MOL    H5825226   1.585   1.372   0.485  2.2043  0.5401 -3.3946
  105MOL    H5925227   1.601   1.142   0.304  2.0134  0.4968 -3.1605
  105MOL    H6025228   1.491   1.277   0.284  1.3277  2.5183 -1.0734
  105MOL    H6125229   1.669   1.295   0.258  2.4655 -0.9225  2.6058
  105MOL    C6225230   1.459   1.276   0.679 -0.6792 -0.2525 -0.8810
  105MOL    C6325231   1.337   1.239   0.774 -0.4490  0.1132 -0.0606
  105MOL    C6425232   1.209   1.194   0.695 -0.6491  0.0780  0.3549
  105MOL    C6525233   1.120   1.114   0.788 -0.3397 -0.4385 -0.4982
  105MOL    H6625234   1.433   1.373   0.638  1.6770  1.2881  1.0850
  105MOL    H6725235   1.542   1.292   0.748  0.7113 -2.0126 -2.0879
  105MOL    H6825236   1.364   1.159   0.842 -0.9695  0.2226  0.2799
  105MOL    H6925237   1.247   1.124   0.621 -0.1789  2.0436 -1.2774
  105MOL    H7025238   1.163   1.275   0.639  1.4953  0.4857 -0.8314
  105MOL    H7125239   1.020   1.101   0.746  0.2327  1.7870 -2.6655
  105MOL    H7225240   1.158   1.012   0.800 -1.0626 -0.6421  0.0683
  105MOL    H7325241   1.118   1.170   0.882  1.5094 -0.7502 -0.2646
  105MOL    C7425242   1.310   1.366   0.862  0.2497  0.2764  0.5467
  105MOL    C7525243   1.420   1.417   0.955 -0.5701  0.2303  0.6287
  105MOL    C7625244   1.478   1.303   1.048 -0.0350 -0.0104 -0.1755
  105MOL    C7725245   1.368   1.237   1.147  0.4069  0.3506  0.0709
  105MOL    H7825246   1.221   1.341   0.920 -1.2959  2.8813 -0.6056
  105MOL    H7925247   1.282   1.443   0.791 -0.5001 -0.4381  0.0608
  105MOL    H8025248   1.496   1.461   0.892  0.1485 -0.7561  0.7997
  105MOL    H8125249   1.559   1.338   1.112 -0.9544 -1.2212  1.6816
  105MOL    H8225250   1.533   1.232   0.987  1.1967 -0.0312  0.9516
  105MOL    H8325251   1.413   1.201   1.240 -2.0257  1.4506  1.7463
  105MOL    H8425252   1.292   1.307   1.182  0.3520  0.8303 -0.9962
  105MOL    H8525253   1.319   1.157   1.092 -0.1081  1.0020 -0.4356
  105MOL    C8625254   1.379   1.535   1.038  0.2292  0.0515  0.0956
  105MOL    C8725255   1.485   1.620   1.104  0.7339  0.0417 -0.0465
  105MOL    C8825256   1.428   1.712   1.212 -0.5061  0.0255  0.2747
  105MOL    C8925257   1.374   1.651   1.334 -0.0890  0.0186  0.3783
  105MOL    H9025258   1.304   1.511   1.114 -1.7831 -0.9117 -2.1375
  105MOL    H9125259   1.321   1.601   0.973 -0.1053  0.1843  0.5278
  105MOL    H9225260   1.547   1.549   1.158  0.5434  0.2232  0.4117
  105MOL    H9325261   1.368   1.791   1.167 -0.2248 -0.7351 -1.4738
  105MOL    H9425262   1.514   1.768   1.248 -1.2040  1.9521 -0.9718
  105MOL    H9525263   1.292   1.580   1.326 -1.1720  1.3249 -0.4928
  105MOL    H9625264   1.453   1.605   1.393  1.4054  0.9458 -0.8252
  105MOL    H9725265   1.343   1.734   1.398 -0.3845  1.3803 -1.4799
  105MOL    C9825266   1.566   1.702   1.003  0.2240 -0.2413  0.8026
  105MOL    C9925267   1.701   1.648   0.991 -0.0229  0.4993 -0.4682
  105MOL   C10025268   1.785   1.681   1.119  0.0759 -0.0888  0.2883
  105MOL   C10125269   1.836   1.833   1.117  0.6767  0.4516 -0.2928
  105MOL   H10225270   1.567   1.807   1.035  1.4664 -0.1707  0.5442
  105MOL   H10325271   1.521   1.694   0.904  0.5504  0.8055  0.5627
  105MOL   H10425272   1.694   1.539   0.993  2.2013  0.3508  0.2954
  105MOL   H10525273   1.873   1.618   1.116  0.2287  0.1309  0.1215
  105MOL   H10625274   1.729   1.663   1.211 -1.7119  1.9261 -0.3631
  105MOL   H10725275   1.872   1.870   1.213  0.0690  2.6393 -0.8709
  105MOL   H10825276   1.926   1.843   1.056 -0.4986  0.4691 -2.0694
  105MOL   H10925277   1.758   1.899   1.078 -1.6511  0.0643  3.4335
  105MOL   C11025278   1.770   1.691   0.857  0.2512 -0.5025 -0.1375
  105MOL   C11125279   1.895   1.598   0.830  0.3926 -0.0973  0.0474
  105MOL   C11225280   1.996   1.641   0.721  0.6212  0.0306 -0.9077
  105MOL   C11325281   2.047   1.789   0.722  0.2739  0.2627 -0.6647
  105MOL   H11425282   1.789   1.798   0.851 -2.3463 -0.0512 -1.0884
  105MOL   H11525283   1.701   1.675   0.775  2.5424 -0.7629 -2.0565
  105MOL   H11625284   1.957   1.607   0.920  0.8703  0.0523 -0.2962
  105MOL   H11725285   1.954   1.641   0.620 -1.6681  0.6744  0.0105
  105MOL   H11825286   2.075   1.567   0.723  0.1213 -0.4637  1.2271
  105MOL   H11925287   1.975   1.860   0.680  0.6948  1.2812  0.3222
  105MOL   H12025288   2.075   1.808   0.826  0.5009 -2.2912 -0.2256
  105MOL   H12125289   2.142   1.795   0.671 -0.1345 -1.1166 -1.6167
  105MOL   C12225290   1.865   1.445   0.801 -0.0130 -0.2510 -0.2258
  105MOL   C12325291   1.921   1.356   0.911 -0.1790 -0.6202 -0.0669
  105MOL   C12425292   2.074   1.339   0.900 -0.3668 -0.3247 -0.7608
  105MOL   C12525293   2.124   1.282   0.768  0.2865 -0.2397 -0.0627
  105MOL   H12625294   1.904   1.411   0.705  2.8827 -1.6821  1.4024
  105MOL   H12725295   1.757   1.433   0.796 -0.0136  0.1480 -1.3813
  105MOL   H12825296   1.906   1.402   1.009  1.6524  0.4892 -0.2823
  105MOL   H12925297   2.118   1.279   0.980  1.4184 -0.9325 -2.1643
  105MOL   H13025298   2.119   1.436   0.920 -3.2249  0.4966  2.1847
  105MOL   H13125299   2.233   1.285   0.774  0.1865 -0.7749  2.5442
  105MOL   H13225300   2.079   1.186   0.744  0.1644 -0.5847  1.4877
  105MOL   H13325301   2.095   1.355   0.692  1.7790 -1.4216 -1.8030
  105MOL   C13425302   1.846   1.224   0.914 -0.2716 -0.0228  0.6008
  105MOL   C13525303   1.883   1.135   1.036 -0.5463 -0.0769  0.5438
  105MOL   C13625304   1.834   0.988   1.015  0.3506 -0.1827 -0.3094
  105MOL   C13725305   1.682   0.967   1.005 -0.1308 -0.5302 -0.4485
  105MOL   H13825306   1.854   1.163   0.825 -1.8166  1.1551 -0.3850
  105MOL   H13925307   1.737   1.237   0.913 -0.2607  0.0709  0.5772
  105MOL   H14025308   1.991   1.122   1.037 -0.4198  0.7867 -0.5197
  105MOL   H14125309   1.868   0.922   1.094 -3.1422 -2.0502 -0.2616
  105MOL   H14225310   1.871   0.945   0.922 -4.1390  1.3679 -2.9425
  105MOL   H14325311   1.653   0.868   0.970  1.9888 -1.5754  0.7141
  105MOL   H14425312   1.634   0.988   1.101  1.5354 -0.4092  0.3741
  105MOL   H14525313   1.632   1.020   0.924  0.0851  0.6476  0.1779
  105MOL   C14625314   1.834   1.196   1.170 -0.0969 -0.1655  0.1074
  105MOL   C14725315   1.840   1.115   1.299 -0.4320 -1.3073 -0.7635
  105MOL   C14825316   1.786   1.193   1.415  0.4376  0.6624  0.3315
  105MOL   C14925317   1.637   1.233   1.393 -0.6933  0.3843  0.7562
  105MOL   H15025318   1.728   1.217   1.152 -0.0522 -0.2187 -0.2251
  105MOL   H15125319   1.878   1.292   1.194 -1.3643  0.3906  0.2612
  105MOL   H15225320   1.784   1.023   1.278 -2.8237 -0.4658  1.6911
  105MOL   H15325321   1.854   1.274   1.441  1.0324  0.3702 -0.2885
  105MOL   H15425322   1.791   1.125   1.501 -1.6967  0.4512  0.2998
  105MOL   H15525323   1.575   1.148   1.366 -2.0046  2.3012 -2.4878
  105MOL   H15625324   1.594   1.283   1.480 -1.9343 -0.6493  0.7346
  105MOL   H15725325   1.629   1.311   1.317  5.6284  1.5896  0.9717
  105MOL   C15825326   1.987   1.075   1.332 -0.1404  0.5785 -0.0822
  105MOL   C15925327   2.017   0.978   1.456 -0.5850 -0.4035  0.0392
  105MOL   C16025328   2.168   0.968   1.487 -0.8224  0.2055  0.2068
  105MOL   C16125329   2.271   0.959   1.370  0.4552 -0.0433 -0.0246
  105MOL   H16225330   2.050   1.163   1.339 -0.6367  0.8808  0.7978
  105MOL   H16325331   2.039   1.043   1.242 -2.6261  0.6020 -1.5766
  105MOL   H16425332   1.968   1.025   1.541  0.7605 -1.3164  1.3402
  105MOL   H16525333   2.187   0.895   1.566 -1.8564  0.4543  0.6959
  105MOL   H16625334   2.186   1.053   1.552 -0.7657  0.8937 -0.6991
  105MOL   H16725335   2.262   0.863   1.319 -0.1643 -0.5733  1.0680
  105MOL   H16825336   2.264   1.051   1.313  0.5969 -0.3169 -0.4871
  105MOL   H16925337   2.369   0.954   1.418 -0.8775 -0.8912  2.7307
  105MOL   C17025338   1.970   0.830   1.422  0.1265  0.3207 -0.7173
  105MOL   C17125339   1.912   0.759   1.540  0.4097 -0.2971 -0.5457
  105MOL   C17225340   1.903   0.607   1.514  0.0563 -0.1414 -0.4605
  105MOL   C17325341   1.814   0.575   1.393  0.1553  0.4832  0.6869
  105MOL   H17425342   2.054   0.764   1.401  0.1225  0.8649 -2.6053
  105MOL   H17525343   1.916   0.836   1.327 -1.5210  1.5288  0.2813
  105MOL   H17625344   1.984   0.767   1.621 -0.4898 -1.0829  0.3546
  105MOL   H17725345   1.848   0.565   1.598 -0.0376 -1.9391 -1.4130
  105MOL   H17825346   1.997   0.552   1.515 -0.2141 -0.5884  1.1528
  105MOL   H17925347   1.843   0.612   1.294 -0.7515  1.1068  0.6528
  105MOL   H18025348   1.794   0.468   1.388  1.1760  0.2007  2.1720
  105MOL   H18125349   1.722   0.631   1.408  1.1918  2.2793  0.3596
  105MOL   C18225350   1.780   0.829   1.590  0.3847 -0.1157 -0.7707
  105MOL   C18325351   1.692   0.771   1.700 -0.8332 -0.1832 -0.7434
  105MOL   C18425352   1.577   0.876   1.728  0.3199 -0.6359  0.6879
  105MOL   C18525353   1.483   0.903   1.612  0.4562 -0.7586 -0.4208
  105MOL   H18625354   1.718   0.834   1.500 -0.0944 -0.3018 -0.4498
  105MOL   H18725355   1.794   0.935   1.611  0.0422 -0.6136  2.0516
  105MOL   H18825356   1.648   0.679   1.662  2.0980 -3.7633  3.8098
  105MOL   H18925357   1.623   0.968   1.763 -0.8277  0.0197  0.5045
  105MOL   H19025358   1.518   0.842   1.814 -1.0177 -1.4546 -0.5301
  105MOL   H19125359   1.530   0.978   1.549 -0.6647  1.3061  1.1617
  105MOL   H19225360   1.471   0.808   1.559  0.8763 -1.2471  0.3399
  105MOL   H19325361   1.396   0.943   1.664  1.4844 -0.2642  0.9510
  105MOL   C19425362   1.777   0.743   1.828  0.6476  0.7348  0.4367
  105MOL   C19525363   1.706   0.660   1.943 -0.0716  0.0794 -0.3497
  105MOL   C19625364   1.780   0.696   2.076 -0.3033  0.0749  0.4099
  105MOL   C19725365   1.728   0.826   2.139 -0.7204 -0.4716 -0.8818
  105MOL   H19825366   1.814   0.841   1.859 -0.1596  1.3222 -0.4390
  105MOL   H19925367   1.866   0.688   1.796 -0.5530 -0.8804 -0.1505
  105MOL   H20025368   1.605   0.699   1.953  0.4329  1.2174  0.4528
  105MOL   H20125369   1.888   0.695   2.061 -0.4899  2.3499 -1.2474
  105MOL   H20225370   1.750   0.620   2.149  2.2956 -1.6202 -0.2323
  105MOL   H20325371   1.633   0.805   2.189 -0.9394  1.2245 -0.5539
  105MOL   H20425372   1.804   0.856   2.211 -0.6460 -1.3051 -0.6019
  105MOL   H20525373   1.713   0.904   2.065 -0.0658  0.1550 -0.3609
  105MOL   C20625374   1.699   0.508   1.912 -0.4886 -0.4164  0.4475
  105MOL   C20725375   1.620   0.419   2.003  0.1170  0.3928 -0.6695
  105MOL   C20825376   1.679   0.272   2.007 -0.9304  0.5818 -0.5681
  105MOL   C20925377   1.792   0.256   2.108  0.4094  0.2880  0.0319
  105MOL   H21025378   1.803   0.477   1.916  0.4812  2.4959 -0.9218
  105MOL   H21125379   1.667   0.491   1.809  0.8531 -0.8093  0.0866
  105MOL   H21225380   1.629   0.456   2.105  0.2562  1.4123 -1.0468
  105MOL   H21325381   1.712   0.242   1.908 -0.4104 -1.6551  0.2489
  105MOL   H21425382   1.606   0.200   2.044  1.3191 -1.4016  0.1163
  105MOL   H21525383   1.872   0.330   2.098  1.5342 -0.9703 -0.4458
  105MOL   H21625384   1.756   0.267   2.210  3.9415 -0.8751  1.4871
  105MOL   H21725385   1.839   0.159   2.091 -2.0973 -1.1048  0.8925
  105MOL   C21825386   1.472   0.426   1.979  0.1354  0.0124  0.8378
  105MOL   C21925387   1.401   0.522   2.071 -0.3399 -0.4730 -0.2446
  105MOL   C22025388   1.386   0.463   2.207  0.2819  0.6293 -0.2349
  105MOL   C22125389   1.355   0.568   2.313  0.0233  0.5329 -0.1244
  105MOL   H22225390   1.427   0.328   1.994  0.6113 -0.2948  0.2959
  105MOL   H22325391   1.455   0.450   1.874  0.3196  0.6268  0.9443
  105MOL   H22425392   1.464   0.609   2.085 -1.5641  0.1413  1.5901
  105MOL   H22525393   1.487   0.431   2.231 -0.4071  0.7639  3.0128
  105MOL   H22625394   1.315   0.381   2.195  0.8711  0.2646 -1.2839
  105MOL   H22725395   1.407   0.555   2.408 -1.4333  0.5205  0.6971
  105MOL   H22825396   1.371   0.668   2.271  2.1960  0.4824  0.5442
  105MOL   H22925397   1.248   0.564   2.334 -0.2584  0.5163 -1.5430
  105MOL   C23025398   1.264   0.571   2.025  0.3059 -0.4633  1.2650
  105MOL   C23125399   1.266   0.686   1.910  0.1232  0.4960 -0.5455
  105MOL   C23225400   1.133   0.695   1.822 -0.3189  0.2841  0.5504
  105MOL   C23325401   1.135   0.786   1.702  0.1781 -0.5009 -0.5375
  105MOL   H23425402   1.200   0.606   2.106  0.3888  0.4143  0.9534
  105MOL   H23525403   1.211   0.488   1.978  0.7338 -0.8547  1.4702
  105MOL   H23625404   1.301   0.782   1.949 -1.2162  0.2257  1.3530
  105MOL   H23725405   1.046   0.717   1.885 -3.1387  0.1948 -3.1640
  105MOL   H23825406   1.119   0.596   1.779  1.3500  0.3468 -0.1501
  105MOL   H23925407   1.178   0.884   1.724  0.4903 -0.4329 -1.4107
  105MOL   H24025408   1.205   0.751   1.627  0.3421  0.7222 -0.9684
  105MOL   H24125409   1.039   0.800   1.653 -0.1841 -2.5861 -0.4712
  105MOL   H24225410   1.348   0.654   1.845 -0.5086 -2.3253  0.0141
  106MOL     C125411   1.902   0.765   7.296  0.2268 -0.2315  0.6000
  106MOL     C225412   2.025   0.677   7.297  0.0715 -0.2059 -0.2000
  106MOL     C325413   2.058   0.611   7.161  0.1949 -0.0668  0.8106
  106MOL     C425414   2.073   0.712   7.043 -0.3646  0.2205  0.3309
  106MOL     H525415   1.913   0.869   7.264 -2.3086 -0.3027 -0.6551
  106MOL     H625416   1.819   0.712   7.248 -0.5944  0.2166  1.4942
  106MOL     H725417   2.112   0.739   7.316  0.8444 -1.4130  0.3145
  106MOL     H825418   1.982   0.538   7.133 -0.5571  0.9296  0.1940
  106MOL     H925419   2.150   0.554   7.163 -0.1250 -0.6884 -1.5324
  106MOL    H1025420   2.111   0.668   6.951  0.7282  1.8503 -0.0165
  106MOL    H1125421   1.976   0.757   7.027 -0.0160  0.5663 -0.8348
  106MOL    H1225422   2.143   0.793   7.066  1.1752 -0.5845 -1.3321
  106MOL    H1325423   1.859   0.778   7.395  1.2057  1.4677  0.8074
  106MOL    C1425424   2.019   0.572   7.409 -0.0843 -0.0740  0.4358
  106MOL    C1525425   2.073   0.621   7.545  0.3802 -0.7140  0.0609
  106MOL    C1625426   2.076   0.503   7.646  0.7361 -0.8277 -0.1385
  106MOL    C1725427   1.943   0.478   0.015  0.1162 -0.3492  0.4824
  106MOL    H1825428   2.076   0.483   7.382  1.2180  0.5191  1.1820
  106MOL    H1925429   1.914   0.546   7.425 -0.5886  0.6810 -1.4704
  106MOL    H2025430   2.180   0.635   7.527  0.6563 -0.9977  1.4733
  106MOL    H2125431   2.143   0.537   0.020  1.4912 -0.6033 -0.8620
  106MOL    H2225432   2.107   0.407   7.606  0.4590 -1.0685  0.2132
  106MOL    H2325433   1.946   0.378   0.057  0.0207  0.3309  2.1276
  106MOL    H2425434   1.926   0.558   0.087  0.3588 -0.2362  0.4149
  106MOL    H2525435   1.856   0.461   7.658  0.2060 -0.8140  0.4830
  106MOL    C2625436   2.013   0.752   7.605 -0.4129 -0.5419 -0.3204
  106MOL    C2725437   2.073   0.812   0.040 -0.0610 -0.1366 -0.6647
  106MOL    C2825438   1.988   0.941   0.073 -0.9908  0.5638  0.2321
  106MOL    C2925439   1.851   0.907   0.133 -0.4036 -0.0477  0.5492
  106MOL    H3025440   1.909   0.724   7.619 -0.2387 -2.1680 -2.0405
  106MOL    H3125441   1.997   0.833   7.534  0.6529 -0.5328 -0.5652
  106MOL    H3225442   2.062   0.745   0.125 -0.1991  1.7865  0.8546
  106MOL    H3325443   1.966   1.000   7.690 -0.9620  0.0672 -0.1100
  106MOL    H3425444   2.036   1.019   0.132 -1.5336  1.9802 -1.1700
  106MOL    H3525445   1.790   0.851   0.061 -0.7226  2.5527 -1.2626
  106MOL    H3625446   1.862   0.845   0.222 -0.5847 -0.9748 -0.0569
  106MOL    H3725447   1.785   0.991   0.152 -1.4380 -0.1001 -2.4500
  106MOL    C3825448   2.223   0.843   0.026  1.1023 -0.0353 -0.5139
  106MOL    C3925449   2.303   0.900   0.148  0.0450  0.2061  0.5371
  106MOL    C4025450   2.434   0.970   0.099  0.8515 -0.8083 -0.2472
  106MOL    C4125451   2.417   1.122   0.096 -0.2543  0.7922 -0.2811
  106MOL    H4225452   2.232   0.916   7.652  1.3635  1.8824  1.2370
  106MOL    H4325453   2.276   0.755   7.694 -0.5693 -1.3111  0.0275
  106MOL    H4425454   2.250   0.979   0.200 -0.3198  0.5020 -0.2769
  106MOL    H4525455   2.454   0.930   7.705  1.0056 -0.6352 -0.2860
  106MOL    H4625456   2.526   0.951   0.153 -0.5045 -1.1567  1.9813
  106MOL    H4725457   2.501   1.168   0.044  1.4106  1.3855  2.8008
  106MOL    H4825458   2.321   1.155   0.057  0.7148  3.4985 -0.4933
  106MOL    H4925459   2.423   1.160   0.198 -0.4568 -0.2690  0.1344
  106MOL    C5025460   2.327   0.774   0.243 -0.5395 -0.1703  0.1750
  106MOL    C5125461   2.310   0.798   0.398 -0.2202  0.0078 -0.5767
  106MOL    C5225462   2.411   0.913   0.451 -0.7540  0.0825  0.4658
  106MOL    C5325463   2.354   0.996   0.575 -0.0834 -0.6833 -0.4641
  106MOL    H5425464   2.423   0.733   0.210 -1.3394 -0.5476 -1.7389
  106MOL    H5525465   2.260   0.693   0.212 -3.6271  1.2206  2.9554
  106MOL    H5625466   2.206   0.830   0.411  0.4813  2.8105 -1.5085
  106MOL    H5725467   2.436   0.979   0.368  0.8989  1.0419  1.6943
  106MOL    H5825468   2.503   0.862   0.478 -0.1721  0.7494 -0.2411
  106MOL    H5925469   2.412   1.086   0.597  0.2895 -1.0804  0.1836
  106MOL    H6025470   2.250   1.026   0.565 -0.0978 -0.1874  1.0909
  106MOL    H6125471   2.357   0.934   0.664 -0.7482  0.8970  0.6623
  106MOL    C6225472   2.345   0.659   0.469 -0.5073  0.3752 -0.2712
  106MOL    C6325473   2.242   0.550   0.477 -0.4342 -0.2175 -0.8379
  106MOL    C6425474   2.108   0.606   0.525 -0.2320  0.0968  1.1112
  106MOL    C6525475   2.007   0.636   0.410  0.3289  0.3600 -0.1835
  106MOL    H6625476   2.374   0.686   0.570  0.5115 -2.5328  0.2487
  106MOL    H6725477   2.432   0.608   0.429  0.6419  2.8698 -1.0897
  106MOL    H6825478   2.234   0.496   0.382  3.0640 -2.8979  0.2668
  106MOL    H6925479   2.133   0.701   0.572  1.8102 -0.3919  1.0530
  106MOL    H7025480   2.048   0.549   0.596 -0.6357  1.2519  1.7150
  106MOL    H7125481   1.917   0.675   0.458  0.3047  0.0353  0.0340
  106MOL    H7225482   2.041   0.702   0.330 -0.1745 -0.0937 -0.7841
  106MOL    H7325483   1.968   0.553   0.351 -0.8462  1.1187 -0.5140
  106MOL    C7425484   2.289   0.429   0.564 -0.0467  0.6891  0.0761
  106MOL    C7525485   2.193   0.299   0.567  0.7474  0.2505  0.6735
  106MOL    C7625486   2.224   0.197   0.674 -0.0758  0.3703 -0.7286
  106MOL    C7725487   2.342   0.108   0.666  0.4593  0.1397 -0.3851
  106MOL    H7825488   2.295   0.459   0.669  1.5410 -0.7344  0.4054
  106MOL    H7925489   2.385   0.389   0.531  0.2148 -1.4351  3.1787
  106MOL    H8025490   2.104   0.346   0.607  0.5601 -0.4331  1.0602
  106MOL    H8125491   2.131   0.148   0.701 -0.2721  2.0830  1.9263
  106MOL    H8225492   2.243   0.238   0.774 -1.6768 -2.2861  0.7199
  106MOL    H8325493   2.437   0.157   0.688  1.1030 -1.2853  0.1455
  106MOL    H8425494   2.333   0.030   0.742 -1.5838  0.1855 -0.5723
  106MOL    H8525495   2.351   0.059   0.569  0.0155  0.5098 -0.6107
  106MOL    C8625496   2.155   0.245   0.427 -1.5909 -0.6194 -0.0082
  106MOL    C8725497   2.070   0.116   0.435 -0.1881  0.4290 -1.1202
  106MOL    C8825498   2.081   0.035   0.305 -0.5539  0.2414 -0.3422
  106MOL    C8925499   2.031   0.102   0.178  0.1199 -0.1783  0.4508
  106MOL    H9025500   2.246   0.228   0.370 -0.7362 -0.0631  1.1635
  106MOL    H9125501   2.101   0.323   0.373 -1.2538  0.1667  0.7683
  106MOL    H9225502   2.099   0.047   0.515 -0.0615  1.2936 -0.4032
  106MOL    H9325503   2.036   7.642   0.310  0.0892 -0.2104 -2.6809
  106MOL    H9425504   2.187   0.020   0.282 -0.0156  2.7066  0.3777
  106MOL    H9525505   1.925   0.122   0.194  0.3746  0.4689  1.4185
  106MOL    H9625506   2.080   0.197   0.158  0.3279 -0.6295 -1.2387
  106MOL    H9725507   2.041   0.033   0.094 -0.8180  1.0886 -0.7233
  106MOL    C9825508   1.921   0.143   0.474  0.2713  0.4896  0.2434
  106MOL    C9925509   1.835   0.015   0.497  0.1110  0.0384 -0.2575
  106MOL   C10025510   1.738   7.683   0.374  0.2876 -0.4040  0.2638
  106MOL   C10125511   1.683   7.541   0.374  0.2069 -0.5570  0.1142
  106MOL   H10225512   1.869   0.209   0.406 -0.2688 -1.0641 -0.8656
  106MOL   H10325513   1.926   0.200   0.567  0.2060 -1.3778  1.4283
  106MOL   H10425514   1.900   7.634   0.498  0.0366 -0.0021  2.2613
  106MOL   H10525515   1.791   7.690   0.279 -0.9604  0.7817 -0.3514
  106MOL   H10625516   1.657   0.050   0.375  0.9809  0.4008 -0.9092
  106MOL   H10725517   1.761   7.471   0.345  1.4196  0.5761  0.6197
  106MOL   H10825518   1.653   7.541   0.479  0.3910  0.7049  0.1744
  106MOL   H10925519   1.598   7.538   0.305  0.7355 -2.0280 -0.4964
  106MOL   C11025520   1.752   0.026   0.629  0.6259 -0.1419 -0.0849
  106MOL   C11125521   1.618   0.104   0.634 -0.0544 -0.2801 -0.5655
  106MOL   C11225522   1.646   0.254   0.629 -0.1111  0.3893  0.2690
  106MOL   C11325523   1.527   0.350   0.620  0.6103  0.0862 -0.1587
  106MOL   H11425524   1.824   0.063   0.702  0.8602 -4.4350  2.0105
  106MOL   H11525525   1.741   7.631   0.668  0.1797 -0.6563 -1.4930
  106MOL   H11625526   1.559   0.080   0.546  0.3959 -0.6269 -0.7793
  106MOL   H11725527   1.705   0.280   0.542 -2.6282  1.2345 -1.2343
  106MOL   H11825528   1.703   0.288   0.715 -0.4528 -1.3775  1.2368
  106MOL   H11925529   1.458   0.323   0.539  1.1743 -1.7803 -0.0365
  106MOL   H12025530   1.469   0.337   0.712  0.1739 -0.9590 -0.5678
  106MOL   H12125531   1.569   0.450   0.624  1.2455 -0.2412  2.7564
  106MOL   C12225532   1.535   0.064   0.764 -0.3341 -0.9957 -0.6712
  106MOL   C12325533   1.478   7.626   0.770  0.6607 -0.3177 -0.7155
  106MOL   C12425534   1.375   7.593   0.650  0.2482  0.7275 -0.0901
  106MOL   C12525535   1.342   7.447   0.629  0.1114  1.2422  0.6345
  106MOL   H12625536   1.450   0.131   0.779  2.2343  2.1514  0.3334
  106MOL   H12725537   1.598   0.068   0.853 -0.1584 -0.9806 -0.7966
  106MOL   H12825538   1.560   7.555   0.761  1.3905  0.5330 -0.7697
  106MOL   H12925539   1.422   7.615   0.555 -3.9386 -0.1210 -2.4487
  106MOL   H13025540   1.283   7.647   0.669 -0.1566  0.4344 -1.1885
  106MOL   H13125541   1.306   7.430   0.527 -0.8568 -1.1508  1.3594
  106MOL   H13225542   1.435   7.391   0.636  1.0389  2.8457  1.4137
  106MOL   H13325543   1.273   7.408   0.703  1.9569  0.4933  1.9806
  106MOL   C13425544   1.406   7.582   0.902  0.5200 -0.0648  0.2225
  106MOL   C13525545   1.501   7.539   1.018  0.0966 -0.3036 -0.3767
  106MOL   C13625546   1.528   7.381   1.015 -0.1832 -0.5695  0.1580
  106MOL   C13725547   1.626   7.323   1.123 -0.3993  0.5325 -0.0907
  106MOL   H13825548   1.345   7.493   0.883 -1.3863  1.7946 -2.9040
  106MOL   H13925549   1.336   7.657   0.937 -1.5174 -1.1872 -1.2719
  106MOL   H14025550   1.592   7.593   0.990  0.0885  1.4807  2.8468
  106MOL   H14125551   1.563   7.357   0.915 -0.5268  0.1393 -0.1359
  106MOL   H14225552   1.440   7.318   1.028 -0.4573 -0.0860  0.6575
  106MOL   H14325553   1.727   7.338   1.086 -1.1150  1.1181 -1.8304
  106MOL   H14425554   1.619   7.364   1.224 -1.5549 -0.9228  0.4429
  106MOL   H14525555   1.593   7.219   1.128 -0.3685  0.5490  0.5094
  106MOL   C14625556   1.471   7.602   1.154  0.4758 -0.1974  0.1127
  106MOL   C14725557   1.359   7.548   1.240  0.7848 -0.1743  0.7377
  106MOL   C14825558   1.224   7.526   1.171 -0.7374  0.3256 -0.3720
  106MOL   C14925559   1.120   7.460   1.258  0.0769  0.4292  0.1918
  106MOL   H15025560   1.450   7.704   1.124 -1.5750 -0.3808  0.8640
  106MOL   H15125561   1.563   7.609   1.212  0.8026 -0.3337 -0.3842
  106MOL   H15225562   1.390   7.449   1.275 -1.2176  0.0260  3.3113
  106MOL   H15325563   1.234   7.465   1.081  1.6744  1.7496 -1.1308
  106MOL   H15425564   1.185   7.623   1.139 -0.2910  0.0255 -1.8926
  106MOL   H15525565   1.044   7.403   1.206 -0.9155  1.6738  0.2639
  106MOL   H15625566   1.169   7.390   1.326 -0.6816  0.5661  0.8842
  106MOL   H15725567   1.065   7.527   1.324 -0.2497 -1.9482  2.3946
  106MOL   C15825568   1.341   7.640   1.368  0.7655 -0.1760 -0.1565
  106MOL   C15925569   1.452   7.646   1.479 -0.1077 -0.9336  1.3196
  106MOL   C16025570   1.509   7.505   1.510 -0.5174  0.1459  0.2947
  106MOL   C16125571   1.409   7.394   1.563 -0.6534 -0.4969 -0.2593
  106MOL   H16225572   1.261   7.594   1.427  1.0602  0.3964  0.7082
  106MOL   H16325573   1.301   0.033   1.345 -2.1687 -1.5644 -1.2855
  106MOL   H16425574   1.534   0.001   1.442 -0.3082 -1.0183  0.7364
  106MOL   H16525575   1.585   7.521   1.587 -0.7104  1.3665  0.2419
  106MOL   H16625576   1.556   7.469   1.418 -3.1132 -2.1645 -0.2050
  106MOL   H16725577   1.348   7.339   1.491  0.5264 -1.4759 -0.5204
  106MOL   H16825578   1.466   7.307   1.596  2.3772  1.6216  0.3233
  106MOL   H16925579   1.358   7.434   1.650  2.8530  1.7677  0.8517
  106MOL   C17025580   1.412   0.017   1.612  0.2464  0.1927 -0.1661
  106MOL   C17125581   1.357   0.161   1.600  0.4233  0.4805 -0.1126
  106MOL   C17225582   1.469   0.267   1.590  0.0028  0.0148  0.9535
  106MOL   C17325583   1.433   0.411   1.548 -0.7624 -0.6997  0.4933
  106MOL   H17425584   1.493   0.023   1.685 -2.0056  1.5202  2.3165
  106MOL   H17525585   1.333   7.662   1.655 -1.4801  1.9646 -0.7201
  106MOL   H17625586   1.289   0.166   1.515 -0.7927 -0.7354  0.7752
  106MOL   H17725587   1.546   0.229   1.523 -2.3531 -0.8511 -1.3276
  106MOL   H17825588   1.526   0.277   1.683 -0.2882 -0.9427  1.2488
  106MOL   H17925589   1.371   0.446   1.630 -1.8405  1.1055 -1.0461
  106MOL   H18025590   1.514   0.484   1.547 -1.3999  0.0184  0.6396
  106MOL   H18125591   1.377   0.405   1.454 -0.2709 -4.1395  0.3648
  106MOL   C18225592   1.263   0.192   1.722  0.6731  0.4219 -0.3078
  106MOL   C18325593   1.127   0.121   1.710 -0.7206 -0.2133  0.3352
  106MOL   C18425594   1.031   0.207   1.627 -0.0994  0.2216  0.1179
  106MOL   C18525595   0.916   0.130   1.572  0.0757  0.6272  0.7766
  106MOL   H18625596   1.243   0.295   1.749 -1.6979 -0.2292  0.5823
  106MOL   H18725597   1.315   0.167   1.814  0.0513 -0.2307 -0.1253
  106MOL   H18825598   1.137   0.023   1.663 -0.3016 -1.0948  2.1914
  106MOL   H18925599   1.083   0.254   1.544  2.5301  1.5038  2.4049
  106MOL   H19025600   1.003   0.296   1.684  0.5662  0.7341 -0.3406
  106MOL   H19125601   0.957   0.036   1.534  1.4843  2.0017 -1.1959
  106MOL   H19225602   0.852   0.099   1.655  0.9385 -2.0663  0.4676
  106MOL   H19325603   0.871   0.183   1.488  2.3909  0.3999 -0.6297
  106MOL   C19425604   1.073   0.098   1.853  0.5122 -0.3006  0.1278
  106MOL   C19525605   1.133   7.676   1.919  0.7495 -0.3284 -0.5049
  106MOL   C19625606   1.053   7.557   1.860 -0.0619 -0.8495  0.4809
  106MOL   C19725607   1.137   7.420   1.869 -0.3215  0.0430  0.4733
  106MOL   H19825608   0.965   0.096   1.842  0.8984 -1.7822 -4.6278
  106MOL   H19925609   1.092   0.185   1.915 -0.0181 -0.8381  1.0533
  106MOL   H20025610   1.238   7.660   1.895  1.2128  1.8156  0.0517
  106MOL   H20125611   1.007   7.574   1.763  1.9875  1.2107 -0.1634
  106MOL   H20225612   0.962   7.541   1.919  0.5557  1.2371  2.0796
  106MOL   H20325613   1.103   7.324   1.832  1.2117 -0.1553 -0.4906
  106MOL   H20425614   1.235   7.445   1.828 -0.7261  0.4365 -0.2707
  106MOL   H20525615   1.176   7.405   1.970  1.9591  1.4215 -0.1525
  106MOL   C20625616   1.105   7.691   2.073 -0.5502  0.3205 -1.2337
  106MOL   C20725617   1.190   0.091   2.150  0.2699  0.0664  0.2148
  106MOL   C20825618   1.340   0.057   2.157  0.7769 -0.1121  0.4412
  106MOL   C20925619   1.388   7.622   2.217 -0.5818  1.1678  0.5319
  106MOL   H21025620   1.131   7.597   2.121 -0.4387  0.6337 -0.6827
  106MOL   H21125621   1.002   0.018   2.085 -0.2641  0.1821  1.7839
  106MOL   H21225622   1.183   0.191   2.106  2.2173  1.0194  2.0083
  106MOL   H21325623   1.386   0.130   2.223 -0.1931 -0.4684  1.5208
  106MOL   H21425624   1.368   0.061   2.051 -0.1755 -1.5026  0.1262
  106MOL   H21525625   1.363   7.619   2.324  2.6854  1.7447  1.3605
  106MOL   H21625626   1.342   7.537   2.166  1.9118  0.8627 -1.2624
  106MOL   H21725627   1.496   7.608   2.212 -0.8550 -1.8360  1.6892
  106MOL   C21825628   1.129   0.103   2.290  0.4178 -0.0085  0.3614
  106MOL   C21925629   0.998   0.190   2.299  0.2881 -0.6847 -0.6436
  106MOL   C22025630   0.999   0.346   2.253 -0.2159 -0.4008 -1.0527
  106MOL   C22125631   0.859   0.405   2.259 -0.1979 -0.3183 -1.1157
  106MOL   H22225632   1.202   0.170   2.337  1.9315 -0.3506 -1.4549
  106MOL   H22325633   1.121   0.010   2.345  0.1490  0.4009  1.0242
  106MOL   H22425634   0.919   0.147   2.237 -1.0762 -1.0650  1.2985
  106MOL   H22525635   1.034   0.356   2.150  0.9635  0.1115 -0.6179
  106MOL   H22625636   1.063   0.405   2.319 -0.9648 -0.7783  0.0226
  106MOL   H22725637   0.856   0.499   2.204 -1.8754 -0.4990 -1.3510
  106MOL   H22825638   0.783   0.346   2.209  1.9488 -2.2574 -2.2271
  106MOL   H22925639   0.823   0.429   2.359 -0.0985  0.4047 -1.2489
  106MOL   C23025640   0.949   0.188   2.444 -0.4542 -0.0590 -0.3214
  106MOL   C23125641   1.031   0.254   2.550  0.2095 -0.3080  0.2876
  106MOL   C23225642   1.001   0.189   2.677  0.2194 -0.6404 -0.2888
  106MOL   C23325643   1.075   0.061   2.705  0.5949  0.0614  0.2685
  106MOL   H23425644   0.948   0.081   2.464  1.0346 -0.2022 -0.9608
  106MOL   H23525645   0.845   0.218   2.452 -0.5606 -0.2180 -1.0533
  106MOL   H23625646   1.139   0.245   2.535 -0.1304 -0.0815 -2.6050
  106MOL   H23725647   0.893   0.187   2.694  0.1089 -0.8142 -0.9878
  106MOL   H23825648   1.035   0.265   2.748 -1.0126 -0.0675 -0.2956
  106MOL   H23925649   1.184   0.062   2.705  0.6007 -0.4782  0.5571
  106MOL   H24025650   1.050   0.027   2.805  1.2716  2.2943  1.2229
  106MOL   H24125651   1.048   7.683   2.641  0.0588 -0.5514  1.2934
  106MOL   H24225652   1.008   0.360   2.534 -3.6207 -0.8739  1.7024
  107MOL     C125653   4.162   0.515   4.577 -0.1582 -0.2787 -0.0282
  107MOL     C225654   4.032   0.532   4.500  0.1744 -0.1833 -0.2698
  107MOL     C325655   4.010   0.681   4.466 -0.2312  0.4424  0.1474
  107MOL     C425656   3.901   0.720   4.365  0.0295 -0.0245  0.3486
  107MOL     H525657   4.205   0.415   4.564  0.6615  0.0186  0.3508
  107MOL     H625658   4.241   0.586   4.552  0.3817 -0.4273  1.2193
  107MOL     H725659   4.039   0.489   4.400 -2.1448 -0.9822 -0.1164
  107MOL     H825660   4.106   0.712   4.426  0.6231 -0.1058  1.7459
  107MOL     H925661   3.997   0.734   4.561  0.5463  1.0598 -0.0832
  107MOL    H1025662   3.930   0.716   4.260 -0.7324  1.8908  0.0263
  107MOL    H1125663   3.814   0.657   4.384  0.7620 -0.0826  3.8956
  107MOL    H1225664   3.877   0.826   4.381 -0.5671 -0.0372 -0.4052
  107MOL    H1325665   4.138   0.533   4.682 -0.6249  0.3137 -0.2363
  107MOL    C1425666   3.906   0.470   4.575  0.2640 -0.1534  0.6920
  107MOL    C1525667   3.892   0.316   4.578  0.5489 -0.5951 -0.0983
  107MOL    C1625668   3.926   0.249   4.438  0.0705 -0.0044 -0.3101
  107MOL    C1725669   3.838   0.288   4.320  0.7036 -0.7495  0.0501
  107MOL    H1825670   3.810   0.500   4.533  0.1865 -0.7791  0.4032
  107MOL    H1925671   3.898   0.506   4.677 -3.6101 -1.1490  0.8253
  107MOL    H2025672   3.967   0.278   4.647  0.2856 -1.4037 -0.2518
  107MOL    H2125673   3.916   0.142   4.455  0.2956  0.4421  2.7563
  107MOL    H2225674   4.031   0.258   4.412 -0.1184  1.4402 -0.6231
  107MOL    H2325675   3.851   0.394   4.302  0.3668 -0.4998  1.2602
  107MOL    H2425676   3.856   0.247   4.221  0.1811 -0.6831 -0.0749
  107MOL    H2525677   3.731   0.278   4.337  0.7504  0.8654  1.4312
  107MOL    C2625678   3.760   0.265   4.639 -0.0188 -0.3734 -0.8158
  107MOL    C2725679   3.734   0.285   4.792 -0.6070 -0.3506 -0.7088
  107MOL    C2825680   3.848   0.210   4.881  0.5402 -0.3750  0.8046
  107MOL    C2925681   3.874   0.065   4.846 -0.3101 -0.5233 -0.3159
  107MOL    H3025682   3.747   0.163   4.605 -0.2282 -0.4449 -0.5123
  107MOL    H3125683   3.698   0.327   4.575  2.1334 -0.1553 -2.7791
  107MOL    H3225684   3.746   0.392   4.813 -1.0306 -0.2002 -1.2294
  107MOL    H3325685   3.818   0.217   4.985 -1.3814 -1.0167  0.3141
  107MOL    H3425686   3.937   0.272   4.870 -0.3027  0.4523 -1.9163
  107MOL    H3525687   3.919   0.062   4.747  1.6373  0.5365  0.5182
  107MOL    H3625688   3.956   0.035   4.911  0.7812  2.3081 -0.3090
  107MOL    H3725689   3.790   7.701   4.844  0.0236 -0.9349  0.1938
  107MOL    C3825690   3.590   0.253   4.837  0.1587 -0.3375  0.1935
  107MOL    C3925691   3.553   0.298   4.976  0.6572  0.1230  0.4695
  107MOL    C4025692   3.431   0.218   5.031 -0.0047 -0.2657  0.1756
  107MOL    C4125693   3.456   0.063   5.046 -0.3767  0.3098 -0.0881
  107MOL    H4225694   3.568   0.148   4.821  2.0761 -0.7165 -0.1245
  107MOL    H4325695   3.517   0.299   4.770 -0.9428  1.1696  2.3863
  107MOL    H4425696   3.632   0.279   5.048 -0.5415 -3.6308  0.8778
  107MOL    H4525697   3.343   0.232   4.968  1.1226 -0.0197 -1.3776
  107MOL    H4625698   3.399   0.264   5.124  0.0125 -0.3939  0.2444
  107MOL    H4725699   3.367   0.019   5.090  1.5676 -4.1110 -0.2835
  107MOL    H4825700   3.488   0.012   4.955  1.2537  2.8292 -1.0023
  107MOL    H4925701   3.535   0.035   5.115  1.0130 -0.5670 -1.9745
  107MOL    C5025702   3.516   0.442   4.990  0.2306  0.1105 -0.3250
  107MOL    C5125703   3.527   0.493   5.136  0.3870 -0.1272 -0.2249
  107MOL    C5225704   3.384   0.527   5.193  0.4217  0.4456  0.0166
  107MOL    C5325705   3.372   0.562   5.350  0.4006 -0.2911 -0.5028
  107MOL    H5425706   3.418   0.459   4.947 -1.1694 -0.4796  2.5066
  107MOL    H5525707   3.587   0.501   4.932  1.6981 -0.1988  1.1032
  107MOL    H5625708   3.562   0.415   5.204  0.7213  2.1326  2.2774
  107MOL    H5725709   3.313   0.444   5.192  0.5176  0.3635  0.0411
  107MOL    H5825710   3.332   0.594   5.124 -0.7254  0.6611  1.0603
  107MOL    H5925711   3.400   0.661   5.385 -0.8621 -0.1072 -0.0124
  107MOL    H6025712   3.275   0.539   5.393  0.9230 -1.1501  0.2499
  107MOL    H6125713   3.448   0.492   5.387 -1.3212 -2.1752 -0.4192
  107MOL    C6225714   3.612   0.615   5.143 -0.4460  0.5548  0.3144
  107MOL    C6325715   3.771   0.598   5.142 -0.2786  0.0492 -0.2626
  107MOL    C6425716   3.822   0.516   5.263  0.3757 -0.2442 -1.0373
  107MOL    C6525717   3.955   0.446   5.232 -0.0468 -0.1936  0.0838
  107MOL    H6625718   3.591   0.683   5.226  0.9422 -0.9102  1.9050
  107MOL    H6725719   3.571   0.672   5.059 -0.7580 -0.0600  0.0490
  107MOL    H6825720   3.785   0.548   5.046  0.6050 -3.7514  1.7001
  107MOL    H6925721   3.757   0.432   5.287  2.0591 -0.8850  1.4499
  107MOL    H7025722   3.824   0.577   5.354  1.4524 -0.1736 -1.1067
  107MOL    H7125723   4.039   0.512   5.211  1.9774 -1.9898  2.1832
  107MOL    H7225724   3.987   0.371   5.304  2.3673 -0.2453 -0.9810
  107MOL    H7325725   3.938   0.406   5.132 -1.0690  0.6929 -0.1096
  107MOL    C7425726   3.855   0.731   5.129  0.2070 -0.1985 -0.2217
  107MOL    C7525727   3.894   0.765   4.984 -0.1326  0.0733 -0.0604
  107MOL    C7625728   4.013   0.681   4.934  0.2647 -0.3992 -0.7859
  107MOL    C7725729   4.147   0.698   5.010  0.3102 -0.7211  0.0008
  107MOL    H7825730   3.951   0.726   5.181  0.3260  0.0677 -0.4155
  107MOL    H7925731   3.800   0.813   5.174  0.8933  0.3914 -0.4445
  107MOL    H8025732   3.813   0.738   4.916  1.6953 -0.6736 -1.9603
  107MOL    H8125733   4.034   0.717   4.833  1.3807 -0.1472 -0.4619
  107MOL    H8225734   3.986   0.577   4.917 -0.0812 -0.9517  2.7155
  107MOL    H8325735   4.217   0.630   4.962  1.0534 -2.0221  2.8278
  107MOL    H8425736   4.189   0.796   4.987 -0.4359 -0.7843 -1.6825
  107MOL    H8525737   4.145   0.686   5.118 -2.5252 -1.7423 -0.1180
  107MOL    C8625738   3.921   0.919   4.962  0.4419  0.3263  0.4557
  107MOL    C8725739   3.903   0.976   4.819  0.7243  0.1963 -0.0966
  107MOL    C8825740   4.021   1.078   4.792  0.0778  0.5469 -0.2019
  107MOL    C8925741   4.160   1.024   4.798 -0.0159  0.0443 -0.5678
  107MOL    H9025742   4.023   0.936   4.994  1.0506 -1.1465 -0.6372
  107MOL    H9125743   3.857   0.975   5.030 -0.2798  0.5829 -0.4167
  107MOL    H9225744   3.914   0.892   4.750  0.4978  0.1060 -0.0204
  107MOL    H9325745   4.023   1.170   4.850 -1.8700 -0.0129  0.8399
  107MOL    H9425746   4.014   1.104   4.687 -0.1548  0.5426 -0.1876
  107MOL    H9525747   4.166   0.921   4.763  0.0031 -0.0913 -0.1718
  107MOL    H9625748   4.223   1.075   4.726 -0.5259  1.0967 -0.2756
  107MOL    H9725749   4.201   1.033   4.899 -2.5948 -0.7181  0.6033
  107MOL    C9825750   3.768   1.045   4.793 -0.7065 -1.0162 -0.4328
  107MOL    C9925751   3.651   0.947   4.787 -0.0719 -0.1703 -0.1448
  107MOL   C10025752   3.668   0.837   4.677 -0.5412  0.8189  0.3303
  107MOL   C10125753   3.669   0.896   4.535  0.8747 -0.2469  0.3196
  107MOL   H10225754   3.774   1.094   4.696 -1.4111  0.2024  0.1270
  107MOL   H10325755   3.739   1.120   4.866  0.9642 -1.0396  0.2653
  107MOL   H10425756   3.665   0.895   4.882  1.3759  1.5990  0.6613
  107MOL   H10525757   3.580   0.774   4.679  0.6860 -1.1837 -3.5047
  107MOL   H10625758   3.757   0.779   4.700 -1.1255 -0.4647 -0.6098
  107MOL   H10725759   3.664   0.822   4.456  0.8959  0.6072 -0.4867
  107MOL   H10825760   3.587   0.964   4.515  0.2072 -1.7637 -2.3377
  107MOL   H10925761   3.758   0.956   4.518 -0.9470  2.3697 -0.2471
  107MOL   C11025762   3.519   1.016   4.790 -0.4029 -0.7489  0.1258
  107MOL   C11125763   3.457   1.068   4.922 -0.4520 -0.0903 -0.1745
  107MOL   C11225764   3.416   0.953   5.015 -0.1583  0.1697 -0.2872
  107MOL   C11325765   3.304   0.852   4.980 -0.0747 -0.2011  0.3983
  107MOL   H11425766   3.446   0.944   4.754  1.7963 -2.6892 -0.5573
  107MOL   H11525767   3.517   1.101   4.722 -2.9057  0.1754  1.2965
  107MOL   H11625768   3.531   1.129   4.973  0.1238 -0.7889 -0.1578
  107MOL   H11725769   3.395   0.996   5.112  2.0012  0.6951 -0.0370
  107MOL   H11825770   3.512   0.904   5.027  1.1381  2.9415  0.9907
  107MOL   H11925771   3.278   0.797   5.070 -0.5389  1.1516  1.0968
  107MOL   H12025772   3.212   0.903   4.950  0.3232  1.4720  1.9784
  107MOL   H12125773   3.334   0.778   4.906  1.3110 -0.0295  0.7729
  107MOL   C12225774   3.340   1.165   4.888 -0.1391 -0.0500 -0.2753
  107MOL   C12325775   3.281   1.240   5.009  0.1387  0.3236  0.7804
  107MOL   C12425776   3.127   1.258   5.004  1.1543 -0.4733 -0.3679
  107MOL   C12525777   3.040   1.135   4.979 -0.2130 -0.3810 -0.0866
  107MOL   H12625778   3.260   1.104   4.847 -1.0169  0.6012  0.4294
  107MOL   H12725779   3.365   1.238   4.810 -2.0241  2.5754  1.4993
  107MOL   H12825780   3.295   1.185   5.102  1.5248  2.3951  1.8293
  107MOL   H12925781   3.088   1.339   4.942  1.6952  0.6961  0.7753
  107MOL   H13025782   3.102   1.283   5.108 -2.0331 -2.1956 -0.6565
  107MOL   H13125783   3.077   1.051   5.038 -1.1142  1.1632  2.8194
  107MOL   H13225784   2.942   1.155   5.023 -0.2721  0.1704 -0.4705
  107MOL   H13325785   3.022   1.119   4.873  0.3469  0.7918 -0.3582
  107MOL   C13425786   3.367   1.371   5.031 -0.0793 -0.2650 -0.7376
  107MOL   C13525787   3.330   1.461   5.160 -0.0846  0.4920  0.0385
  107MOL   C13625788   3.313   1.609   5.108 -0.1743 -0.8765  0.6379
  107MOL   C13725789   3.185   1.646   5.029 -0.1382 -0.2422  0.2148
  107MOL   H13825790   3.353   1.434   4.943  2.3201 -0.3969 -1.2467
  107MOL   H13925791   3.475   1.357   5.021  0.1451  0.0616  1.1318
  107MOL   H14025792   3.234   1.430   5.202  0.5019 -1.5453 -0.0557
  107MOL   H14125793   3.399   1.634   5.046 -1.3925  0.9866 -0.3496
  107MOL   H14225794   3.314   1.675   5.194 -0.0217 -2.1700  1.6395
  107MOL   H14325795   3.191   1.598   4.931  0.0889  1.0218 -0.4080
  107MOL   H14425796   3.092   1.617   5.078 -0.5287 -1.2356 -1.0844
  107MOL   H14525797   3.177   1.754   5.020  1.6782 -0.1512 -0.4692
  107MOL   C14625798   3.439   1.455   5.270  0.7004  0.0379  0.1033
  107MOL   C14725799   3.448   1.311   5.332  0.4969  0.4035  0.1446
  107MOL   C14825800   3.320   1.264   5.403 -0.0826  0.3208 -1.1122
  107MOL   C14925801   3.324   1.111   5.416 -0.7823  0.4191 -0.3823
  107MOL   H15025802   3.410   1.525   5.348 -1.3282 -0.7975  0.1285
  107MOL   H15125803   3.533   1.480   5.222  1.3101 -1.1871  0.6265
  107MOL   H15225804   3.462   1.248   5.245 -1.6305  0.6195 -0.4031
  107MOL   H15325805   3.241   1.300   5.337  1.0584  2.6820 -1.2285
  107MOL   H15425806   3.315   1.306   5.503 -2.9197 -2.8345  0.2022
  107MOL   H15525807   3.249   1.076   5.487 -1.1417 -0.1314 -1.0336
  107MOL   H15625808   3.303   1.063   5.321 -0.3673 -2.8122  1.0849
  107MOL   H15725809   3.418   1.065   5.446 -1.5594 -0.8194  0.1995
  107MOL   C15825810   3.569   1.306   5.429 -0.3431  0.4001 -0.7690
  107MOL   C15925811   3.710   1.354   5.379  0.3984 -0.4433  0.0267
  107MOL   C16025812   3.756   1.281   5.255 -0.0693  0.0493  0.4092
  107MOL   C16125813   3.864   1.351   5.170  0.1682  0.3668  0.3671
  107MOL   H16225814   3.580   1.212   5.482 -0.9534  1.0530  0.5203
  107MOL   H16325815   3.541   1.376   5.508 -0.2752 -0.3149 -0.1125
  107MOL   H16425816   3.701   1.459   5.351  0.6328  0.4256  3.0033
  107MOL   H16525817   3.676   1.254   5.186  0.8392 -0.8803 -0.3033
  107MOL   H16625818   3.794   1.181   5.279  1.6908  0.5527 -0.1929
  107MOL   H16725819   3.885   1.306   5.073  0.7589  0.0785  0.6267
  107MOL   H16825820   3.831   1.453   5.148 -0.6769  0.1067  0.4060
  107MOL   H16925821   3.958   1.371   5.222  0.0023  3.4744 -0.4284
  107MOL   C17025822   3.822   1.356   5.492 -0.2693 -0.4380  0.2927
  107MOL   C17125823   3.786   1.449   5.609 -0.2313 -0.0371 -0.1823
  107MOL   C17225824   3.749   1.602   5.564 -0.2824 -0.4840  0.2478
  107MOL   C17325825   3.704   1.691   5.684  0.1993  0.3481 -0.1742
  107MOL   H17425826   3.916   1.394   5.453  0.2431 -1.0761  0.8899
  107MOL   H17525827   3.847   1.252   5.510 -0.4511 -1.1495 -3.2325
  107MOL   H17625828   3.700   1.424   5.671 -0.7163  2.1752  0.0787
  107MOL   H17725829   3.663   1.597   5.497 -2.3147 -2.3033  2.8642
  107MOL   H17825830   3.832   1.654   5.515 -1.3062  2.6827  1.7048
  107MOL   H17925831   3.661   1.779   5.637  1.4539  0.7855 -0.5151
  107MOL   H18025832   3.644   1.639   5.758  1.5095 -0.8971  0.0543
  107MOL   H18125833   3.788   1.716   5.748  0.1046 -0.0242  0.0973
  107MOL   C18225834   3.910   1.433   5.704 -0.7602  0.5849  0.3886
  107MOL   C18325835   3.948   1.298   5.779  0.2199  0.4153  0.1774
  107MOL   C18425836   3.815   1.245   5.842  0.2797 -0.3859  0.3068
  107MOL   C18525837   3.737   1.342   5.935 -0.4666  0.5093  0.5023
  107MOL   H18625838   3.907   1.525   5.762 -1.0339  0.3676  0.7234
  107MOL   H18725839   4.001   1.450   5.645 -1.1881  0.4492 -0.3145
  107MOL   H18825840   3.973   1.229   5.698 -1.2742  0.4250 -0.3099
  107MOL   H18925841   3.842   1.153   5.895 -1.3226  0.3725  2.4763
  107MOL   H19025842   3.745   1.223   5.761  0.0761 -2.8967  1.1084
  107MOL   H19125843   3.634   1.311   5.955 -0.8009  1.3100  0.0370
  107MOL   H19225844   3.798   1.338   6.025  0.2498 -0.5891 -0.0269
  107MOL   H19325845   3.736   1.442   5.891  3.9512  1.0350  1.3857
  107MOL   C19425846   4.064   1.322   5.882 -0.0378 -0.0703  0.1857
  107MOL   C19525847   4.116   1.198   5.968  1.3487 -0.0292 -0.2931
  107MOL   C19625848   4.153   1.243   6.109 -0.3232 -0.2308  0.3552
  107MOL   C19725849   4.183   1.138   6.216 -0.3394 -0.0496  0.1214
  107MOL   H19825850   4.044   1.414   5.937  0.9824  0.0561  0.3510
  107MOL   H19925851   4.149   1.359   5.824  0.6304  1.7505  2.2213
  107MOL   H20025852   4.030   1.131   5.981  0.0809  1.2025 -2.1386
  107MOL   H20125853   4.066   1.294   6.150 -1.5029 -0.0383 -2.3339
  107MOL   H20225854   4.240   1.306   6.093 -1.7467  1.9004  0.7518
  107MOL   H20325855   4.212   1.193   6.306  1.0014 -0.6910  0.0799
  107MOL   H20425856   4.099   1.069   6.216 -2.0795  1.9610  1.9987
  107MOL   H20525857   4.273   1.082   6.194  1.6602  2.9155  0.4039
  107MOL   C20625858   4.230   1.113   5.907  0.3026  0.0409  0.6219
  107MOL   C20725859   4.204   1.047   5.769  0.3593  0.2725 -0.3250
  107MOL   C20825860   4.089   0.939   5.766  0.3503 -0.5669  1.2682
  107MOL   C20925861   4.120   0.823   5.863  0.1728  0.0254 -0.7326
  107MOL   H21025862   4.262   1.038   5.980 -2.3008 -0.9074  0.8152
  107MOL   H21125863   4.319   1.175   5.894 -0.1340  0.9360  1.7788
  107MOL   H21225864   4.175   1.134   5.710  0.1359 -1.4393 -2.8423
  107MOL   H21325865   4.081   0.895   5.667 -0.1580  1.8737  0.1901
  107MOL   H21425866   3.992   0.987   5.782  0.8541  0.5903  0.8212
  107MOL   H21525867   4.041   0.749   5.855  0.2378 -0.1951  0.5674
  107MOL   H21625868   4.221   0.787   5.846  0.0989  0.1303 -1.4206
  107MOL   H21725869   4.128   0.850   5.969 -1.4112 -0.6238 -0.4351
  107MOL   C21825870   4.333   0.993   5.700 -0.1481 -0.4963  0.2137
  107MOL   C21925871   4.335   0.977   5.545  0.1898  0.0732 -0.3828
  107MOL   C22025872   4.434   0.869   5.500 -0.6627  0.3673  0.5777
  107MOL   C22125873   4.578   0.923   5.501  0.3571 -0.6994  0.1598
  107MOL   H22225874   4.362   0.897   5.741 -0.6528 -1.1366 -0.9047
  107MOL   H22325875   4.412   1.065   5.724 -0.5009 -0.8075  2.4004
  107MOL   H22425876   4.236   0.940   5.517  1.5434 -2.9425 -1.4346
  107MOL   H22525877   4.411   0.838   5.398  1.2179 -1.3005  0.6508
  107MOL   H22625878   4.421   0.777   5.557  1.4535 -0.5987 -0.4751
  107MOL   H22725879   4.592   1.007   5.432  0.0521 -0.8776 -0.1259
  107MOL   H22825880   4.604   0.962   5.599  0.0277  0.1296 -0.0780
  107MOL   H22925881   4.655   0.853   5.467 -2.6047 -3.8336 -0.4515
  107MOL   C23025882   4.344   1.111   5.470 -0.7884 -0.9032 -0.3586
  107MOL   C23125883   4.298   1.117   5.323  0.0197 -0.2453 -0.3966
  107MOL   C23225884   4.140   1.124   5.300  0.0913 -0.3044  0.2934
  107MOL   C23325885   4.066   0.988   5.290  0.4148 -0.0932 -0.2417
  107MOL   H23425886   4.443   1.156   5.460 -0.3133 -1.6230  0.9238
  107MOL   H23525887   4.291   1.184   5.531  0.7951 -0.7368  0.8597
  107MOL   H23625888   4.337   1.207   5.275  1.3023  0.0496  1.1372
  107MOL   H23725889   4.122   1.180   5.208 -2.3790  0.6641  1.3120
  107MOL   H23825890   4.092   1.186   5.376 -0.5935 -0.0990 -0.3024
  107MOL   H23925891   4.048   0.948   5.390  1.4859  2.9010  1.2002
  107MOL   H24025892   3.967   1.002   5.248 -0.6318  1.5266  2.5811
  107MOL   H24125893   4.121   0.908   5.239  1.8051  0.3548  0.5149
  107MOL   H24225894   4.335   1.038   5.258 -0.3103 -0.1311 -0.7224
  108MOL     C125895   4.628   4.389   6.307  0.3968  0.0072  0.5941
  108MOL     C225896   4.727   4.500   6.255  0.1139  0.1970  0.7750
  108MOL     C325897   4.812   4.548   6.373  0.3395  0.1726  0.4571
  108MOL     C425898   4.923   4.646   6.338 -0.6303  0.0775  0.2131
  108MOL     H525899   4.560   4.361   6.227 -1.3188  1.1545  1.6292
  108MOL     H625900   4.684   4.300   6.336  0.8692 -0.5011 -1.8197
  108MOL     H725901   4.801   4.456   6.187  0.7562  0.3620  1.3603
  108MOL     H825902   4.859   4.460   6.416  2.2111 -0.1538 -2.0871
  108MOL     H925903   4.748   4.586   6.453 -1.6867  1.9365 -1.9194
  108MOL    H1025904   4.967   4.613   6.244 -0.1679 -3.4978  1.5865
  108MOL    H1125905   4.888   4.749   6.328  2.8103  1.2112 -0.8654
  108MOL    H1225906   5.002   4.634   6.412 -2.6417 -1.6771  2.1656
  108MOL    H1325907   4.561   4.417   6.388 -1.3014 -1.4277 -0.2887
  108MOL    C1425908   4.648   4.617   6.186 -0.6578  0.2310  0.4639
  108MOL    C1525909   4.561   4.586   6.062  0.6472 -0.0322 -0.3491
  108MOL    C1625910   4.638   4.494   5.970  0.4910  0.0267  0.7505
  108MOL    C1725911   4.773   4.556   5.921 -0.6982  0.9034 -0.6684
  108MOL    H1825912   4.724   4.693   6.169 -3.7796  3.5047  0.7387
  108MOL    H1925913   4.586   4.675   6.254 -0.9231 -0.5242  0.8797
  108MOL    H2025914   4.472   4.530   6.091  0.6345  0.2433  0.1507
  108MOL    H2125915   4.574   4.457   5.890 -0.8157  3.0023  0.3285
  108MOL    H2225916   4.662   4.400   6.019  1.2882 -1.7760 -2.8778
  108MOL    H2325917   4.835   4.588   6.005  1.0397  0.1239 -1.6076
  108MOL    H2425918   4.833   4.485   5.863 -1.6611  0.3259 -0.9768
  108MOL    H2525919   4.767   4.642   5.854  0.1774  1.2827 -0.2709
  108MOL    C2625920   4.518   4.721   5.990  0.2244 -0.7579 -0.3273
  108MOL    C2725921   4.419   4.806   6.057  0.0895 -0.3101 -0.0099
  108MOL    C2825922   4.271   4.769   6.028 -0.2325 -0.3486  0.1374
  108MOL    C2925923   4.233   4.631   6.077  0.1430  0.4443  0.0956
  108MOL    H3025924   4.485   4.692   5.891 -3.3251  0.0803  0.5333
  108MOL    H3125925   4.611   4.776   5.975 -0.4495  0.3095 -0.5755
  108MOL    H3225926   4.430   4.798   6.165  0.7461  1.8305  0.0931
  108MOL    H3325927   4.249   4.768   5.921  0.4994 -2.5931 -0.0290
  108MOL    H3425928   4.201   4.838   6.075 -0.9831 -2.2780  1.9593
  108MOL    H3525929   4.272   4.551   6.014  1.8519  0.9902  0.4181
  108MOL    H3625930   4.258   4.620   6.183 -0.4314 -0.7773  0.1089
  108MOL    H3725931   4.126   4.611   6.087  0.0077  1.5888  0.9979
  108MOL    C3825932   4.433   4.949   6.015  0.4166 -0.1099  0.4670
  108MOL    C3925933   4.542   5.030   6.093  0.1753  0.5217  0.4533
  108MOL    C4025934   4.490   5.072   6.231  0.0204 -0.9826  0.7626
  108MOL    C4125935   4.591   5.065   6.347  0.0036 -0.7901  0.0682
  108MOL    H4225936   4.335   4.994   6.028  0.3723  0.2421 -0.9770
  108MOL    H4325937   4.450   4.955   5.908  1.1875 -3.3020  0.3713
  108MOL    H4425938   4.632   4.970   6.107 -1.2686 -1.5671  1.0346
  108MOL    H4525939   4.413   5.006   6.271 -0.6505 -0.0662  1.0153
  108MOL    H4625940   4.441   5.170   6.226  2.3770  0.1553 -1.1575
  108MOL    H4725941   4.663   5.147   6.345  0.9801 -1.5223  2.9774
  108MOL    H4825942   4.532   5.067   6.438  1.1908 -2.1899  0.8997
  108MOL    H4925943   4.651   4.974   6.354  1.3845  0.1370  0.5617
  108MOL    C5025944   4.607   5.154   6.017  0.0084  0.2621 -0.1600
  108MOL    C5125945   4.692   5.118   5.895  0.9229 -0.2006 -0.4755
  108MOL    C5225946   4.830   5.084   5.945 -0.1801  0.3869 -0.1904
  108MOL    C5325947   4.930   5.032   5.844 -0.5403  0.3259  0.1978
  108MOL    H5425948   4.657   5.224   6.085  1.9062 -0.5426 -0.6873
  108MOL    H5525949   4.521   5.209   5.980 -0.8194 -0.0381  1.2706
  108MOL    H5625950   4.647   5.030   5.851  0.6279  0.6930 -2.0010
  108MOL    H5725951   4.819   5.008   6.023 -0.5249 -0.8776 -1.4636
  108MOL    H5825952   4.879   5.167   5.997  0.3906  0.8436 -1.4464
  108MOL    H5925953   4.895   4.937   5.804  1.8008  0.0263 -1.2283
  108MOL    H6025954   4.960   5.105   5.769 -0.6035 -0.0202 -0.1680
  108MOL    H6125955   5.027   5.019   5.891  0.0697  1.8435 -0.5873
  108MOL    C6225956   4.686   5.224   5.786  0.3837  0.1357 -0.2558
  108MOL    C6325957   4.568   5.223   5.683  0.2909  0.1736 -0.7470
  108MOL    C6425958   4.573   5.098   5.588  0.9243  0.1892  0.4757
  108MOL    C6525959   4.690   5.090   5.490 -0.5751 -0.3265 -0.3778
  108MOL    H6625960   4.778   5.235   5.729  0.9290 -1.4131  0.2978
  108MOL    H6725961   4.688   5.319   5.839  1.9075 -0.9616  1.7283
  108MOL    H6825962   4.478   5.215   5.743  1.1019  0.9534  0.5808
  108MOL    H6925963   4.481   5.082   5.532  1.4822  0.1820 -0.4595
  108MOL    H7025964   4.572   5.009   5.650 -0.9325 -1.2227 -1.5195
  108MOL    H7125965   4.784   5.077   5.543 -0.8429 -4.2067 -0.6537
  108MOL    H7225966   4.683   5.000   5.428 -0.6578 -1.0812  0.7081
  108MOL    H7325967   4.680   5.180   5.429  0.9654 -0.3883 -0.7356
  108MOL    C7425968   4.565   5.349   5.606  0.4856  1.0222  0.4042
  108MOL    C7525969   4.482   5.460   5.679  0.0906 -0.0197 -0.1998
  108MOL    C7625970   4.331   5.444   5.637  0.0672 -0.2673  0.2180
  108MOL    C7725971   4.292   5.489   5.493 -0.6384 -0.4940 -0.0684
  108MOL    H7825972   4.527   5.328   5.506 -2.4166 -0.5833  1.7669
  108MOL    H7925973   4.666   5.388   5.597  1.1901 -0.4992  1.5489
  108MOL    H8025974   4.477   5.445   5.787 -0.0381  1.1447 -0.0344
  108MOL    H8125975   4.272   5.498   5.711  0.8773 -0.1447  0.7855
  108MOL    H8225976   4.290   5.343   5.626 -2.0662  0.3470  2.1010
  108MOL    H8325977   4.346   5.448   5.407  3.5681  1.1422  1.6666
  108MOL    H8425978   4.186   5.467   5.480 -1.7017  1.4458  4.2719
  108MOL    H8525979   4.302   5.598   5.485  2.4503 -0.5401  2.2153
  108MOL    C8625980   4.537   5.606   5.651 -0.6159 -0.3469  0.5189
  108MOL    C8725981   4.661   5.649   5.736 -0.0953  0.0074  0.0230
  108MOL    C8825982   4.622   5.678   5.879  0.1956 -0.3447  0.0854
  108MOL    C8925983   4.728   5.693   5.987  0.3450 -0.2986 -0.0146
  108MOL    H9025984   4.455   5.676   5.663 -0.8669  0.3113 -4.3091
  108MOL    H9125985   4.582   5.596   5.553  0.2237 -2.7593  1.0972
  108MOL    H9225986   4.732   5.566   5.747 -1.3196 -0.9791  0.6102
  108MOL    H9325987   4.567   5.592   5.918  1.1497 -0.7769  0.4836
  108MOL    H9425988   4.553   5.763   5.877 -1.3684 -1.6012 -0.7688
  108MOL    H9525989   4.713   5.774   6.058 -0.8940  0.0444 -0.6485
  108MOL    H9625990   4.735   5.601   6.045 -1.3060 -0.1984  0.3706
  108MOL    H9725991   4.830   5.696   5.949  0.6355  1.4149  0.8288
  108MOL    C9825992   4.726   5.769   5.665 -0.4168 -0.4004 -0.5685
  108MOL    C9925993   4.833   5.725   5.559  0.1438  0.9698 -0.1657
  108MOL   C10025994   4.981   5.730   5.607 -0.3619 -0.8812 -0.4586
  108MOL   C10125995   5.016   5.614   5.705  0.8162 -0.8723  0.2069
  108MOL   H10225996   4.779   5.841   5.727 -0.0471 -1.3791  0.2543
  108MOL   H10325997   4.656   5.838   5.618  1.5747  2.5314  0.5774
  108MOL   H10425998   4.817   5.623   5.523  0.7488 -0.1317  2.5682
  108MOL   H10525999   4.991   5.825   5.658 -3.3093 -0.3376 -0.8418
  108MOL   H10626000   5.054   5.735   5.527  0.4128 -0.4905  0.2617
  108MOL   H10726001   5.107   5.639   5.760  0.2526  1.5888  0.1017
  108MOL   H10826002   4.948   5.599   5.789  1.7091  0.1221  1.1316
  108MOL   H10926003   5.020   5.515   5.660 -2.9695 -0.5635 -0.9860
  108MOL   C11026004   4.811   5.809   5.436  0.3085  0.1669  0.2272
  108MOL   C11126005   4.822   5.965   5.431 -0.7845  0.1698 -0.6552
  108MOL   C11226006   4.699   6.021   5.350  0.4094 -0.3136 -0.8891
  108MOL   C11326007   4.678   6.172   5.351 -0.4046 -0.3807 -0.6612
  108MOL   H11426008   4.713   5.787   5.394  0.7594  0.2712 -0.8861
  108MOL   H11526009   4.869   5.764   5.356 -0.1055 -0.3527  0.2183
  108MOL   H11626010   4.822   6.008   5.531 -0.9693  0.7658 -0.9144
  108MOL   H11726011   4.606   5.979   5.389  0.6333 -0.8069 -0.8844
  108MOL   H11826012   4.710   5.990   5.247 -0.8825  0.3389 -1.2291
  108MOL   H11926013   4.743   6.233   5.288 -1.5818 -0.7433 -2.2846
  108MOL   H12026014   4.579   6.199   5.312 -0.5657  1.3484  0.8853
  108MOL   H12126015   4.675   6.213   5.452  1.0436 -0.9387 -0.3875
  108MOL   C12226016   4.960   5.996   5.368 -0.7098 -0.8176 -0.1468
  108MOL   C12326017   5.010   6.134   5.394 -0.1841  0.3593 -0.6232
  108MOL   C12426018   5.128   6.169   5.297 -0.2431 -0.4467 -0.0434
  108MOL   C12526019   5.071   6.214   5.163 -0.3230  0.1364  0.1926
  108MOL   H12626020   4.957   5.997   5.259  0.0411  2.3159 -0.1880
  108MOL   H12726021   5.043   5.930   5.393 -0.1313  0.1868  0.6346
  108MOL   H12826022   4.925   6.202   5.394 -0.4701  0.0802  1.9794
  108MOL   H12926023   5.192   6.081   5.289 -2.0263 -1.8923  1.3830
  108MOL   H13026024   5.186   6.251   5.341  0.1560 -0.4224 -0.6064
  108MOL   H13126025   5.080   6.124   5.102  2.2352 -0.5481  1.4880
  108MOL   H13226026   4.975   6.264   5.170  0.7825  2.0910  1.6976
  108MOL   H13326027   5.142   6.283   5.116  0.0862  0.9411  1.9708
  108MOL   C13426028   5.066   6.150   5.539  0.0351 -0.1752  0.0316
  108MOL   C13526029   5.012   6.268   5.614  0.3385 -0.5003 -0.3901
  108MOL   C13626030   5.083   6.397   5.558  0.6513 -0.8313 -0.5463
  108MOL   C13726031   5.233   6.420   5.561  0.3894  0.3818  0.1928
  108MOL   H13826032   5.175   6.151   5.539  0.0401  1.9377 -0.5950
  108MOL   H13926033   5.047   6.058   5.593 -1.7881  1.2286  1.8693
  108MOL   H14026034   4.907   6.272   5.588  0.6267 -1.3362 -1.7503
  108MOL   H14126035   5.034   6.487   5.594  0.6822 -0.2719 -1.8851
  108MOL   H14226036   5.059   6.404   5.452 -0.6250  1.4425 -0.1319
  108MOL   H14326037   5.295   6.332   5.578  0.2883  0.8065  2.8691
  108MOL   H14426038   5.259   6.466   5.465 -1.6872 -0.8658 -1.0229
  108MOL   H14526039   5.268   6.483   5.642  3.8692  2.4302 -2.7383
  108MOL   C14626040   5.020   6.252   5.767 -0.7953 -0.0778 -0.5583
  108MOL   C14726041   4.909   6.168   5.832  0.5377 -0.0502  0.6989
  108MOL   C14826042   4.765   6.216   5.804 -0.4241  0.1798  0.0338
  108MOL   C14926043   4.743   6.367   5.827 -0.6537 -0.2857 -0.5710
  108MOL   H15026044   5.012   6.346   5.822 -2.1621 -0.0579 -0.7680
  108MOL   H15126045   5.112   6.202   5.797 -0.9287 -0.4082 -0.7047
  108MOL   H15226046   4.919   6.072   5.782 -0.1485 -0.5294  1.4787
  108MOL   H15326047   4.691   6.156   5.857  0.8262 -0.1085  1.4888
  108MOL   H15426048   4.749   6.200   5.697  2.5737 -0.7629 -0.3065
  108MOL   H15526049   4.755   6.392   5.933  0.4507  2.3330 -1.2693
  108MOL   H15626050   4.824   6.423   5.780  0.0550 -0.6331  0.2229
  108MOL   H15726051   4.644   6.394   5.791 -0.2427 -0.0192 -1.5003
  108MOL   C15826052   4.930   6.148   5.987 -0.0630 -0.2977  0.2707
  108MOL   C15926053   5.045   6.054   6.018  0.2143  0.3969 -0.4671
  108MOL   C16026054   5.010   5.902   5.999  0.0139 -0.1586  0.0055
  108MOL   C16126055   5.131   5.804   6.013  0.9009 -0.0375 -0.0265
  108MOL   H16226056   4.840   6.103   6.029 -1.6711  1.0411 -1.6831
  108MOL   H16326057   4.937   6.243   6.039 -2.6008 -0.3776  0.7983
  108MOL   H16426058   5.128   6.068   5.950 -0.6620  1.5035 -1.3215
  108MOL   H16526059   4.963   5.875   5.904  2.7246  1.1848 -1.7734
  108MOL   H16626060   4.931   5.874   6.069  0.6946  1.7705  1.5711
  108MOL   H16726061   5.204   5.813   5.933  2.1025  0.1198  1.0698
  108MOL   H16826062   5.197   5.817   6.099  0.1407  1.1752  0.3842
  108MOL   H16926063   5.097   5.701   6.013 -1.6516  0.7512 -1.6244
  108MOL   C17026064   5.107   6.084   6.159  0.4318 -0.2404  0.0539
  108MOL   C17126065   5.264   6.108   6.146 -0.3334  0.0289  0.5795
  108MOL   C17226066   5.331   6.091   6.288  0.0417 -0.2734  0.1082
  108MOL   C17326067   5.364   5.952   6.327  0.4751  0.4979  0.3913
  108MOL   H17426068   5.099   5.990   6.214  4.0122 -2.2182 -2.6355
  108MOL   H17526069   5.050   6.166   6.202  2.0294  0.4929  0.8377
  108MOL   H17626070   5.308   6.040   6.073 -0.6569  0.4317  0.0083
  108MOL   H17726071   5.255   6.113   6.363 -0.1669  1.4347 -0.5786
  108MOL   H17826072   5.425   6.145   6.302 -0.2331  0.8328 -2.1347
  108MOL   H17926073   5.416   5.890   6.254 -1.1301  0.7501 -0.9942
  108MOL   H18026074   5.421   5.958   6.420  0.2488  1.3450  0.4803
  108MOL   H18126075   5.277   5.891   6.349  1.3007 -0.7100  0.3647
  108MOL   C18226076   5.278   6.250   6.085 -0.6481 -0.2316 -0.2532
  108MOL   C18326077   5.426   6.310   6.070  0.4725  0.3089  0.3004
  108MOL   C18426078   5.413   6.463   6.059 -0.7583  0.2214 -0.2926
  108MOL   C18526079   5.361   6.525   5.922  0.0478 -0.3952 -0.8582
  108MOL   H18626080   5.230   6.320   6.153  0.2447  0.3664 -0.2344
  108MOL   H18726081   5.221   6.281   5.997  3.0120  2.8801 -1.6822
  108MOL   H18826082   5.477   6.301   6.165 -0.4873 -0.5750  0.7368
  108MOL   H18926083   5.514   6.503   6.061 -0.0527 -1.2853 -2.4671
  108MOL   H19026084   5.354   6.493   6.145  0.4020  1.0839  0.2189
  108MOL   H19126085   5.376   6.631   5.940 -0.6454 -0.1929 -1.4369
  108MOL   H19226086   5.427   6.490   5.842 -1.6751  0.1019 -2.5574
  108MOL   H19326087   5.255   6.504   5.907 -0.4261  0.6331  0.9659
  108MOL   C19426088   5.508   6.257   5.947  0.0720  0.5041 -0.0409
  108MOL   C19526089   5.572   6.117   5.952 -0.8510  0.1510 -0.3122
  108MOL   C19626090   5.687   6.121   6.058 -0.3753  0.4231 -0.3840
  108MOL   C19726091   5.723   5.982   6.116 -0.3081  0.5185  0.6512
  108MOL   H19826092   5.588   6.328   5.924  3.4097 -2.6115  1.4545
  108MOL   H19926093   5.438   6.253   5.864  0.6854  2.7041 -0.7083
  108MOL   H20026094   5.493   6.049   5.984 -1.3489  1.0728  0.4737
  108MOL   H20126095   5.656   6.171   6.150 -0.9681  2.8999 -1.8901
  108MOL   H20226096   5.776   6.172   6.021  1.2558 -0.7773  1.7217
  108MOL   H20326097   5.782   5.980   6.207  0.4139 -1.7163  0.1649
  108MOL   H20426098   5.626   5.942   6.146  0.0426 -1.1323 -0.3460
  108MOL   H20526099   5.756   5.914   6.037 -0.0680  0.1614  1.0599
  108MOL   C20626100   5.622   6.063   5.814  0.5722  0.0195 -0.1547
  108MOL   C20726101   5.519   6.019   5.711  0.7528 -0.3103  0.2937
  108MOL   C20826102   5.440   5.900   5.751  0.1099 -0.6480 -0.3488
  108MOL   C20926103   5.302   5.923   5.700  0.7066 -0.2155 -0.0278
  108MOL   H21026104   5.698   5.985   5.829  0.4948  0.1960  1.1836
  108MOL   H21126105   5.675   6.147   5.770 -0.1102  1.1003  1.0603
  108MOL   H21226106   5.452   6.104   5.698 -0.2544 -1.4842 -2.6489
  108MOL   H21326107   5.436   5.892   5.860  0.9653 -0.1438 -0.2732
  108MOL   H21426108   5.485   5.810   5.709  0.6848  0.1259 -1.4007
  108MOL   H21526109   5.244   6.001   5.748  0.0029  0.1139 -1.3847
  108MOL   H21626110   5.312   5.954   5.596  0.0113  1.3353  0.3544
  108MOL   H21726111   5.256   5.824   5.709  2.0455 -0.7830  0.7255
  108MOL   C21826112   5.585   5.977   5.572  0.0429  0.8139  0.0513
  108MOL   C21926113   5.617   6.091   5.478 -0.0841 -0.5066 -0.4251
  108MOL   C22026114   5.485   6.146   5.413 -0.0486 -0.4073  0.2168
  108MOL   C22126115   5.523   6.264   5.325  0.2482 -0.4934  0.3680
  108MOL   H22226116   5.526   5.900   5.524  2.3145 -0.8179 -0.2300
  108MOL   H22326117   5.677   5.922   5.594  0.3841  0.7857 -1.4323
  108MOL   H22426118   5.660   6.176   5.530 -1.0489 -0.8666  0.9875
  108MOL   H22526119   5.410   6.183   5.483 -0.8522  2.0256 -1.8231
  108MOL   H22626120   5.432   6.072   5.353 -0.2433 -0.3988  0.3768
  108MOL   H22726121   5.603   6.244   5.254  2.1592  1.3700  1.9295
  108MOL   H22826122   5.431   6.303   5.280  1.8133  0.0455 -2.5316
  108MOL   H22926123   5.554   6.351   5.383 -0.0265  0.1539 -0.4362
  108MOL   C23026124   5.717   6.041   5.371  0.0186  0.4867  0.4470
  108MOL   C23126125   5.665   5.940   5.264  0.5103  0.8748 -0.4204
  108MOL   C23226126   5.782   5.884   5.188  0.0928 -0.2994  0.1209
  108MOL   C23326127   5.740   5.771   5.100  0.3275 -0.0182 -0.1616
  108MOL   H23426128   5.798   5.999   5.430 -1.4596 -3.3267 -0.1075
  108MOL   H23526129   5.758   6.131   5.324  0.0353 -0.0834 -0.6648
  108MOL   H23626130   5.610   5.868   5.326 -1.5259  2.0711 -0.7889
  108MOL   H23726131   5.850   5.840   5.262 -0.3998 -0.5743  0.4139
  108MOL   H23826132   5.832   5.956   5.123 -0.0620 -1.6853 -1.5730
  108MOL   H23926133   5.819   5.733   5.037  0.2167 -0.5408  0.0104
  108MOL   H24026134   5.688   5.685   5.144 -1.4752  0.9034 -0.4222
  108MOL   H24126135   5.665   5.804   5.027  0.0936  0.3751  0.2513
  108MOL   H24226136   5.593   5.980   5.193 -0.7685 -1.3098 -0.4035
  109MOL     C126137   7.424   0.682   5.649 -0.2091 -0.3309 -0.2851
  109MOL     C226138   7.338   0.595   5.738  0.0568  0.2054  0.1392
  109MOL     C326139   7.276   0.687   5.843  0.1666  0.5706  0.4775
  109MOL     C426140   7.155   0.761   5.790  0.6577  0.3151  0.0734
  109MOL     H526141   7.467   0.615   5.574 -0.7207  0.2293 -1.0894
  109MOL     H626142   7.364   0.761   5.603 -0.5812 -0.3471  0.1721
  109MOL     H726143   7.259   0.543   5.684  0.3860 -0.9114  0.7338
  109MOL     H826144   7.347   0.760   5.881  2.6548 -0.7812 -1.4398
  109MOL     H926145   7.250   0.627   5.931  0.4035 -2.2085 -1.2834
  109MOL    H1026146   7.083   0.685   5.757  1.0412 -0.0264  0.0235
  109MOL    H1126147   7.106   0.809   5.875 -2.1630  0.7374 -1.7256
  109MOL    H1226148   7.173   0.826   5.705  0.5770  0.9175  0.5179
  109MOL    H1326149   7.504   0.735   5.699 -0.5030  0.0103 -0.1712
  109MOL    C1426150   7.418   0.484   5.813 -0.3552  0.1427 -0.4383
  109MOL    C1526151   7.501   0.374   5.745 -0.0592 -0.2346  0.1669
  109MOL    C1626152   7.422   0.310   5.631  0.2948  0.2355 -0.3007
  109MOL    C1726153   7.299   0.227   5.671  1.0147 -0.2667  0.0290
  109MOL    H1826154   7.347   0.441   5.883 -1.6254 -1.4769 -2.6427
  109MOL    H1926155   7.489   0.544   5.870 -0.0733 -1.7387  1.2004
  109MOL    H2026156   7.588   0.423   5.701 -1.5206  1.6900 -0.6562
  109MOL    H2126157   7.489   0.258   5.561  0.9152  0.6970 -0.0551
  109MOL    H2226158   7.386   0.392   5.569 -2.3001  0.6119  1.6150
  109MOL    H2326159   7.261   0.186   5.578  0.7375  0.1009 -0.0206
  109MOL    H2426160   7.327   0.139   5.729 -1.0150 -1.2441 -0.4361
  109MOL    H2526161   7.232   0.292   5.726 -0.7702 -1.8037 -0.2915
  109MOL    C2626162   7.556   0.265   5.837  0.1856  0.0154 -0.4126
  109MOL    C2726163   7.666   0.324   5.940  0.2669  0.0657 -0.7033
  109MOL    C2826164   0.096   0.361   5.869 -0.5463  0.3322  0.0858
  109MOL    C2926165   0.178   0.248   5.806  0.2642  0.0293 -0.0206
  109MOL    H3026166   7.593   0.184   5.774  0.1355  1.3802 -2.2398
  109MOL    H3126167   7.475   0.223   5.897  1.2490 -0.4877  0.6849
  109MOL    H3226168   7.623   0.416   5.980 -0.6226 -0.0056 -1.4621
  109MOL    H3326169   0.155   0.406   5.948  0.7592 -2.8149  0.9646
  109MOL    H3426170   0.083   0.445   5.800  1.4931  1.3782  0.9610
  109MOL    H3526171   0.202   0.171   5.879  1.6015 -0.4046 -0.9117
  109MOL    H3626172   0.121   0.213   5.720 -1.8666 -1.7691  2.0598
  109MOL    H3726173   0.280   0.280   5.784  0.3662 -0.5279 -0.3656
  109MOL    C3826174   7.678   0.226   6.057 -0.5215  0.4513 -0.0459
  109MOL    C3926175   0.049   0.277   6.178 -0.7385 -0.2612  0.5076
  109MOL    C4026176   0.091   0.155   6.269  0.3408  0.1825  0.5443
  109MOL    C4126177   7.681   0.062   6.325  0.0296 -0.5472  0.0972
  109MOL    H4226178   0.023   0.141   6.012 -1.9423 -0.6121  0.3130
  109MOL    H4326179   7.575   0.197   6.082 -0.0695  0.1942  1.5914
  109MOL    H4426180   0.148   0.309   6.147 -1.0754  0.7213  0.4388
  109MOL    H4526181   0.144   0.201   6.352 -0.7659  1.1702  0.7110
  109MOL    H4626182   0.166   0.091   6.222 -0.8602  1.0093 -2.6087
  109MOL    H4726183   0.014   7.675   6.364  1.8752 -0.3290 -1.1251
  109MOL    H4826184   7.634   0.102   6.414  1.0736 -1.1185  0.9101
  109MOL    H4926185   7.607   0.035   6.249 -1.1085 -0.1139  1.0491
  109MOL    C5026186   7.683   0.374   6.275  0.3509 -0.1714 -0.3107
  109MOL    C5126187   7.651   0.523   6.237  0.6702  0.1236 -0.0908
  109MOL    C5226188   0.076   0.596   6.195 -0.1296 -0.1062 -0.1596
  109MOL    C5326189   0.068   0.725   6.115 -0.0492 -0.1161 -0.5903
  109MOL    H5426190   0.036   0.386   6.366 -2.4007  1.1625  1.3564
  109MOL    H5526191   7.589   0.326   6.302 -0.6076  1.5699 -0.4656
  109MOL    H5626192   7.581   0.520   6.154  0.5477  3.4335 -0.1868
  109MOL    H5726193   0.136   0.536   6.127 -1.0122  1.5026 -2.4089
  109MOL    H5826194   0.132   0.618   6.286  1.8724 -0.9699 -1.1337
  109MOL    H5926195   7.688   0.720   6.048 -1.8015  0.4294  1.5506
  109MOL    H6026196   0.038   0.809   6.178  3.3576 -1.0881  2.4754
  109MOL    H6126197   0.162   0.754   6.068  1.2733 -0.9515  1.4837
  109MOL    C6226198   7.572   0.597   6.344  0.1558  0.2310 -0.2068
  109MOL    C6326199   7.422   0.565   6.371 -0.7106 -0.4720  0.6090
  109MOL    C6426200   7.336   0.619   6.259 -0.5693  0.1171 -0.2157
  109MOL    C6526201   7.372   0.760   6.215  0.1379  0.5088 -0.1596
  109MOL    H6626202   7.582   0.705   6.334  0.2793  0.1254 -1.2900
  109MOL    H6726203   7.626   0.588   6.438 -2.7502  0.7030  1.5680
  109MOL    H6826204   7.404   0.458   6.362 -1.0494 -0.5146  1.6595
  109MOL    H6926205   7.234   0.619   6.296 -0.3549  3.0345  0.5018
  109MOL    H7026206   7.345   0.554   6.172 -2.0688 -0.5408  0.1092
  109MOL    H7126207   7.375   0.827   6.301 -1.4667 -1.1020  1.1741
  109MOL    H7226208   7.466   0.777   6.160  1.0502  2.7269  1.9841
  109MOL    H7326209   7.300   0.808   6.148  0.0670  1.2492  0.4365
  109MOL    C7426210   7.382   0.609   6.518  0.5695  0.0800 -0.5365
  109MOL    C7526211   7.410   0.508   6.623  0.4211 -0.3580 -0.0969
  109MOL    C7626212   7.282   0.425   6.652 -0.0194 -0.7956  0.4248
  109MOL    C7726213   7.218   0.339   6.538  0.1954  0.2250  0.3560
  109MOL    H7826214   7.275   0.628   6.520  0.2159 -1.8528  0.0021
  109MOL    H7926215   7.436   0.702   6.537 -0.1209  0.1650  1.0473
  109MOL    H8026216   7.490   0.441   6.590  0.4561  1.0897 -3.1826
  109MOL    H8126217   7.209   0.473   6.717  0.1125  2.8397 -1.9587
  109MOL    H8226218   7.319   0.341   6.710  1.7121 -0.0198  0.4719
  109MOL    H8326219   7.151   0.265   6.581  1.7497 -1.4001  0.0481
  109MOL    H8426220   7.164   0.400   6.464  0.6889 -0.0976 -0.2753
  109MOL    H8526221   7.287   0.284   6.474  1.3210 -2.2619  3.6001
  109MOL    C8626222   7.459   0.571   6.748 -0.6887 -0.3750 -0.3102
  109MOL    C8726223   7.597   0.646   6.757  0.2893  0.9913 -0.0358
  109MOL    C8826224   0.004   0.547   6.731 -1.0728 -0.5680 -0.7878
  109MOL    C8926225   0.029   0.440   6.834  0.3221  0.3711 -1.1086
  109MOL    H9026226   7.466   0.493   6.823  0.0818  0.6418  0.7032
  109MOL    H9126227   7.395   0.638   6.805  1.4836  1.6908 -0.1847
  109MOL    H9226228   7.598   0.725   6.682  1.4223  0.3636 -0.6908
  109MOL    H9326229   0.092   0.612   6.733  0.1352 -2.1841 -0.0904
  109MOL    H9426230   7.695   0.490   6.639  1.5681 -1.5760 -0.6433
  109MOL    H9526231   0.097   0.361   6.803  0.1134  0.2938 -1.3613
  109MOL    H9626232   0.056   0.472   6.935 -2.2802 -0.4850 -0.0893
  109MOL    H9726233   7.643   0.388   6.860  0.5174  1.3488  1.7256
  109MOL    C9826234   7.605   0.729   6.890  0.0638  0.4247  0.0357
  109MOL    C9926235   7.698   0.853   6.866 -0.0825  0.0654 -0.1621
  109MOL   C10026236   0.098   0.898   6.975  0.1702  0.6976 -0.1391
  109MOL   C10126237   0.222   0.813   6.970 -0.0439  0.2367  0.1878
  109MOL   H10226238   7.655   0.669   6.966 -0.6140  1.5201  1.3827
  109MOL   H10326239   7.509   0.746   6.938 -1.3993 -1.3699 -2.1741
  109MOL   H10426240   0.051   0.847   6.774  0.0940  2.1333 -0.2263
  109MOL   H10526241   0.051   0.888   7.073 -0.7400  0.4120 -0.6021
  109MOL   H10626242   0.131   1.001   6.963 -0.7602  0.8331 -1.5678
  109MOL   H10726243   0.258   0.826   6.868  3.1222 -1.1247  1.0800
  109MOL   H10826244   0.302   0.838   7.039 -0.2819 -1.9162  1.3024
  109MOL   H10926245   0.195   0.708   6.984  0.3943 -0.2960 -2.5848
  109MOL   C11026246   7.616   0.977   6.813  0.3542  0.1255 -0.4483
  109MOL   C11126247   7.499   1.028   6.904 -0.4409 -0.9068  0.0033
  109MOL   C11226248   7.385   1.070   6.817  0.7030 -0.0726  0.4989
  109MOL   C11326249   7.318   0.956   6.743  0.1486 -0.3443  0.3804
  109MOL   H11426250   7.579   0.952   6.714 -1.2227 -0.4029  0.2580
  109MOL   H11526251   7.689   1.055   6.791  0.4915 -0.1777 -1.0536
  109MOL   H11626252   7.484   0.945   6.972 -1.1318 -0.1502  0.7830
  109MOL   H11726253   7.423   1.146   6.749  0.7349  1.6469  2.3874
  109MOL   H11826254   7.307   1.116   6.877  0.9850  2.7081 -1.2005
  109MOL   H11926255   7.300   0.879   6.818  0.3197  0.8603  1.6761
  109MOL   H12026256   7.220   0.983   6.704  0.8433 -0.8950 -1.7841
  109MOL   H12126257   7.370   0.914   6.658 -2.0744 -1.2877 -0.5634
  109MOL   C12226258   7.543   1.149   6.986 -0.7031 -0.8113 -0.1021
  109MOL   C12326259   7.456   1.171   7.114 -0.0428 -0.0769  0.1798
  109MOL   C12426260   7.377   1.301   7.107  0.4249 -0.3203  0.1660
  109MOL   C12526261   7.281   1.340   7.223  0.1920  0.3726 -0.5418
  109MOL   H12626262   7.552   1.236   6.921 -1.1504 -1.4256 -1.0039
  109MOL   H12726263   7.645   1.133   7.020 -1.3918 -3.6897  0.8213
  109MOL   H12826264   7.386   1.087   7.119 -1.7385  1.3761  1.4157
  109MOL   H12926265   7.314   1.307   7.018  2.8717  1.2419 -1.5498
  109MOL   H13026266   7.447   1.384   7.092  2.0411 -1.6035  0.3877
  109MOL   H13126267   7.339   1.361   7.313  0.9640  0.5529 -1.0754
  109MOL   H13226268   7.225   1.432   7.207  0.5734  1.1179  2.2180
  109MOL   H13326269   7.217   1.252   7.224 -0.1105  0.5992 -0.1108
  109MOL   C13426270   7.533   1.171   7.253  0.0094 -0.0338 -0.4965
  109MOL   C13526271   7.600   1.034   7.283 -0.5201 -0.6854  0.2584
  109MOL   C13626272   7.517   0.903   7.288  0.0149 -0.0464  0.0820
  109MOL   C13726273   7.391   0.904   7.374  0.2660  0.8519  0.6981
  109MOL   H13826274   7.473   1.196   7.341  2.1019 -0.4217  1.0898
  109MOL   H13926275   7.610   1.248   7.246 -1.2461  1.1638 -1.6015
  109MOL   H14026276   7.672   1.024   7.202 -0.0803 -0.0878  0.5666
  109MOL   H14126277   7.581   0.821   7.316  0.7494  0.8001  0.9065
  109MOL   H14226278   7.496   0.879   7.183  1.9508 -1.9141  0.1098
  109MOL   H14326279   7.415   0.919   7.479 -0.0618  0.2935  0.8564
  109MOL   H14426280   7.320   0.977   7.334  1.4580  0.7014 -1.8024
  109MOL   H14526281   7.327   0.816   7.363  3.5323 -1.5829  0.5660
  109MOL   C14626282   7.694   1.049   7.408  0.6370 -0.7184  0.0424
  109MOL   C14726283   0.121   1.129   7.401  0.1105  0.2353  0.3071
  109MOL   C14826284   0.215   1.082   7.287  0.2933 -0.2681  0.1607
  109MOL   C14926285   0.235   1.175   7.171  0.4651 -0.5922 -0.1909
  109MOL   H15026286   0.010   0.949   7.443  1.7648 -0.1359  1.0213
  109MOL   H15126287   7.623   1.084   7.483  0.4486 -0.3173 -0.3171
  109MOL   H15226288   0.095   1.234   7.388  2.2565  0.5238 -1.9664
  109MOL   H15326289   0.195   0.985   7.243 -0.0600  0.3785 -1.1267
  109MOL   H15426290   0.313   1.042   7.316  0.7056  1.7780  1.7304
  109MOL   H15526291   0.142   1.204   7.121 -0.2734  1.5221  2.3245
  109MOL   H15626292   0.286   1.264   7.207  0.5666  0.5459 -3.0546
  109MOL   H15726293   0.310   1.145   7.098 -0.5118 -1.5430 -0.8263
  109MOL   C15826294   0.198   1.121   7.534  0.8274 -0.0231 -0.0485
  109MOL   C15926295   0.310   1.225   7.557  0.0123 -0.2770 -0.4513
  109MOL   C16026296   0.424   1.168   7.646  0.1679  0.3284  0.1293
  109MOL   C16126297   0.380   1.124   0.078  0.3843  0.2385  0.1190
  109MOL   H16226298   0.254   1.030   7.553  2.4343  0.9696  0.0847
  109MOL   H16326299   0.125   1.127   7.615 -0.9153  0.2840 -1.6360
  109MOL   H16426300   0.355   1.227   7.457  1.0110  0.5676  0.0052
  109MOL   H16526301   0.514   1.229   7.647 -0.3784  1.1286  1.3606
  109MOL   H16626302   0.453   1.075   7.596  2.0013  0.1585  1.4658
  109MOL   H16726303   0.466   1.081   0.130 -0.3926 -0.2495  1.0077
  109MOL   H16826304   0.341   1.204   0.140  1.2296 -0.0720  1.0615
  109MOL   H16926305   0.299   1.052   0.082 -0.2007  0.9207  0.8226
  109MOL   C17026306   0.267   1.368   7.586  0.8301  0.5702  0.2564
  109MOL   C17126307   0.374   1.475   7.593 -0.4661  0.7987  0.5595
  109MOL   C17226308   0.430   1.488   0.034  0.0447 -0.3674  0.8092
  109MOL   C17326309   0.353   1.596   0.111  0.2442  0.5623  0.3145
  109MOL   H17426310   0.213   1.369   7.680  2.3396  0.3853  1.1490
  109MOL   H17526311   0.201   1.395   7.504  0.2718 -2.3532 -0.3036
  109MOL   H17626312   0.456   1.438   7.531 -0.6081  1.7707 -0.2148
  109MOL   H17726313   0.534   1.518   0.022 -0.6892  2.6115  1.5019
  109MOL   H17826314   0.430   1.392   0.086 -1.0345 -0.2510  1.0355
  109MOL   H17926315   0.249   1.565   0.117  0.2961  0.3474  0.1026
  109MOL   H18026316   0.399   1.618   0.207  0.6862 -0.8718  0.4537
  109MOL   H18126317   0.343   1.686   0.050 -1.0839  2.2302  2.9142
  109MOL   C18226318   0.332   1.604   7.519 -0.8391  0.2142 -0.2605
  109MOL   C18326319   0.322   1.592   7.359 -0.2074 -0.5499  0.1406
  109MOL   C18426320   0.454   1.557   7.291  0.5715 -0.7531  0.2717
  109MOL   C18526321   0.565   1.663   7.291  0.0205  0.5330 -0.3641
  109MOL   H18626322   0.397   1.689   7.534  0.1446 -0.4048 -0.9859
  109MOL   H18726323   0.229   1.615   7.555 -1.2777 -3.5227 -0.1027
  109MOL   H18826324   0.256   1.512   7.327  1.2878 -0.9044 -2.1487
  109MOL   H18926325   0.437   1.520   7.190 -0.4530  0.6738 -0.0907
  109MOL   H19026326   0.503   1.468   7.331  1.5852 -0.4401 -0.2511
  109MOL   H19126327   0.532   1.724   7.207  0.9446 -0.6276 -1.6119
  109MOL   H19226328   0.565   1.721   7.383 -1.4857 -1.8391  1.1770
  109MOL   H19326329   0.668   1.627   7.290 -0.7198 -1.6963 -2.4499
  109MOL   C19426330   0.259   1.716   7.287  0.8534  0.2855  0.2038
  109MOL   C19526331   0.114   1.769   7.328  0.0223  0.1835  0.1361
  109MOL   C19626332   7.703   1.684   7.288 -0.8020 -0.3952  0.6498
  109MOL   C19726333   7.667   1.559   7.369 -0.2784 -0.7506  0.1922
  109MOL   H19826334   0.261   1.704   7.179 -1.9244  1.8931 -0.0704
  109MOL   H19926335   0.329   1.796   7.309  2.1391 -0.2164 -1.8805
  109MOL   H20026336   0.109   1.781   7.436  0.8344 -3.6595  0.6758
  109MOL   H20126337   7.705   1.661   7.182  1.8354 -1.9137  0.9645
  109MOL   H20226338   7.623   1.754   7.310  0.4184  1.5170 -0.8068
  109MOL   H20326339   0.017   1.470   7.339 -0.9295 -0.6552 -1.3487
  109MOL   H20426340   7.661   1.585   7.475  0.0218  0.2083 -0.0195
  109MOL   H20526341   7.562   1.539   7.352  0.0400 -1.3323 -1.1643
  109MOL   C20626342   0.103   1.911   7.262 -0.3487  0.3528  0.3710
  109MOL   C20726343   0.012   2.007   7.339 -1.0546  0.4811 -0.1742
  109MOL   C20826344   7.630   2.096   7.244 -0.1432  0.4476  0.0862
  109MOL   C20926345   0.003   2.198   7.156  0.7415  1.1463 -0.4123
  109MOL   H21026346   0.055   1.905   7.164  2.6366 -0.2094 -1.1007
  109MOL   H21126347   0.201   1.956   7.247  0.7440 -2.5472 -1.6996
  109MOL   H21226348   7.651   1.939   7.391  1.5231 -2.7654 -0.8906
  109MOL   H21326349   7.561   2.155   7.305 -0.3701 -0.2933  0.5549
  109MOL   H21426350   7.577   2.022   7.184 -0.4185  0.9999 -0.3581
  109MOL   H21526351   7.634   2.261   7.109  0.7629  2.7010  1.5718
  109MOL   H21626352   0.068   2.267   7.210 -0.9040  1.2241  1.5087
  109MOL   H21726353   0.074   2.147   7.090 -0.7292  0.5206 -1.5278
  109MOL   C21826354   0.093   2.094   7.434 -0.4732 -0.3294  0.1903
  109MOL   C21926355   0.149   2.036   7.562 -0.0398  0.5469  0.0513
  109MOL   C22026356   0.043   1.973   7.658 -0.2354 -0.7443  0.3147
  109MOL   C22126357   7.667   2.076   0.029  0.2676 -0.0606  0.2895
  109MOL   H22226358   0.032   2.179   7.463  0.5522  0.6012 -0.3370
  109MOL   H22326359   0.174   2.138   7.376  0.1856 -0.1548  1.2244
  109MOL   H22426360   0.222   1.963   7.526  0.2655  1.1485 -0.5692
  109MOL   H22526361   0.096   1.902   0.016  0.6435 -1.4325 -1.1399
  109MOL   H22626362   7.688   1.917   7.587 -2.4271  0.9832  0.7681
  109MOL   H22726363   0.023   2.146   0.084  2.3168 -1.6572  0.0798
  109MOL   H22826364   7.599   2.137   7.675  1.0998 -0.1831 -0.7990
  109MOL   H22926365   7.604   2.024   0.100 -0.1080  0.3724  0.2743
  109MOL   C23026366   0.243   2.138   7.628  0.5766  0.2389  0.3839
  109MOL   C23126367   0.324   2.083   0.043 -0.1127  0.5154  0.2824
  109MOL   C23226368   0.429   1.985   0.011  0.0592 -0.0916  0.2084
  109MOL   C23326369   0.526   1.952   0.132  0.5543 -0.1088  0.5754
  109MOL   H23426370   0.192   2.232   7.651 -0.3890 -0.4051  0.9468
  109MOL   H23526371   0.324   2.152   7.557  0.7557  0.2164  0.5833
  109MOL   H23626372   0.380   2.164   0.091  0.1409  2.1998 -2.7351
  109MOL   H23726373   0.494   2.019   7.636  0.8296  0.2387  0.9497
  109MOL   H23826374   0.372   1.895   7.693 -1.2937  0.8648 -0.2438
  109MOL   H23926375   0.482   1.884   0.205  0.4687 -0.2631  0.3815
  109MOL   H24026376   0.615   1.901   0.094  0.3989  0.5039 -0.6441
  109MOL   H24126377   0.564   2.030   0.198  1.1419 -0.2998  0.4658
  109MOL   H24226378   0.256   2.044   0.119  0.1355 -1.6076 -0.5777
  110MOL     C126379   1.393   2.596   3.307  1.1664 -0.0301 -0.0518
  110MOL     C226380   1.431   2.459   3.367 -0.1939 -0.2783  0.3231
  110MOL     C326381   1.307   2.370   3.383  0.8832  0.2949 -0.2189
  110MOL     C426382   1.342   2.219   3.376 -0.3428 -0.3586 -0.1730
  110MOL     H526383   1.477   2.658   3.276  1.3731  0.4490  1.4047
  110MOL     H626384   1.340   2.588   3.213  1.0800  1.2899 -0.1300
  110MOL     H726385   1.497   2.400   3.303 -0.1113 -0.9667  1.0380
  110MOL     H826386   1.231   2.393   3.309  0.0980 -0.4523  0.3461
  110MOL     H926387   1.247   2.394   3.471 -0.5082  1.3010 -1.4248
  110MOL    H1026388   1.247   2.169   3.358 -1.8111  2.5603 -0.6495
  110MOL    H1126389   1.404   2.193   3.290  1.7372  2.2631  0.4686
  110MOL    H1226390   1.394   2.171   3.459 -0.0074 -1.7328 -1.1495
  110MOL    H1326391   1.333   2.662   3.370  1.5097  0.1343  0.1063
  110MOL    C1426392   1.500   2.472   3.506 -0.7928  0.3079 -0.7969
  110MOL    C1526393   1.651   2.510   3.499  0.1271  0.4661 -0.0786
  110MOL    C1626394   1.749   2.402   3.428 -0.8273 -0.0843  0.1501
  110MOL    C1726395   1.881   2.466   3.382  0.8495  1.0256 -0.4845
  110MOL    H1826396   1.489   2.381   3.565  1.4246  0.7969  0.4354
  110MOL    H1926397   1.456   2.553   3.565 -1.2145  0.3148 -1.1221
  110MOL    H2026398   1.673   2.599   3.441  0.1830 -1.2580 -2.7625
  110MOL    H2126399   1.705   2.358   3.338 -0.9375  0.4412 -0.0512
  110MOL    H2226400   1.776   2.318   3.493 -2.6883 -0.5623  0.3218
  110MOL    H2326401   1.926   2.400   3.308  5.3847  1.3247  1.7985
  110MOL    H2426402   1.875   2.554   3.319  2.0103 -0.1488 -2.2668
  110MOL    H2526403   1.957   2.484   3.459  0.9102 -1.0106 -0.0282
  110MOL    C2626404   1.699   2.516   3.647 -0.8716  0.2925 -0.1494
  110MOL    C2726405   1.679   2.658   3.717  0.2875 -0.5184  0.5906
  110MOL    C2826406   1.800   2.742   3.680 -0.3967  0.1219 -0.1654
  110MOL    C2926407   1.765   2.886   3.663 -0.5117 -0.2126  0.5771
  110MOL    H3026408   1.804   2.490   3.640 -0.4874  1.4916  1.0089
  110MOL    H3126409   1.656   2.437   3.709  0.4390  0.2326  0.6963
  110MOL    H3226410   1.585   2.691   3.673  1.9736 -0.6672 -3.3826
  110MOL    H3326411   1.831   2.697   3.586 -0.0811 -2.6944  1.2562
  110MOL    H3426412   1.882   2.722   3.748 -0.6405  0.6110  0.2803
  110MOL    H3526413   1.853   2.949   3.648 -0.3399 -0.9391 -1.6584
  110MOL    H3626414   1.713   2.902   3.568  0.1258 -2.0916 -0.1167
  110MOL    H3726415   1.702   2.925   3.742 -0.2178 -0.7549  1.0817
  110MOL    C3826416   1.671   2.647   3.868  0.5667 -0.3910 -1.0873
  110MOL    C3926417   1.531   2.652   3.937 -0.2795  0.5992 -0.6497
  110MOL    C4026418   1.549   2.631   4.097 -0.3432  0.7455  0.0676
  110MOL    C4126419   1.573   2.757   4.177  0.6133  0.4510  0.3382
  110MOL    H4226420   1.735   2.724   3.912  0.1679 -1.6928  1.9218
  110MOL    H4326421   1.714   2.550   3.895 -0.3639 -0.9245 -1.5115
  110MOL    H4426422   1.486   2.749   3.918  1.6273  1.3695 -1.3107
  110MOL    H4526423   1.632   2.562   4.114 -0.5200  0.8804  1.4881
  110MOL    H4626424   1.466   2.570   4.134 -1.4626  0.7899 -2.2348
  110MOL    H4726425   1.478   2.799   4.213  0.2188 -2.4823  2.9705
  110MOL    H4826426   1.621   2.720   4.268  0.8075 -0.4731 -0.1379
  110MOL    H4926427   1.634   2.827   4.121  0.2406  1.7284  1.4921
  110MOL    C5026428   1.427   2.547   3.880  0.1799  1.0291 -0.4923
  110MOL    C5126429   1.282   2.597   3.871  1.3669  0.1737 -0.0590
  110MOL    C5226430   1.191   2.476   3.826 -0.2517 -0.1506 -0.6957
  110MOL    C5326431   1.048   2.520   3.786  0.7622 -0.0496 -0.3938
  110MOL    H5426432   1.428   2.461   3.948 -1.1457  1.9606  0.7266
  110MOL    H5526433   1.460   2.494   3.790  2.2447 -1.4239  1.6174
  110MOL    H5626434   1.251   2.619   3.973 -0.3830 -1.5181 -0.2097
  110MOL    H5726435   1.188   2.405   3.909  2.4163 -2.1000 -2.1968
  110MOL    H5826436   1.246   2.413   3.756  0.1078 -1.9936  1.1851
  110MOL    H5926437   1.018   2.605   3.848  0.8435 -1.0689  1.0439
  110MOL    H6026438   1.047   2.556   3.683  0.3008  0.9263 -0.0567
  110MOL    H6126439   0.972   2.444   3.773  0.2341  0.4648 -0.3556
  110MOL    C6226440   1.269   2.718   3.768  0.6947 -0.0561  0.4475
  110MOL    C6326441   1.184   2.845   3.812  0.4924  1.1435 -0.1609
  110MOL    C6426442   1.143   2.932   3.692  0.0021 -0.0551  0.5801
  110MOL    C6526443   1.019   2.889   3.607 -0.4993 -0.0521  0.3643
  110MOL    H6626444   1.245   2.670   3.673  1.7894 -2.6960  1.4521
  110MOL    H6726445   1.373   2.744   3.747  0.8054  0.5691  1.7424
  110MOL    H6826446   1.097   2.806   3.865  1.8019 -1.2093  0.3551
  110MOL    H6926447   1.226   2.945   3.623 -1.7324 -0.1993 -1.5938
  110MOL    H7026448   1.100   3.028   3.718 -0.2974  0.4406 -1.6314
  110MOL    H7126449   0.935   2.902   3.675 -0.5550  0.9402  0.1076
  110MOL    H7226450   1.011   2.939   3.511  2.7957 -1.5448 -0.7782
  110MOL    H7326451   1.018   2.783   3.582 -0.2327  0.2534 -0.9689
  110MOL    C7426452   1.270   2.921   3.908 -0.0049 -0.5850  0.3929
  110MOL    C7526453   1.192   3.034   3.985 -0.1019  0.9180  0.4332
  110MOL    C7626454   1.249   3.170   3.941 -0.2088  0.1741  0.3401
  110MOL    C7726455   1.386   3.203   3.989 -1.0679  0.0460  0.4258
  110MOL    H7826456   1.352   2.960   3.848 -0.2874  1.0845  1.0588
  110MOL    H7926457   1.313   2.856   3.985  1.9934 -0.8064 -0.8754
  110MOL    H8026458   1.086   3.037   3.959 -0.4971  2.5920  2.1658
  110MOL    H8126459   1.186   3.253   3.976 -2.6305 -0.4808 -2.2745
  110MOL    H8226460   1.252   3.178   3.832 -0.7362  1.8992  0.4240
  110MOL    H8326461   1.385   3.218   4.097  2.9620 -0.0681  0.5612
  110MOL    H8426462   1.450   3.121   3.956 -1.0405  0.9036 -1.7091
  110MOL    H8526463   1.428   3.296   3.951 -1.1092 -0.2905 -0.4566
  110MOL    C8626464   1.196   3.022   4.136  0.0043  0.2551 -0.0658
  110MOL    C8726465   1.066   2.972   4.208  0.0439  0.0230  0.3590
  110MOL    C8826466   1.030   2.832   4.160  0.4678 -0.4990  0.1450
  110MOL    C8926467   0.930   2.754   4.250  0.5442  0.0139  0.0400
  110MOL    H9026468   1.205   3.116   4.189 -1.1692 -0.9674  2.3828
  110MOL    H9126469   1.284   2.965   4.166 -0.3855  0.8020  2.1947
  110MOL    H9226470   1.097   2.965   4.312  3.0090  2.1035 -0.3127
  110MOL    H9326471   1.128   2.784   4.152 -0.1049 -2.2206  2.8292
  110MOL    H9426472   0.994   2.839   4.058 -1.5579 -0.8975  0.8040
  110MOL    H9526473   0.900   2.657   4.210 -1.4623  0.8455 -0.5591
  110MOL    H9626474   0.978   2.742   4.347  0.0355 -1.6005  0.1058
  110MOL    H9726475   0.841   2.807   4.282  0.4556  1.4728 -2.4878
  110MOL    C9826476   0.952   3.080   4.210 -0.2816  0.1736  0.1663
  110MOL    C9926477   0.967   3.187   4.322 -0.5933  0.8081 -0.5673
  110MOL   C10026478   0.887   3.135   4.449 -1.5389  0.1662 -0.0079
  110MOL   C10126479   0.928   3.229   4.572  0.0374 -0.0707 -0.3035
  110MOL   H10226480   0.860   3.023   4.216 -1.0090  0.9934 -2.3376
  110MOL   H10326481   0.961   3.124   4.110 -1.8797  1.6371  0.6504
  110MOL   H10426482   1.071   3.215   4.335 -0.6131  2.0520 -2.8569
  110MOL   H10526483   0.927   3.037   4.476 -0.5546  0.2597 -1.0995
  110MOL   H10626484   0.779   3.138   4.432 -1.4245  0.0683 -0.7351
  110MOL   H10726485   0.884   3.329   4.567 -1.4165 -0.6552  0.6421
  110MOL   H10826486   0.894   3.188   4.667  0.9112  0.3368  0.1940
  110MOL   H10926487   1.037   3.238   4.578  0.0401 -0.7909  0.7075
  110MOL   C11026488   0.897   3.317   4.280  0.4803  0.4043 -0.6310
  110MOL   C11126489   0.981   3.406   4.185 -0.4551  0.2951  0.2715
  110MOL   C11226490   1.087   3.490   4.257 -0.3250  0.0824 -0.2399
  110MOL   C11326491   1.200   3.526   4.161  0.0852 -0.2978  0.4553
  110MOL   H11426492   0.862   3.383   4.359 -0.2037  0.8702 -1.3136
  110MOL   H11526493   0.815   3.286   4.215  0.9365 -0.2630 -0.9051
  110MOL   H11626494   1.029   3.337   4.117  0.6979  0.6862  0.6770
  110MOL   H11726495   1.142   3.426   4.326  1.2353 -1.1905 -2.5650
  110MOL   H11826496   1.048   3.579   4.307  1.5538 -0.2886  1.9377
  110MOL   H11926497   1.170   3.616   4.108 -2.3918 -0.3902  1.6071
  110MOL   H12026498   1.285   3.554   4.223  0.3601 -0.5222  0.1799
  110MOL   H12126499   1.231   3.450   4.089 -1.2594  0.8624 -1.4067
  110MOL   C12226500   0.899   3.508   4.097 -1.0114  0.1790 -0.3878
  110MOL   C12326501   0.796   3.467   3.987  0.3374 -0.1244 -0.7996
  110MOL   C12426502   0.847   3.367   3.875 -0.0041  0.3835  0.1151
  110MOL   C12526503   0.971   3.415   3.785  0.8926  0.5006 -0.3598
  110MOL   H12626504   0.975   3.566   4.044 -3.3424  2.3244 -1.5099
  110MOL   H12726505   0.848   3.579   4.162  0.6164  0.6148  0.4388
  110MOL   H12826506   0.715   3.412   4.036  0.4838  0.0925 -0.3162
  110MOL   H12926507   0.762   3.370   3.807  0.8963  0.6755 -1.0031
  110MOL   H13026508   0.856   3.266   3.916 -1.4923 -0.2233 -1.0318
  110MOL   H13126509   1.044   3.455   3.855 -2.0671  0.1954  3.0674
  110MOL   H13226510   1.014   3.340   3.719  2.2050  0.9318  0.0063
  110MOL   H13326511   0.926   3.482   3.711 -1.1821 -0.0306  0.3869
  110MOL   C13426512   0.745   3.604   3.942 -0.2522 -0.2857  0.1648
  110MOL   C13526513   0.644   3.600   3.822 -0.0262  0.5068  0.1697
  110MOL   C13626514   0.619   3.745   3.775  0.3472 -0.0194  0.6902
  110MOL   C13726515   0.551   3.832   3.875  0.1804  0.6713  0.2708
  110MOL   H13826516   0.831   3.667   3.918 -0.5180  0.2242  0.5431
  110MOL   H13926517   0.714   3.660   4.030 -1.0197  1.6553 -1.2977
  110MOL   H14026518   0.703   3.561   3.740 -1.3346 -0.9381 -0.1117
  110MOL   H14126519   0.554   3.747   3.688  0.1367 -0.3371  0.8385
  110MOL   H14226520   0.708   3.801   3.747  0.0177 -0.8701 -2.2058
  110MOL   H14326521   0.532   3.934   3.840 -0.8242  0.2043 -0.5987
  110MOL   H14426522   0.451   3.797   3.901  0.7041 -0.1742  1.1720
  110MOL   H14526523   0.619   3.841   3.960  1.6192  0.2975 -0.8263
  110MOL   C14626524   0.505   3.523   3.844 -0.2529  0.4308 -0.3995
  110MOL   C14726525   0.408   3.503   3.713  0.1934  0.2724 -0.0020
  110MOL   C14826526   0.264   3.482   3.761  0.0496  0.4209 -0.7173
  110MOL   C14926527   0.161   3.478   3.644 -0.2632  0.5379 -0.2140
  110MOL   H15026528   0.451   3.575   3.923 -1.2263 -1.2036  0.0444
  110MOL   H15126529   0.515   3.425   3.891 -1.6675 -0.4530 -1.9159
  110MOL   H15226530   0.393   3.596   3.659 -0.1388 -0.2195 -0.7556
  110MOL   H15326531   0.239   3.556   3.837 -0.9129 -0.1755 -0.4342
  110MOL   H15426532   0.265   3.390   3.820 -1.7380 -0.8341 -2.5731
  110MOL   H15526533   0.157   3.379   3.598  1.0586 -0.5927  1.9717
  110MOL   H15626534   0.061   3.500   3.684 -0.3543 -0.1739 -0.0393
  110MOL   H15726535   0.186   3.547   3.564  1.6494 -0.7078 -0.7169
  110MOL   C15826536   0.454   3.384   3.622 -0.1403  0.0157 -0.0190
  110MOL   C15926537   0.577   3.411   3.532 -0.3989 -0.0074  0.1482
  110MOL   C16026538   0.553   3.530   3.433 -0.4337 -0.3452  0.1498
  110MOL   C16126539   0.418   3.527   3.367  0.5666 -0.0450 -0.0052
  110MOL   H16226540   0.368   3.347   3.566 -0.2346 -1.2282  0.9408
  110MOL   H16326541   0.479   3.300   3.687 -1.9140 -0.7448 -0.2880
  110MOL   H16426542   0.658   3.432   3.602  1.7886  0.8027 -2.5629
  110MOL   H16526543   0.641   3.543   3.369  1.1602  1.3672  2.5916
  110MOL   H16626544   0.556   3.631   3.475  0.2624 -0.2825 -0.0412
  110MOL   H16726545   0.398   3.604   3.293 -0.5747 -0.8812 -0.5823
  110MOL   H16826546   0.403   3.434   3.313  0.9673 -0.8690  1.2630
  110MOL   H16926547   0.342   3.531   3.445 -0.0366 -2.2961 -0.4194
  110MOL   C17026548   0.623   3.285   3.453  0.0293 -0.6485  0.0421
  110MOL   C17126549   0.764   3.287   3.385 -0.1553 -0.5587 -0.3810
  110MOL   C17226550   0.874   3.341   3.476 -0.1277 -0.1388  0.4543
  110MOL   C17326551   1.006   3.291   3.422 -0.5517  0.2426  0.6917
  110MOL   H17426552   0.553   3.249   3.377 -0.8719  1.3223 -0.0893
  110MOL   H17526553   0.609   3.199   3.518  0.5965 -0.7610  0.0100
  110MOL   H17626554   0.794   3.184   3.365  0.1015 -0.2455 -1.6551
  110MOL   H17726555   0.855   3.315   3.580 -2.5465  0.7571  0.2704
  110MOL   H17826556   0.869   3.449   3.474 -1.3763 -0.1971 -0.1142
  110MOL   H17926557   1.023   3.184   3.427  1.2135  0.4025 -1.1519
  110MOL   H18026558   1.035   3.321   3.321 -0.3161 -2.4002 -0.0585
  110MOL   H18126559   1.078   3.323   3.497  1.9065 -0.7287 -1.1823
  110MOL   C18226560   0.768   3.344   3.242  0.0050  0.1404 -0.5436
  110MOL   C18326561   0.824   3.265   3.124 -0.6005  0.2712 -0.1959
  110MOL   C18426562   0.847   3.358   3.006  0.7495 -0.5898  0.2737
  110MOL   C18526563   0.965   3.454   3.032  0.0276  0.2772 -0.4018
  110MOL   H18626564   0.816   3.441   3.257 -1.1372  0.5976  0.2701
  110MOL   H18726565   0.669   3.370   3.202  0.0154  0.9134 -0.0773
  110MOL   H18826566   0.917   3.223   3.164  0.3400 -0.4128 -2.9571
  110MOL   H18926567   0.767   3.422   2.969  0.2078 -2.7257 -2.4634
  110MOL   H19026568   0.874   3.305   2.915  2.1524  1.3163 -0.4356
  110MOL   H19126569   1.009   3.510   2.949  1.4323 -1.2953 -0.7385
  110MOL   H19226570   0.934   3.529   3.105  2.4601 -0.0960  1.0484
  110MOL   H19326571   1.049   3.409   3.084  0.2524 -1.3249 -2.1095
  110MOL   C19426572   0.736   3.143   3.073 -0.1814  0.1285 -0.1730
  110MOL   C19526573   0.809   3.033   3.000  0.0734  0.4955  0.6522
  110MOL   C19626574   0.714   2.957   2.908 -0.2022 -0.1877 -0.3335
  110MOL   C19726575   0.787   2.862   2.812 -0.0557  0.4286 -0.4581
  110MOL   H19826576   0.661   3.183   3.005 -0.4503  0.1107  0.1123
  110MOL   H19926577   0.686   3.094   3.157 -0.3377  0.2344 -0.2039
  110MOL   H20026578   0.884   3.073   2.932  0.1560  0.3407  0.6507
  110MOL   H20126579   0.664   3.037   2.853 -0.4251 -0.7807 -1.0077
  110MOL   H20226580   0.634   2.902   2.957 -0.8624  0.1101 -1.0623
  110MOL   H20326581   0.843   2.920   2.739  0.9250  0.3624  0.2271
  110MOL   H20426582   0.858   2.791   2.854 -0.5718 -0.3350 -0.8757
  110MOL   H20526583   0.712   2.804   2.759 -1.5413  1.3002  0.6265
  110MOL   C20626584   0.875   2.936   3.101 -0.3033 -0.1625 -0.2941
  110MOL   C20726585   1.023   2.899   3.074 -0.6617  0.6443 -0.1040
  110MOL   C20826586   1.055   2.751   3.120 -0.5175 -0.2678 -0.2494
  110MOL   C20926587   1.066   2.728   3.268  0.0773 -0.5026  0.1218
  110MOL   H21026588   0.831   2.836   3.107  0.6928 -0.8184 -2.9842
  110MOL   H21126589   0.868   2.966   3.205 -0.6879  1.1413 -0.6892
  110MOL   H21226590   1.039   2.900   2.966 -0.7205  0.8090 -0.1102
  110MOL   H21326591   1.155   2.723   3.085  0.3864  2.1113  0.3589
  110MOL   H21426592   0.993   2.677   3.070  0.3587 -0.5202 -0.9890
  110MOL   H21526593   1.139   2.785   3.326 -1.6513  1.4014  0.4775
  110MOL   H21626594   0.966   2.727   3.312 -0.2827 -0.4551 -0.7013
  110MOL   H21726595   1.092   2.622   3.263 -0.0079 -0.5217  0.0850
  110MOL   C21826596   1.103   3.007   3.145 -0.3574 -0.0023 -0.1571
  110MOL   C21926597   1.252   2.993   3.117 -0.5209  0.0016  0.3098
  110MOL   C22026598   1.319   3.085   3.220  0.2457  0.0773 -0.2843
  110MOL   C22126599   1.468   3.081   3.220  0.0056 -0.2145  0.6498
  110MOL   H22226600   1.074   2.987   3.248 -0.1953 -0.4692 -0.2020
  110MOL   H22326601   1.073   3.110   3.126  2.2317  0.7230 -0.4944
  110MOL   H22426602   1.297   2.900   3.151 -1.6030 -0.7282 -0.2494
  110MOL   H22526603   1.276   3.056   3.316 -1.3836  1.4295 -0.5833
  110MOL   H22626604   1.276   3.185   3.210 -1.6424 -0.5011  1.6243
  110MOL   H22726605   1.503   3.154   3.293 -0.2209 -1.0148  1.5699
  110MOL   H22826606   1.495   2.980   3.251 -0.6981 -0.9107 -0.9618
  110MOL   H22926607   1.518   3.110   3.128 -0.6972 -1.2992 -0.0886
  110MOL   C23026608   1.293   3.014   2.969 -0.0763  0.4916 -0.4761
  110MOL   C23126609   1.279   3.157   2.915 -0.7511  0.5887  0.8154
  110MOL   C23226610   1.193   3.162   2.783  0.3532 -0.3139 -0.5883
  110MOL   C23326611   1.146   3.304   2.749 -0.3864  0.6216 -0.1256
  110MOL   H23426612   1.252   2.940   2.901  1.0614  0.3936 -1.0737
  110MOL   H23526613   1.399   2.988   2.958 -0.9285 -4.2531  1.5614
  110MOL   H23626614   1.237   3.228   2.986 -0.0570  1.1040  0.7028
  110MOL   H23726615   1.101   3.105   2.786  0.8184 -1.0757 -0.5041
  110MOL   H23826616   1.251   3.123   2.700 -2.5824  0.4608 -3.0664
  110MOL   H23926617   1.234   3.367   2.734  0.1147 -0.1840 -0.6466
  110MOL   H24026618   1.099   3.313   2.651  0.4859 -2.3251 -0.8749
  110MOL   H24126619   1.080   3.343   2.826  0.8783 -0.2924  1.4618
  110MOL   H24226620   1.382   3.182   2.892 -0.2595  0.3149  2.6322
  111MOL     C126621   1.184   1.698   6.416 -0.0914  1.0315  0.2678
  111MOL     C226622   1.280   1.686   6.282  1.1997  0.6157  0.1178
  111MOL     C326623   1.187   1.655   6.155  0.0833  0.1898  0.8171
  111MOL     C426624   1.099   1.779   6.106  0.1245 -0.4145  0.3032
  111MOL     H526625   1.092   1.750   6.390 -0.3429  0.1495 -0.5917
  111MOL     H626626   1.167   1.595   6.446 -0.8487 -0.2592 -4.1743
  111MOL     H726627   1.328   1.782   6.268  1.1768  0.5629 -0.3109
  111MOL     H826628   1.138   1.559   6.166  0.6572 -0.4669 -1.9220
  111MOL     H926629   1.249   1.636   6.067 -0.8165 -0.8836  0.4020
  111MOL    H1026630   1.021   1.804   6.178  0.8910 -0.9630  1.3547
  111MOL    H1126631   1.162   1.868   6.105 -1.5507  0.7599 -0.8955
  111MOL    H1226632   1.064   1.753   6.007 -1.3182 -2.1132  1.2271
  111MOL    H1326633   1.221   1.752   6.503 -0.6838 -0.1364  1.2563
  111MOL    C1426634   1.382   1.569   6.290  0.0953  0.2646 -1.1889
  111MOL    C1526635   1.496   1.581   6.401  0.1907  0.3130  0.2324
  111MOL    C1626636   1.558   1.721   6.404 -0.2037  0.3493 -0.2794
  111MOL    C1726637   1.627   1.759   6.271 -0.2345 -0.4658 -0.5664
  111MOL    H1826638   1.434   1.551   6.195  0.0695  1.8030 -1.5116
  111MOL    H1926639   1.331   1.478   6.320  0.3996  0.0205 -1.4089
  111MOL    H2026640   1.454   1.574   6.502 -0.5023 -0.2813 -0.0920
  111MOL    H2126641   1.640   1.738   6.474  0.4315 -1.1647 -0.6268
  111MOL    H2226642   1.485   1.796   6.435  1.5271  2.3215 -0.8070
  111MOL    H2326643   1.550   1.757   6.193 -1.3466  1.2950  0.4478
  111MOL    H2426644   1.669   1.860   6.268  1.8152 -1.2481  1.0801
  111MOL    H2526645   1.708   1.690   6.251  1.4258  1.1540  0.4737
  111MOL    C2626646   1.604   1.466   6.395 -0.3579  0.2491 -0.5135
  111MOL    C2726647   1.549   1.323   6.428 -0.1412  0.7430 -0.5591
  111MOL    C2826648   1.561   1.294   6.582 -0.1241  0.6701 -0.3699
  111MOL    C2926649   1.463   1.206   6.652 -0.3044 -0.5021  0.1608
  111MOL    H3026650   1.681   1.483   6.470 -1.0371  1.1287 -0.0093
  111MOL    H3126651   1.654   1.457   6.299  2.7265 -1.2970  1.1554
  111MOL    H3226652   1.444   1.308   6.404 -0.3964  0.4263  0.7356
  111MOL    H3326653   1.555   1.390   6.633  2.1275  0.5833  0.1154
  111MOL    H3426654   1.663   1.260   6.601  0.0387  0.1787 -2.0730
  111MOL    H3526655   1.454   1.122   6.582 -1.1677 -0.1743 -0.1266
  111MOL    H3626656   1.498   1.181   6.752 -1.7250 -0.7017  0.6152
  111MOL    H3726657   1.366   1.255   6.663  0.3574  1.1628 -1.2115
  111MOL    C3826658   1.622   1.213   6.349 -0.2153 -0.5510  0.5134
  111MOL    C3926659   1.594   1.205   6.197  0.2789  0.0501 -0.6792
  111MOL    C4026660   1.452   1.161   6.169  1.3202  0.4883 -0.2400
  111MOL    C4126661   1.401   1.025   6.229 -0.3463  0.2003 -0.1998
  111MOL    H4226662   1.606   1.116   6.396 -3.0886  0.3126  1.4364
  111MOL    H4326663   1.725   1.244   6.367 -0.4947  0.3061  0.6434
  111MOL    H4426664   1.600   1.306   6.157  0.7333 -0.8796 -3.0332
  111MOL    H4526665   1.434   1.159   6.061 -0.5288  1.2159  0.0375
  111MOL    H4626666   1.394   1.247   6.202 -0.2762 -0.5149 -0.3874
  111MOL    H4726667   1.314   0.989   6.174 -0.0545  0.5505 -0.9036
  111MOL    H4826668   1.475   0.945   6.229 -1.9198 -1.2917 -1.8015
  111MOL    H4926669   1.375   1.042   6.333  0.4356 -0.9067  0.1815
  111MOL    C5026670   1.695   1.117   6.125 -0.5359  0.5619  0.3006
  111MOL    C5126671   1.687   1.114   5.973 -0.6087 -0.6597 -0.1745
  111MOL    C5226672   1.778   0.990   5.936  0.2131 -0.0830  0.4893
  111MOL    C5326673   1.710   0.854   5.945 -0.0720 -0.0540 -0.0826
  111MOL    H5426674   1.694   1.015   6.164  1.0587  0.7787  0.9648
  111MOL    H5526675   1.792   1.142   6.170 -0.1426 -0.4722  0.0646
  111MOL    H5626676   1.586   1.104   5.934 -0.7281 -0.7665  0.1589
  111MOL    H5726677   1.870   0.988   5.994  1.5484  1.3094 -1.4858
  111MOL    H5826678   1.812   1.001   5.833  0.2938 -1.3169  0.3726
  111MOL    H5926679   1.781   0.780   5.907  0.4827  0.1874  0.4701
  111MOL    H6026680   1.697   0.827   6.050  0.7134 -1.8110 -0.4179
  111MOL    H6126681   1.610   0.853   5.901  1.1501 -3.7921 -3.0953
  111MOL    C6226682   1.750   1.245   5.917  0.0663  0.0922  0.0669
  111MOL    C6326683   1.676   1.303   5.786 -0.4252  0.2102 -0.8511
  111MOL    C6426684   1.689   1.210   5.669  0.4569  0.9209 -0.5938
  111MOL    C6526685   1.575   1.219   5.563 -0.6920  0.0421 -0.0706
  111MOL    H6626686   1.858   1.242   5.902  0.0954  1.4666 -0.0456
  111MOL    H6726687   1.751   1.324   5.992  0.9703 -1.4779  1.7442
  111MOL    H6826688   1.569   1.306   5.806 -0.2875 -1.4715  0.1654
  111MOL    H6926689   1.664   1.109   5.704 -0.7539  1.2565 -0.4863
  111MOL    H7026690   1.789   1.203   5.626  0.0616 -0.5054 -1.3038
  111MOL    H7126691   1.569   1.321   5.524  3.9325  0.7957  0.9131
  111MOL    H7226692   1.603   1.151   5.482  0.8367 -0.2626  0.6973
  111MOL    H7326693   1.476   1.190   5.599  0.1730  0.0888  2.4205
  111MOL    C7426694   1.707   1.450   5.751 -0.4315 -0.0145  0.3300
  111MOL    C7526695   1.687   1.560   5.859  0.0877 -0.1790  0.3490
  111MOL    C7626696   1.537   1.570   5.901 -0.3654  0.1650  1.2268
  111MOL    C7726697   1.441   1.602   5.785 -0.1561 -0.1941  0.0251
  111MOL    H7826698   1.652   1.487   5.664 -0.4309 -0.6606  0.0568
  111MOL    H7926699   1.806   1.452   5.705 -1.2039 -1.7321 -1.5060
  111MOL    H8026700   1.741   1.540   5.952  0.1746 -0.1904  0.2952
  111MOL    H8126701   1.536   1.641   5.983 -3.5393  0.6965  0.8150
  111MOL    H8226702   1.505   1.481   5.956 -1.7454  1.8649  3.2669
  111MOL    H8326703   1.343   1.623   5.828 -1.6981 -1.4079 -2.7513
  111MOL    H8426704   1.471   1.695   5.736  1.2859 -0.8064 -0.2861
  111MOL    H8526705   1.431   1.517   5.718  0.5865  0.7500 -1.2992
  111MOL    C8626706   1.723   1.700   5.809 -0.1367  0.0183  0.1297
  111MOL    C8726707   1.871   1.747   5.829  0.3727  0.6315  0.1883
  111MOL    C8826708   1.891   1.811   5.968 -0.1279  0.1096 -0.9194
  111MOL    C8926709   1.993   1.742   6.060  0.3412 -0.0553 -0.8390
  111MOL    H9026710   1.658   1.772   5.858  2.0211  2.0270  0.1442
  111MOL    H9126711   1.691   1.711   5.705  0.6069  0.9401 -0.0005
  111MOL    H9226712   1.927   1.654   5.834  0.2885  0.6746  2.4392
  111MOL    H9326713   1.792   1.805   6.013  0.5109 -2.8553  0.2210
  111MOL    H9426714   1.920   1.915   5.957  0.8252 -0.0441  0.0802
  111MOL    H9526715   2.092   1.756   6.017  1.2140  1.0830  1.4279
  111MOL    H9626716   1.986   1.777   6.163  1.8546 -2.9326  0.3099
  111MOL    H9726717   1.972   1.635   6.066  1.8137 -0.3226 -0.0996
  111MOL    C9826718   1.914   1.826   5.706  0.3581  0.2441 -0.3615
  111MOL    C9926719   2.063   1.858   5.694 -0.1896  0.3229 -0.1647
  111MOL   C10026720   2.083   1.996   5.629  0.6849  0.0940  0.1768
  111MOL   C10126721   2.043   2.117   5.722 -0.0718  0.4201  0.0719
  111MOL   H10226722   1.846   1.911   5.702  0.6555  0.5762  1.2466
  111MOL   H10326723   1.886   1.764   5.621 -0.4305  1.5360 -1.0720
  111MOL   H10426724   2.110   1.859   5.793  0.6102 -0.9502 -0.5243
  111MOL   H10526725   2.040   2.003   5.529 -1.1857  1.4579  1.0344
  111MOL   H10626726   2.189   2.015   5.612  0.9691 -0.5916  1.1361
  111MOL   H10726727   2.088   2.120   5.821  3.0892 -0.4451 -1.2685
  111MOL   H10826728   2.076   2.210   5.677 -1.2879  2.5066  3.3183
  111MOL   H10926729   1.937   2.138   5.736 -0.2358 -1.4811  1.9576
  111MOL   C11026730   2.140   1.758   5.593  1.1952 -0.3076 -0.5247
  111MOL   C11126731   2.113   1.601   5.627 -0.1115  0.1350 -0.6581
  111MOL   C11226732   2.180   1.566   5.761  0.0757 -0.6182 -0.3253
  111MOL   C11326733   2.168   1.419   5.811  0.6944  0.2402 -0.0272
  111MOL   H11426734   2.249   1.765   5.593  1.2316 -0.8973 -0.8941
  111MOL   H11526735   2.096   1.772   5.495  1.0625 -2.4899 -0.8073
  111MOL   H11626736   2.008   1.573   5.635 -0.0024 -0.4590 -1.2629
  111MOL   H11726737   2.143   1.634   5.838 -0.2119  0.8821 -1.7627
  111MOL   H11826738   2.286   1.587   5.752  0.3388 -0.6017  2.3770
  111MOL   H11926739   2.158   1.428   5.919  0.1845  1.2864 -0.1565
  111MOL   H12026740   2.076   1.379   5.769 -1.8508  2.4491  3.1386
  111MOL   H12126741   2.250   1.354   5.782 -0.7417 -1.0921 -1.2006
  111MOL   C12226742   2.179   1.522   5.512 -0.6053  0.1935 -0.7325
  111MOL   C12326743   2.121   1.542   5.366 -0.4432 -0.3080 -0.3372
  111MOL   C12426744   1.965   1.535   5.354  0.7460 -0.6898  0.6652
  111MOL   C12526745   1.902   1.400   5.398  0.1853  0.1591 -0.2417
  111MOL   H12626746   2.200   1.418   5.535 -2.3678 -0.0325 -0.1171
  111MOL   H12726747   2.285   1.547   5.508  0.0653 -2.4380 -0.0172
  111MOL   H12826748   2.158   1.637   5.328 -0.6291  0.0485  0.3717
  111MOL   H12926749   1.924   1.570   5.259  0.4781  1.4706  1.5382
  111MOL   H13026750   1.919   1.616   5.411  0.3310 -1.6330  1.7030
  111MOL   H13126751   1.933   1.313   5.340 -0.7658  0.1054 -0.6751
  111MOL   H13226752   1.936   1.379   5.500  1.3136  0.5961 -0.5144
  111MOL   H13326753   1.794   1.396   5.395  0.1797 -0.5075  0.6403
  111MOL   C13426754   2.191   1.444   5.271  1.1677 -0.0501 -0.0545
  111MOL   C13526755   2.183   1.467   5.114 -0.2433 -0.4607 -0.0519
  111MOL   C13626756   2.240   1.342   5.044  0.0272 -0.0532  0.0352
  111MOL   C13726757   2.379   1.289   5.092 -0.0851 -0.2284 -0.5434
  111MOL   H13826758   2.150   1.347   5.298 -4.0815  0.7750 -4.1891
  111MOL   H13926759   2.298   1.460   5.286  0.7306  1.9969  0.9497
  111MOL   H14026760   2.079   1.475   5.081 -0.5406  0.0032  0.9893
  111MOL   H14126761   2.241   1.354   4.936  2.4353 -1.3612 -0.1182
  111MOL   H14226762   2.172   1.257   5.049  0.7665 -0.7287 -1.1102
  111MOL   H14326763   2.454   1.354   5.137 -1.1776 -1.3362  2.9959
  111MOL   H14426764   2.371   1.195   5.146 -1.3927 -0.5487 -1.2768
  111MOL   H14526765   2.429   1.264   4.998 -0.8111 -1.7564 -0.5298
  111MOL   C14626766   2.263   1.580   5.055  0.0270  0.1951  0.1752
  111MOL   C14726767   2.181   1.676   4.957  0.1620 -0.4192  0.0311
  111MOL   C14826768   2.278   1.767   4.876 -0.2025 -0.3307  0.3058
  111MOL   C14926769   2.358   1.683   4.775 -0.2577 -0.3375  0.2344
  111MOL   H15026770   2.344   1.536   4.996  0.2065 -1.7484  1.8266
  111MOL   H15126771   2.303   1.643   5.135 -2.7091  0.7108  1.1896
  111MOL   H15226772   2.133   1.612   4.883  0.8837 -0.5533 -0.3227
  111MOL   H15326773   2.355   1.808   4.940  0.5658 -1.2520 -0.0080
  111MOL   H15426774   2.227   1.843   4.817  2.2540  0.7105 -0.5143
  111MOL   H15526775   2.448   1.734   4.739  1.1414 -1.6161  1.7968
  111MOL   H15626776   2.398   1.587   4.810 -0.7829 -0.7058 -0.1737
  111MOL   H15726777   2.306   1.668   4.681  2.1432  0.0572 -1.2146
  111MOL   C15826778   2.078   1.765   5.027  0.2680 -0.4400 -0.5131
  111MOL   C15926779   1.982   1.859   4.944 -0.1165  0.2333 -0.4570
  111MOL   C16026780   1.917   1.967   5.036  0.0309  0.6252  0.6018
  111MOL   C16126781   1.814   1.932   5.150 -0.4995  0.5733  0.4071
  111MOL   H16226782   2.123   1.820   5.109 -1.2545  1.1205 -0.6862
  111MOL   H16326783   1.999   1.710   5.079  1.8728 -2.0717  0.2727
  111MOL   H16426784   2.045   1.918   4.879  0.2966 -0.7099 -0.9144
  111MOL   H16526785   1.880   2.046   4.970  0.5506 -0.9379 -1.6189
  111MOL   H16626786   2.000   2.014   5.087  0.1304 -0.8061  1.7652
  111MOL   H16726787   1.864   1.855   5.209  0.6061 -0.3761 -1.7003
  111MOL   H16826788   1.794   2.024   5.205  0.8324  2.5730 -2.3245
  111MOL   H16926789   1.718   1.896   5.113  0.6216  0.0283 -2.0857
  111MOL   C17026790   1.882   1.772   4.867 -0.6679 -0.2006  0.2536
  111MOL   C17126791   1.798   1.848   4.764 -0.3188  0.0917 -0.1832
  111MOL   C17226792   1.659   1.787   4.756  0.6798 -0.1841 -0.2926
  111MOL   C17326793   1.577   1.885   4.678 -0.6822  0.6736 -0.1888
  111MOL   H17426794   1.817   1.719   4.937 -0.3796 -0.3334  0.4191
  111MOL   H17526795   1.930   1.684   4.823  2.0752  2.1554 -1.6211
  111MOL   H17626796   1.779   1.944   4.812  1.4910 -0.2398  1.2058
  111MOL   H17726797   1.619   1.765   4.855  0.2728  0.2246 -0.3620
  111MOL   H17826798   1.659   1.698   4.692  0.8100  0.3756 -1.0876
  111MOL   H17926799   1.594   1.986   4.715 -1.1537  1.0527 -0.9957
  111MOL   H18026800   1.596   1.902   4.572  0.5595 -0.9537 -0.2446
  111MOL   H18126801   1.471   1.864   4.693 -0.4801  1.4256  2.5921
  111MOL   C18226802   1.884   1.871   4.631  0.6675  0.3121 -0.3262
  111MOL   C18326803   1.874   2.012   4.572  0.8357 -0.1734  0.0629
  111MOL   C18426804   1.917   2.009   4.424  0.0557  0.3572 -0.3614
  111MOL   C18526805   2.030   1.928   4.367  0.1970  0.5491  0.1229
  111MOL   H18626806   1.873   1.788   4.561 -1.1015 -1.2511  1.7346
  111MOL   H18726807   1.987   1.844   4.655  0.6902  1.2438  0.6434
  111MOL   H18826808   1.769   2.041   4.569  1.4824  2.1015 -2.6460
  111MOL   H18926809   1.917   2.111   4.386 -0.2951  1.1137  1.6394
  111MOL   H19026810   1.827   1.969   4.377 -0.3031  2.0369 -1.1494
  111MOL   H19126811   2.027   1.946   4.259  5.1417  0.4278 -0.1524
  111MOL   H19226812   2.132   1.950   4.400 -0.5328  0.5986  2.4530
  111MOL   H19326813   2.004   1.825   4.388 -2.3698  0.9257 -1.0462
  111MOL   C19426814   1.957   2.119   4.647  0.1407 -0.3603 -0.2127
  111MOL   C19526815   1.954   2.271   4.606 -0.5072  0.3878 -0.7490
  111MOL   C19626816   2.032   2.357   4.712 -0.0970  0.5584  0.5168
  111MOL   C19726817   1.966   2.375   4.849  0.4743 -0.1990  0.9530
  111MOL   H19826818   2.059   2.085   4.631 -0.3306 -1.4695 -0.9477
  111MOL   H19926819   1.926   2.105   4.750  1.3362  3.2052  0.6986
  111MOL   H20026820   2.007   2.276   4.510  2.8276  0.1965  0.9895
  111MOL   H20126821   2.062   2.443   4.653  1.2868 -1.5673 -2.0309
  111MOL   H20226822   2.129   2.316   4.743 -1.0129 -1.3704  0.9178
  111MOL   H20326823   1.870   2.421   4.828  0.4898 -1.2866 -1.6133
  111MOL   H20426824   1.963   2.284   4.910 -0.4465 -1.2779 -0.6519
  111MOL   H20526825   2.026   2.442   4.910 -1.1269  0.9421  1.3195
  111MOL   C20626826   1.807   2.331   4.587  0.0637  0.0412  0.1156
  111MOL   C20726827   1.797   2.479   4.520 -0.9455 -0.6512  0.1071
  111MOL   C20826828   1.653   2.539   4.530 -0.0751  0.0157 -0.0649
  111MOL   C20926829   1.539   2.456   4.465 -0.4545 -0.6434 -0.2250
  111MOL   H21026830   1.742   2.327   4.674 -0.9085 -0.0622 -0.6018
  111MOL   H21126831   1.753   2.262   4.523 -0.6606  1.2272 -0.5751
  111MOL   H21226832   1.863   2.538   4.584  1.5171 -0.9917 -2.0485
  111MOL   H21326833   1.650   2.641   4.492 -0.8097  0.1826  0.4359
  111MOL   H21426834   1.636   2.541   4.637  0.3752 -0.3363  0.0155
  111MOL   H21526835   1.540   2.353   4.499 -1.4153 -0.2503  1.0430
  111MOL   H21626836   1.440   2.500   4.479 -0.3530 -0.5837  0.2982
  111MOL   H21726837   1.555   2.441   4.358 -1.5793 -0.5315 -0.4242
  111MOL   C21826838   1.848   2.478   4.374  0.4632 -0.6478  0.6221
  111MOL   C21926839   1.999   2.534   4.354 -0.0773  0.7637  0.0664
  111MOL   C22026840   1.977   2.688   4.356 -0.0827  0.1877  0.2348
  111MOL   C22126841   2.108   2.758   4.398 -0.3164 -0.6216 -0.3407
  111MOL   H22226842   1.781   2.528   4.304  1.7002  0.3945  0.1452
  111MOL   H22326843   1.840   2.377   4.335  1.3252  0.1313 -1.6728
  111MOL   H22426844   2.055   2.505   4.443 -2.7755 -1.8117  0.9820
  111MOL   H22526845   1.894   2.718   4.419 -1.1578 -1.8780 -0.1847
  111MOL   H22626846   1.949   2.728   4.258 -2.1460  1.4890  1.3188
  111MOL   H22726847   2.182   2.739   4.320  1.9396 -0.0831  1.5956
  111MOL   H22826848   2.101   2.866   4.385  1.4600 -0.3852  0.4337
  111MOL   H22926849   2.155   2.745   4.496  0.1559  0.8854 -0.3544
  111MOL   C23026850   2.072   2.485   4.219  0.3922  0.2281  0.2555
  111MOL   C23126851   2.126   2.338   4.225  0.1895  0.0615 -0.5359
  111MOL   C23226852   2.216   2.309   4.109  0.2056 -0.0270  0.0351
  111MOL   C23326853   2.274   2.164   4.125 -0.2648  0.0264  0.1568
  111MOL   H23426854   2.149   2.558   4.195  0.9090 -0.1718  0.6668
  111MOL   H23526855   2.003   2.489   4.135 -0.4136  1.8456  0.9631
  111MOL   H23626856   2.171   2.321   4.323 -3.3118 -0.6861  1.0463
  111MOL   H23726857   2.293   2.385   4.094 -0.7882  0.8644 -0.5886
  111MOL   H23826858   2.167   2.315   4.012  0.9430  1.4585 -0.2630
  111MOL   H23926859   2.325   2.159   4.222 -1.5683 -1.3515  0.7958
  111MOL   H24026860   2.202   2.084   4.115  0.7635 -1.0793  1.3529
  111MOL   H24126861   2.355   2.154   4.054  0.3212 -2.7374  1.1758
  111MOL   H24226862   2.046   2.264   4.224  0.8860 -0.6995 -0.5229
  112MOL     C126863   4.500   0.890   4.676 -0.3275  0.1362 -0.3721
  112MOL     C226864   4.608   0.898   4.788 -0.1124 -0.1437 -0.1007
  112MOL     C326865   4.709   1.018   4.764  0.0685 -0.1382  0.2042
  112MOL     C426866   4.793   1.062   4.881 -0.2172 -0.1800 -0.0101
  112MOL     H526867   4.430   0.806   4.674  0.9257 -0.9378 -0.1021
  112MOL     H626868   4.438   0.980   4.678  0.4448  0.6527  0.3894
  112MOL     H726869   4.550   0.915   4.878  0.6290  1.8342  0.0332
  112MOL     H826870   4.639   1.101   4.755  0.2996 -0.0644 -0.9589
  112MOL     H926871   4.768   1.008   4.673 -1.1985  2.2843 -0.9318
  112MOL    H1026872   4.876   0.994   4.901  0.0800 -0.5460 -2.4267
  112MOL    H1126873   4.829   1.162   4.858 -1.6082 -0.3360 -2.9514
  112MOL    H1226874   4.738   1.078   4.974 -1.7621  1.5540 -1.1849
  112MOL    H1326875   4.554   0.899   4.582 -0.1132 -2.4748 -0.5350
  112MOL    C1426876   4.690   0.772   4.797 -0.6795  0.2296  0.2621
  112MOL    C1526877   4.607   0.659   4.856  0.5479  0.2696  0.1411
  112MOL    C1626878   4.622   0.647   5.007  0.2257  0.4657  0.2344
  112MOL    C1726879   4.567   0.771   5.090 -1.4651  0.2143 -0.2846
  112MOL    H1826880   4.778   0.788   4.860 -0.1173  0.4564 -0.5796
  112MOL    H1926881   4.749   0.744   4.710 -1.6606  3.1537 -1.4202
  112MOL    H2026882   4.499   0.666   4.840  0.6402 -0.0350 -0.5946
  112MOL    H2126883   4.727   0.631   5.033 -0.0150  1.4719  1.9405
  112MOL    H2226884   4.577   0.554   5.043 -1.8898  1.0987 -0.7444
  112MOL    H2326885   4.628   0.860   5.103 -0.2712 -0.0382 -3.6765
  112MOL    H2426886   4.468   0.804   5.060 -1.2541 -0.1041 -1.3611
  112MOL    H2526887   4.543   0.733   5.189  0.1691 -0.8156 -0.2523
  112MOL    C2626888   4.644   0.522   4.781 -0.1045 -0.0227 -0.7007
  112MOL    C2726889   4.591   0.382   4.826  0.3154  0.4044 -0.2169
  112MOL    C2826890   4.682   0.278   4.751 -0.3346  0.2314  0.4159
  112MOL    C2926891   4.658   0.256   4.594 -0.1407 -0.3766 -0.1217
  112MOL    H3026892   4.752   0.513   4.789 -0.1077  0.5846  0.1649
  112MOL    H3126893   4.620   0.536   4.676 -0.2368  0.1399 -0.6489
  112MOL    H3226894   4.615   0.378   4.932  1.0739  1.0194 -0.3597
  112MOL    H3326895   4.663   0.183   4.800 -2.6647  0.1140 -0.6482
  112MOL    H3426896   4.785   0.310   4.766 -0.2913  0.0052  0.6095
  112MOL    H3526897   4.622   0.158   4.563  0.0218 -0.1718 -0.9800
  112MOL    H3626898   4.585   0.334   4.570  0.4344 -0.1590 -1.1716
  112MOL    H3726899   4.748   0.280   4.537  0.8736 -1.1884  1.1203
  112MOL    C3826900   4.441   0.378   4.798 -0.4456  0.2562 -0.0282
  112MOL    C3926901   4.371   0.249   4.855  0.1046  1.0131 -0.1482
  112MOL    C4026902   4.269   0.192   4.754 -0.0196 -0.8949  0.2471
  112MOL    C4126903   4.335   0.124   4.634 -0.0786 -0.0624  0.5770
  112MOL    H4226904   4.429   0.393   4.691 -0.0908  0.2770 -0.0629
  112MOL    H4326905   4.401   0.470   4.842  1.0673  1.0693 -0.3501
  112MOL    H4426906   4.447   0.171   4.865 -0.9326 -0.1017 -0.9808
  112MOL    H4526907   4.201   0.269   4.718 -0.2174 -1.3897 -0.4462
  112MOL    H4626908   4.200   0.126   4.806  0.3508 -1.0749  0.5118
  112MOL    H4726909   4.397   0.038   4.661  2.1931  1.2671 -0.2770
  112MOL    H4826910   4.255   0.083   4.572 -0.3508  0.5467  0.5174
  112MOL    H4926911   4.379   0.203   4.573 -1.9688  1.0320  0.5755
  112MOL    C5026912   4.310   0.263   4.999 -0.0718 -0.8195 -0.3293
  112MOL    C5126913   4.410   0.253   5.119 -0.4680 -0.2046  0.3442
  112MOL    C5226914   4.404   0.117   5.177 -0.1486  0.2365 -0.2513
  112MOL    C5326915   4.502   0.016   5.103  0.4989 -0.3272 -0.3170
  112MOL    H5426916   4.226   0.195   5.013 -0.8874  0.5896  1.9700
  112MOL    H5526917   4.267   0.364   4.999  0.0696 -0.7565  0.2012
  112MOL    H5626918   4.512   0.275   5.087 -1.3135  0.2716 -2.1185
  112MOL    H5726919   4.302   0.079   5.179 -0.4806  1.0470 -1.3810
  112MOL    H5826920   4.430   0.113   5.283 -0.7943  0.5275 -0.0805
  112MOL    H5926921   4.603   0.052   5.125 -0.8636  2.9939  0.7069
  112MOL    H6026922   4.504   7.623   5.148  2.3118 -0.6336 -1.0022
  112MOL    H6126923   4.491   0.004   4.996 -0.7469 -1.6431 -0.0471
  112MOL    C6226924   4.374   0.367   5.227  0.3047 -0.0961  0.5496
  112MOL    C6326925   4.465   0.373   5.353 -0.1755  0.3081  1.0163
  112MOL    C6426926   4.411   0.490   5.443  0.0778 -0.6235 -0.2214
  112MOL    C6526927   4.283   0.454   5.519  1.0500  0.0887 -0.1286
  112MOL    H6626928   4.269   0.372   5.255  0.4677 -0.6386  1.3055
  112MOL    H6726929   4.387   0.462   5.177  0.1483 -1.0454 -1.3296
  112MOL    H6826930   4.453   0.286   5.417 -2.6132 -0.3244 -0.2441
  112MOL    H6926931   4.390   0.573   5.376 -1.1644  0.4297  1.4598
  112MOL    H7026932   4.489   0.514   5.515 -0.9825  0.9884  0.3974
  112MOL    H7126933   4.290   0.350   5.552  0.9298  0.3586  0.7568
  112MOL    H7226934   4.269   0.513   5.609 -1.6855 -0.3834 -0.2168
  112MOL    H7326935   4.195   0.465   5.456 -0.9312 -2.7335  2.0276
  112MOL    C7426936   4.622   0.392   5.334  0.1528 -0.0077  0.6245
  112MOL    C7526937   4.726   0.333   5.437  0.0375  0.1903  0.9033
  112MOL    C7626938   4.846   0.423   5.462 -0.0491 -0.6969 -1.1486
  112MOL    C7726939   4.813   0.545   5.541  0.0040 -0.4267  0.2561
  112MOL    H7826940   4.644   0.498   5.326 -1.2119  0.1503 -1.4561
  112MOL    H7926941   4.656   0.356   5.237 -0.4991  1.4572 -0.1590
  112MOL    H8026942   4.679   0.311   5.534 -1.0857 -2.7342 -0.2438
  112MOL    H8126943   4.901   0.455   5.373  0.6928 -0.0660 -0.4718
  112MOL    H8226944   4.922   0.366   5.515  1.2962 -0.3406 -2.6531
  112MOL    H8326945   4.748   0.609   5.480 -1.7883 -1.1842  1.3268
  112MOL    H8426946   4.776   0.509   5.636 -0.4665  0.9935  0.6278
  112MOL    H8526947   4.900   0.607   5.562  0.7831 -0.3558 -2.8713
  112MOL    C8626948   4.755   0.189   5.391  0.3508 -0.0922 -0.2539
  112MOL    C8726949   4.841   0.077   5.459  0.3026 -1.3202 -0.5353
  112MOL    C8826950   4.886   7.689   5.351  0.2624 -0.3299 -0.7780
  112MOL    C8926951   4.792   7.593   5.284  0.8424  0.1496  0.3902
  112MOL    H9026952   4.804   0.206   5.295  1.8860 -0.7283  0.3980
  112MOL    H9126953   4.654   0.153   5.373  0.8666 -2.1746  0.8636
  112MOL    H9226954   4.936   0.123   5.486 -1.1802 -0.1063  2.8568
  112MOL    H9326955   4.963   7.621   5.387 -0.4410 -0.6431  0.1458
  112MOL    H9426956   4.939   0.039   5.274  1.0149  0.5254  0.3505
  112MOL    H9526957   4.689   7.627   5.296  0.6474 -0.6634  1.0897
  112MOL    H9626958   4.830   7.574   5.184 -0.3783 -2.2150  0.3378
  112MOL    H9726959   4.793   7.502   5.344  3.1207 -0.6567 -0.8313
  112MOL    C9826960   4.778   0.008   5.580 -0.6009 -0.0735 -0.5527
  112MOL    C9926961   4.864   7.615   5.659 -0.1077 -0.2583 -0.0771
  112MOL   C10026962   4.785   7.492   5.700 -0.5757 -0.4488  0.5192
  112MOL   C10126963   4.678   7.523   5.803  0.0320  0.9529 -0.4083
  112MOL   H10226964   4.686   7.669   5.544  1.0104 -1.8202 -2.5645
  112MOL   H10326965   4.751   0.086   5.652 -1.3097 -0.1877 -0.6888
  112MOL   H10426966   4.934   7.568   5.590  0.2671  1.1668 -0.6946
  112MOL   H10526967   4.845   7.411   5.742  1.2968  0.0056 -1.1848
  112MOL   H10626968   4.740   7.450   5.610 -0.6980  0.9268 -0.0627
  112MOL   H10726969   4.719   7.562   5.896  2.3274 -1.5478 -0.3038
  112MOL   H10826970   4.598   7.585   5.762 -1.4705 -1.4005 -1.1656
  112MOL   H10926971   4.629   7.430   5.833  0.6225  0.3862 -1.1756
  112MOL   C11026972   4.937   7.680   5.774 -0.0052  0.4005  0.8493
  112MOL   C11126973   5.054   0.071   5.750 -0.3229 -0.5580  0.6765
  112MOL   C11226974   5.167   0.011   5.663  0.6160 -0.0115 -0.0449
  112MOL   C11326975   5.259   0.119   5.610 -0.0581 -0.5719 -0.1663
  112MOL   H11426976   4.980   7.597   5.829 -3.0108 -1.3663  0.6513
  112MOL   H11526977   4.861   0.010   5.843 -0.7440 -1.2898  0.9354
  112MOL   H11626978   5.025   0.159   5.692  0.9806 -0.9111 -0.5435
  112MOL   H11726979   5.137   7.653   5.580 -0.5426 -1.9520  1.8326
  112MOL   H11826980   5.221   7.646   5.725 -0.1799 -0.0338  0.6248
  112MOL   H11926981   5.210   0.200   5.555 -0.6226 -1.4751 -1.0198
  112MOL   H12026982   5.308   0.171   5.693 -3.8585 -0.1036  1.8861
  112MOL   H12126983   5.340   0.073   5.553  1.1914 -0.0242  1.1328
  112MOL   C12226984   5.110   0.118   5.890  0.5715 -0.3673 -0.2077
  112MOL   C12326985   5.025   0.206   5.977 -0.2679  0.7376  0.4033
  112MOL   C12426986   5.035   0.353   5.927 -0.3040 -0.1037 -0.0824
  112MOL   C12526987   4.961   0.456   6.011  0.0927  0.1450 -0.0317
  112MOL   H12626988   5.206   0.169   5.889  1.3695 -1.8660 -0.8111
  112MOL   H12726989   5.140   0.026   5.940 -0.3614 -0.7099 -0.2760
  112MOL   H12826990   4.922   0.172   5.980  0.0393 -0.3851 -1.4012
  112MOL   H12926991   5.000   0.356   5.824 -2.4158 -1.0351  0.5717
  112MOL   H13026992   5.137   0.388   5.912 -1.3155  2.8228 -0.4529
  112MOL   H13126993   5.004   0.467   6.110 -2.7095 -0.4697  1.3050
  112MOL   H13226994   4.948   0.551   5.959 -5.1470 -1.6376 -2.4154
  112MOL   H13326995   4.857   0.431   6.032 -1.0327  2.2123 -2.7519
  112MOL   C13426996   5.079   0.191   6.124 -0.4169  0.5341 -0.2889
  112MOL   C13526997   4.985   0.108   6.215 -0.6500  0.2215 -0.3146
  112MOL   C13626998   5.041   0.124   6.364 -0.6401  0.7452  0.0994
  112MOL   C13726999   5.179   0.074   6.406  0.4189 -0.1585 -0.0036
  112MOL   H13827000   5.076   0.286   6.178  0.9840  0.6040 -0.3237
  112MOL   H13927001   5.185   0.166   6.126 -0.2279  1.2587 -0.9210
  112MOL   H14027002   4.882   0.145   6.218 -0.8211 -0.2643 -0.1329
  112MOL   H14127003   4.966   0.083   6.432  0.2353 -1.1911 -0.0800
  112MOL   H14227004   5.023   0.227   6.393  1.3033  0.9328  0.6691
  112MOL   H14327005   5.191   7.672   6.417 -0.0622 -0.0687  1.4850
  112MOL   H14427006   5.247   0.124   6.338  0.3919 -1.3450 -0.9243
  112MOL   H14527007   5.203   0.106   6.507  2.0516 -0.3535 -0.3086
  112MOL   C14627008   4.991   7.657   6.168 -0.6921 -0.0512  0.5177
  112MOL   C14727009   4.902   7.557   6.244  0.6301  0.3600 -0.3076
  112MOL   C14827010   4.935   7.416   6.195  0.2426 -0.2225  0.6357
  112MOL   C14927011   4.893   7.299   6.282  0.3902 -0.2170 -0.5560
  112MOL   H15027012   5.096   7.631   6.178 -0.3161  1.2129  0.0269
  112MOL   H15127013   4.965   7.651   6.062  0.8399  0.3840  0.1091
  112MOL   H15227014   4.935   7.549   6.348 -0.4989  1.7361  0.1718
  112MOL   H15327015   5.043   7.407   6.186  0.3354  1.1266  0.3929
  112MOL   H15427016   4.899   7.404   6.093  0.6669 -0.6776  0.5392
  112MOL   H15527017   4.932   7.210   6.234 -1.7123 -1.7568  0.5182
  112MOL   H15627018   4.931   7.309   6.384  0.8428  0.0693 -0.7508
  112MOL   H15727019   4.786   7.280   6.270  0.0186  0.2973  1.6552
  112MOL   C15827020   4.754   7.593   6.224 -0.4904  0.0658  0.5301
  112MOL   C15927021   4.669   7.607   6.352  0.1574 -0.7893  0.3194
  112MOL   C16027022   4.627   7.469   6.406  0.4404  0.3719 -0.2355
  112MOL   C16127023   4.562   7.462   6.548 -0.1885 -0.9105 -0.5800
  112MOL   H16227024   4.696   7.528   6.158  2.2043 -2.0515  0.1459
  112MOL   H16327025   4.753   7.672   6.149  0.5855 -1.1601 -0.7982
  112MOL   H16427026   4.725   7.670   6.421  2.3630 -2.1721 -0.1615
  112MOL   H16527027   4.724   7.424   6.429  0.7837  1.0282 -0.3903
  112MOL   H16627028   4.574   7.401   6.340  0.1838 -0.6292  0.9663
  112MOL   H16727029   4.633   7.490   6.626 -0.7814  1.0060 -0.7107
  112MOL   H16827030   4.473   7.525   6.548 -0.0011 -0.6496  0.0059
  112MOL   H16927031   4.524   7.364   6.577 -0.8536 -0.2436  0.8413
  112MOL   C17027032   4.543   7.683   6.301  0.0905 -0.5449  0.3516
  112MOL   C17127033   4.562   0.129   6.300  0.4861 -0.6423  0.1314
  112MOL   C17227034   4.577   0.197   6.439 -0.7971  1.0481 -1.0014
  112MOL   C17327035   4.601   0.351   6.428 -0.0250  0.3009 -0.0956
  112MOL   H17427036   4.457   7.664   6.365  0.2856 -0.1003  0.7474
  112MOL   H17527037   4.524   7.647   6.200  4.3010 -0.7390 -0.4365
  112MOL   H17627038   4.657   0.146   6.249  2.1273  1.0017  3.5758
  112MOL   H17727039   4.657   0.147   6.494 -1.3849  0.4982 -0.6242
  112MOL   H17827040   4.483   0.177   6.492  0.0203 -1.0641 -0.2661
  112MOL   H17927041   4.685   0.363   6.360 -1.4291 -2.0776 -2.3184
  112MOL   H18027042   4.509   0.399   6.393  0.9357  0.6003 -2.2832
  112MOL   H18127043   4.619   0.401   6.523 -0.0625 -0.1399  0.1393
  112MOL   C18227044   4.440   0.191   6.223 -0.1351 -0.1877  0.3856
  112MOL   C18327045   4.458   0.182   6.072  0.3260  0.0469  0.5062
  112MOL   C18427046   4.554   0.284   6.009 -0.2307 -0.5293  0.0982
  112MOL   C18527047   4.622   0.236   5.881  0.7898  0.8182 -0.5447
  112MOL   H18627048   4.430   0.298   6.239  2.1920  0.0853  0.1321
  112MOL   H18727049   4.344   0.150   6.256  0.6762 -1.2337  1.5238
  112MOL   H18827050   4.495   0.085   6.039 -1.8178 -0.1371 -1.5691
  112MOL   H18927051   4.622   0.291   6.094 -0.8525 -0.4748  0.6013
  112MOL   H19027052   4.517   0.387   6.003  0.9862 -0.0555  0.6219
  112MOL   H19127053   4.701   0.298   5.840  1.4631  0.6274  0.4535
  112MOL   H19227054   4.663   0.136   5.893  0.6816  0.8405 -0.0004
  112MOL   H19327055   4.548   0.225   5.801  0.9638  1.4336 -0.7925
  112MOL   C19427056   4.317   0.202   6.005  0.1967  0.1645  0.2956
  112MOL   C19527057   4.210   0.093   6.017  0.3004 -0.3229 -0.2197
  112MOL   C19627058   4.244   7.677   5.924 -0.1433 -0.6156 -0.3427
  112MOL   C19727059   4.263   0.003   5.775  0.1711  0.3976  0.1944
  112MOL   H19827060   4.332   0.231   5.901  1.3948  1.6498  0.8577
  112MOL   H19927061   4.273   0.294   6.044 -2.4947 -1.2822  0.8244
  112MOL   H20027062   4.214   0.045   6.115  2.6596  0.8513  0.2769
  112MOL   H20127063   4.172   7.596   5.926 -1.2480  0.3358 -0.7720
  112MOL   H20227064   4.337   7.635   5.962  0.4778  0.4504 -0.6764
  112MOL   H20327065   4.167   0.042   5.741 -1.0509 -0.0815  2.9264
  112MOL   H20427066   4.323   0.093   5.764 -0.9643  1.2029  0.4855
  112MOL   H20527067   4.311   7.631   5.717  0.8303  0.2824  0.8805
  112MOL   C20627068   4.060   0.144   5.995 -0.3336 -0.6664  0.2190
  112MOL   C20727069   3.973   0.171   6.118  0.1016 -0.2880 -0.4185
  112MOL   C20827070   3.830   0.201   6.073 -0.4362 -0.3118  0.3644
  112MOL   C20927071   3.768   0.114   5.961 -0.1580  0.2673 -0.4027
  112MOL   H21027072   4.009   0.067   5.936  0.7177 -1.1834 -0.0152
  112MOL   H21127073   4.069   0.228   5.927 -0.2825 -1.9812 -1.4329
  112MOL   H21227074   3.961   0.073   6.165  2.1287 -0.8998 -1.1629
  112MOL   H21327075   3.813   0.306   6.051  1.3486 -0.3525 -1.3706
  112MOL   H21427076   3.771   0.178   6.162 -0.2494  1.0877  0.8634
  112MOL   H21527077   3.761   0.007   5.978  0.5126 -0.0890 -2.2604
  112MOL   H21627078   3.670   0.158   5.945 -0.3010 -0.2670 -1.0231
  112MOL   H21727079   3.819   0.135   5.867 -0.1889 -3.1907 -1.2394
  112MOL   C21827080   4.031   0.285   6.216  1.0291  0.5239  0.9264
  112MOL   C21927081   3.978   0.291   6.364  0.5929  0.2347  0.5669
  112MOL   C22027082   4.001   0.430   6.428 -0.2077  0.7181 -0.0667
  112MOL   C22127083   3.906   0.531   6.366  0.3919 -0.2887 -0.1411
  112MOL   H22227084   4.008   0.382   6.172 -1.5724 -0.8329 -0.8377
  112MOL   H22327085   4.139   0.275   6.217  0.9899 -0.0494  0.2081
  112MOL   H22427086   3.870   0.278   6.364  0.6045  0.1033 -0.1444
  112MOL   H22527087   4.102   0.463   6.405  0.8487 -0.8486  2.1666
  112MOL   H22627088   3.982   0.427   6.535 -0.6107 -0.9591 -0.1687
  112MOL   H22727089   3.809   0.509   6.411  0.9449 -0.9216  0.7712
  112MOL   H22827090   3.938   0.632   6.388 -2.5905  0.2990  1.7181
  112MOL   H22927091   3.894   0.531   6.258 -0.8562  2.0178 -0.0242
  112MOL   C23027092   4.025   0.182   6.456 -0.4627  0.5769 -0.3255
  112MOL   C23127093   3.936   0.155   6.586 -0.1283  0.7120 -0.5531
  112MOL   C23227094   3.967   0.024   6.651 -0.0474 -0.7801 -0.0699
  112MOL   C23327095   3.896   0.008   6.787  0.0284  0.1568  0.4537
  112MOL   H23427096   4.131   0.199   6.474  0.0619  0.1550 -2.8016
  112MOL   H23527097   4.016   0.091   6.398 -0.5359  0.4731 -0.1501
  112MOL   H23627098   3.962   0.237   6.653 -0.2692 -0.3561  0.8365
  112MOL   H23727099   4.070   0.001   6.677  0.6440  1.7545 -0.4486
  112MOL   H23827100   3.930   7.662   6.575 -0.9312  1.3143 -1.5574
  112MOL   H23927101   3.803   0.062   6.802  0.5326  1.4141 -0.8028
  112MOL   H24027102   3.891   7.609   6.813  2.3851  0.2089  1.3151
  112MOL   H24127103   3.953   0.045   6.873 -1.0898  0.0891  1.2232
  112MOL   H24227104   3.828   0.159   6.577 -0.1619 -0.2218 -0.6327
  113MOL     C127105   2.167   7.012   2.918  0.6074 -0.1079 -0.4745
  113MOL     C227106   2.131   7.140   2.836  0.1676  0.5762 -0.4075
  113MOL     C327107   2.008   7.104   2.757  0.1504 -0.5088 -0.0151
  113MOL     C427108   1.876   7.126   2.837 -1.2758  0.1649 -0.4580
  113MOL     H527109   2.203   6.932   2.853  0.3466  0.3776 -1.2223
  113MOL     H627110   2.257   7.035   2.976  3.3540 -3.7566 -3.0610
  113MOL     H727111   2.115   7.218   2.911  0.4878 -0.8840  1.2218
  113MOL     H827112   2.020   6.998   2.732 -0.9477 -0.7451  0.4231
  113MOL     H927113   1.992   7.158   2.664 -1.6796  0.7129  0.9868
  113MOL    H1027114   1.881   7.052   2.918  0.3694  0.9164  0.1512
  113MOL    H1127115   1.874   7.227   2.876 -0.8729 -0.5887  1.5840
  113MOL    H1227116   1.782   7.107   2.785 -0.3611 -0.4116 -1.9452
  113MOL    H1327117   2.085   6.976   2.981 -0.0930 -0.6319 -1.6675
  113MOL    C1427118   2.260   7.180   2.756  0.5291  0.2269 -0.3161
  113MOL    C1527119   2.243   7.315   2.696  0.2177  0.3915  0.4976
  113MOL    C1627120   2.343   7.332   2.578 -0.2424  0.8834  0.0211
  113MOL    C1727121   2.280   7.285   2.444 -0.3062  0.6294 -0.2400
  113MOL    H1827122   2.262   7.112   2.671  0.1068 -2.1796  1.5189
  113MOL    H1927123   2.352   7.166   2.812  1.1931 -0.5815 -1.5840
  113MOL    H2027124   2.142   7.312   2.655  0.5433 -1.8829 -0.2128
  113MOL    H2127125   2.439   7.285   2.596 -0.6128  0.1003 -0.0517
  113MOL    H2227126   2.363   7.439   2.563 -0.9293  0.5926 -3.4522
  113MOL    H2327127   2.345   7.322   2.364  1.6911  0.5959  1.3043
  113MOL    H2427128   2.273   7.177   2.455 -4.7551  1.1071  2.6513
  113MOL    H2527129   2.178   7.322   2.441  0.0277  1.7305  1.1494
  113MOL    C2627130   2.250   7.430   2.804 -0.0431  0.6727 -0.5089
  113MOL    C2727131   2.225   7.579   2.763  0.4463  0.2170 -0.3717
  113MOL    C2827132   2.263   7.671   2.882  1.1002 -0.1011 -0.0187
  113MOL    C2927133   2.408   7.683   2.909  0.3944  0.0559  0.0898
  113MOL    H3027134   2.349   7.411   2.845  0.8241  1.2366 -2.3371
  113MOL    H3127135   2.179   7.407   2.884  0.9209 -2.5698 -0.4872
  113MOL    H3227136   2.284   7.597   2.673  1.4749 -0.2310  0.2123
  113MOL    H3327137   2.215   7.627   2.969 -1.0708 -1.8954 -2.0381
  113MOL    H3427138   2.228   0.066   2.859 -0.2978 -1.1271 -2.6832
  113MOL    H3527139   2.457   0.011   2.818 -0.9794  1.8101 -0.0466
  113MOL    H3627140   2.432   0.044   2.992 -1.1129  0.9782 -0.1982
  113MOL    H3727141   2.445   7.585   2.936 -0.3208 -0.2858 -0.1585
  113MOL    C3827142   2.076   7.604   2.728 -0.5109  0.5457 -0.3526
  113MOL    C3927143   2.053   0.015   2.630 -0.1546  0.4752 -0.3489
  113MOL    C4027144   1.931   0.099   2.679  0.2950  0.3535 -0.4361
  113MOL    C4127145   1.964   0.189   2.800  0.2078  0.3179 -0.2860
  113MOL    H4227146   2.018   7.622   2.819  0.4316  0.5714  0.2555
  113MOL    H4327147   2.041   7.513   2.680  1.6973  0.2814 -1.4968
  113MOL    H4427148   2.149   0.066   2.635 -0.9883  2.0307 -0.1653
  113MOL    H4527149   1.850   0.030   2.699  0.2497 -0.3795 -2.9900
  113MOL    H4627150   1.883   0.156   2.600  0.1832  2.0259  0.8093
  113MOL    H4727151   1.892   0.266   2.828 -0.7086 -0.2432 -1.0330
  113MOL    H4827152   1.998   0.135   2.888 -1.5663 -0.9512 -0.3346
  113MOL    H4927153   2.057   0.238   2.773  0.3866 -0.8819 -1.9540
  113MOL    C5027154   2.054   7.675   2.483  0.2848 -0.5709 -0.3198
  113MOL    C5127155   2.095   0.065   2.372  0.0993  0.0831  1.2871
  113MOL    C5227156   2.047   0.211   2.379  0.0009  0.1737  0.1426
  113MOL    C5327157   2.102   0.309   2.279  0.5977  0.0610  0.1495
  113MOL    H5427158   1.949   7.646   2.470 -0.1753  0.6586  0.6088
  113MOL    H5527159   2.125   7.592   2.488 -1.7511 -2.4398 -1.2449
  113MOL    H5627160   2.204   0.074   2.379  0.2010 -0.1830  0.2298
  113MOL    H5727161   2.076   0.247   2.478 -1.5280 -0.2888  0.7869
  113MOL    H5827162   1.938   0.215   2.376  0.0107 -0.8053 -2.2625
  113MOL    H5927163   2.063   0.405   2.311  0.0214  0.6335 -2.1597
  113MOL    H6027164   2.209   0.314   2.303  0.0692 -1.3235  3.0140
  113MOL    H6127165   2.076   0.287   2.175 -0.6985  2.3495 -0.0461
  113MOL    C6227166   2.058   7.700   2.240  0.1210 -0.3865 -0.2887
  113MOL    C6327167   2.134   7.567   2.205 -0.4722  0.4705 -0.0093
  113MOL    C6427168   2.290   7.590   2.186 -0.8613  0.2393 -0.4022
  113MOL    C6527169   2.332   7.687   2.066  0.3394  0.1108  0.1282
  113MOL    H6627170   2.070   0.069   2.162  1.9002 -1.2117 -0.8291
  113MOL    H6727171   1.950   7.687   2.226  0.4674 -0.5246 -3.1122
  113MOL    H6827172   2.129   7.502   2.293  1.5933 -1.0296 -0.9558
  113MOL    H6927173   2.333   7.492   2.166 -2.0365 -0.3392 -0.1554
  113MOL    H7027174   2.323   7.621   2.285 -1.4907 -0.9041  0.1694
  113MOL    H7127175   2.303   7.661   1.964  2.3016 -0.9640 -0.1753
  113MOL    H7227176   2.298   0.084   2.080  1.1445  0.7345 -2.2831
  113MOL    H7327177   2.440   7.684   2.059  0.4933 -0.0040  2.1701
  113MOL    C7427178   2.081   7.483   2.087 -0.2382  0.1712 -0.0221
  113MOL    C7527179   1.930   7.421   2.102  0.3767  0.3883 -0.1400
  113MOL    C7627180   1.895   7.359   2.239 -0.1785 -0.1879  0.0352
  113MOL    C7727181   1.978   7.236   2.265 -0.2530  0.4962  0.8237
  113MOL    H7827182   2.139   7.398   2.050 -2.6044 -0.8805 -1.4819
  113MOL    H7927183   2.078   7.557   2.007  1.3636  1.3506  0.9856
  113MOL    H8027184   1.857   7.501   2.097 -0.2478 -0.1667 -0.0405
  113MOL    H8127185   1.790   7.331   2.248  0.0699 -0.4412  2.6402
  113MOL    H8227186   1.905   7.413   2.333  1.8886  0.4709 -0.5482
  113MOL    H8327187   1.959   7.208   2.369 -3.3431 -0.5489  0.0193
  113MOL    H8427188   1.942   7.160   2.196 -0.1755  0.6743  0.5855
  113MOL    H8527189   2.084   7.258   2.251 -0.9829  3.5908 -0.2968
  113MOL    C8627190   1.899   7.325   1.974 -0.1768 -0.5464  0.4552
  113MOL    C8727191   1.750   7.305   1.946  0.5662  0.0820 -0.9313
  113MOL    C8827192   1.661   7.429   1.955  0.8486 -0.2232 -0.0948
  113MOL    C8927193   1.706   7.559   1.890 -0.0002 -0.0851  0.3307
  113MOL    H9027194   1.954   7.232   1.990 -0.5405 -0.9307 -0.4783
  113MOL    H9127195   1.934   7.376   1.885  1.1628 -1.2443  0.5714
  113MOL    H9227196   1.742   7.266   1.844  0.0149 -1.8949 -0.1662
  113MOL    H9327197   1.650   7.456   2.060 -1.8081 -1.2328 -0.0689
  113MOL    H9427198   1.564   7.421   1.906  1.6541 -1.5349 -1.5278
  113MOL    H9527199   1.617   7.622   1.893 -1.1565 -1.6735 -0.1716
  113MOL    H9627200   1.787   7.617   1.935  1.5811 -0.8492 -1.4257
  113MOL    H9727201   1.722   7.545   1.783  1.8828  0.2815  0.5472
  113MOL    C9827202   1.687   7.188   2.040 -0.7687 -0.1611  0.3280
  113MOL    C9927203   1.614   7.075   1.963  0.2940 -0.8836 -0.5540
  113MOL   C10027204   1.500   7.128   1.869 -0.1124  0.0981 -0.1716
  113MOL   C10127205   1.371   7.173   1.945 -0.1008 -0.6511 -0.0629
  113MOL   H10227206   1.622   7.245   2.106  0.1735  2.0161 -0.5516
  113MOL   H10327207   1.765   7.142   2.101 -0.3590  0.3214  0.1697
  113MOL   H10427208   1.698   7.040   1.902  0.2944 -1.0067 -0.4828
  113MOL   H10527209   1.470   7.055   1.794  4.4935 -0.4886 -1.5812
  113MOL   H10627210   1.526   7.206   1.798  1.1438 -2.3355 -2.4841
  113MOL   H10727211   1.313   7.098   2.000  0.0891 -1.0822 -0.4478
  113MOL   H10827212   1.395   7.260   2.006 -0.6826  0.3759 -1.2700
  113MOL   H10927213   1.289   7.222   1.892 -0.7156  1.3760  2.6201
  113MOL   C11027214   1.573   6.963   2.067  0.1146  0.1490 -0.1868
  113MOL   C11127215   1.508   6.829   2.012 -0.2757 -0.5391 -0.0322
  113MOL   C11227216   1.422   6.752   2.120 -0.2217  0.0226  0.2183
  113MOL   C11327217   1.285   6.821   2.143 -0.2946  0.7705 -0.2938
  113MOL   H11427218   1.514   7.005   2.148 -0.0501 -0.3818 -0.0282
  113MOL   H11527219   1.660   6.929   2.123 -0.3632  0.2846  0.6537
  113MOL   H11627220   1.431   6.862   1.942 -0.1443  1.3175  0.6739
  113MOL   H11727221   1.479   6.740   2.212 -1.6816 -1.5358  0.9369
  113MOL   H11827222   1.414   6.650   2.084 -1.4309  0.4961 -0.9085
  113MOL   H11927223   1.294   6.904   2.213 -0.0252  0.8776 -0.4549
  113MOL   H12027224   1.251   6.862   2.048  0.4229  2.8143  0.3113
  113MOL   H12127225   1.226   6.732   2.165  0.0415  0.6150 -0.0117
  113MOL   C12227226   1.614   6.736   1.937  0.7380 -0.3269 -0.0451
  113MOL   C12327227   1.552   6.676   1.806  0.3401 -0.6866 -0.2416
  113MOL   C12427228   1.610   6.544   1.768  0.8913  0.1967  0.0027
  113MOL   C12527229   1.563   6.434   1.862 -0.4817 -0.1422 -0.3869
  113MOL   H12627230   1.656   6.658   2.000  0.5428 -1.1380 -0.9154
  113MOL   H12727231   1.701   6.794   1.907 -0.1816  1.0259 -0.1652
  113MOL   H12827232   1.449   6.647   1.826  0.9957 -1.2028  2.5034
  113MOL   H12927233   1.718   6.553   1.777  1.2805  0.0679 -3.7929
  113MOL   H13027234   1.591   6.520   1.663 -0.1033 -0.3905  0.3188
  113MOL   H13127235   1.592   6.334   1.831  4.2272  0.4824  1.5207
  113MOL   H13227236   1.608   6.455   1.959 -1.1325  0.7327 -0.2781
  113MOL   H13327237   1.457   6.425   1.884 -0.7480  2.0358 -0.6288
  113MOL   C13427238   1.561   6.779   1.694 -0.5634 -0.2664 -1.0641
  113MOL   C13527239   1.433   6.809   1.608  0.1884  0.3263  0.2820
  113MOL   C13627240   1.380   6.691   1.532 -0.0015 -0.2106  0.3260
  113MOL   C13727241   1.456   6.660   1.404  0.0718 -0.0851 -0.2592
  113MOL   H13827242   1.645   6.765   1.626  0.1095  0.9564 -0.4939
  113MOL   H13927243   1.602   6.871   1.736 -0.5091 -0.0455 -1.5958
  113MOL   H14027244   1.360   6.821   1.687 -0.4866  0.1379 -0.3068
  113MOL   H14127245   1.279   6.715   1.499 -0.0492 -0.5782  0.2012
  113MOL   H14227246   1.364   6.600   1.591 -1.4981  0.0332  0.3360
  113MOL   H14327247   1.448   6.720   1.313 -3.4157 -2.4409 -1.6212
  113MOL   H14427248   1.561   6.649   1.432 -0.1557  0.4314  0.8373
  113MOL   H14527249   1.424   6.562   1.367 -1.2647  0.2557 -0.0357
  113MOL   C14627250   1.449   6.936   1.523 -0.3577 -0.4766  0.1282
  113MOL   C14727251   1.323   6.986   1.447  0.1701 -0.3740 -0.0173
  113MOL   C14827252   1.375   7.075   1.328  0.1530  0.0342  0.5836
  113MOL   C14927253   1.272   7.111   1.214 -0.1226 -0.3695  0.6325
  113MOL   H15027254   1.524   6.920   1.446  1.9657  0.3965  2.1672
  113MOL   H15127255   1.492   7.016   1.583  0.9097 -0.2871 -1.0105
  113MOL   H15227256   1.269   6.900   1.408  1.0938 -1.2031  0.4977
  113MOL   H15327257   1.450   7.018   1.274 -0.2015  1.3598 -1.3493
  113MOL   H15427258   1.421   7.165   1.371 -1.1932  0.4745  1.1307
  113MOL   H15527259   1.222   7.028   1.164 -2.0474  0.2227  1.5044
  113MOL   H15627260   1.188   7.170   1.251 -0.6129  0.2902 -1.4563
  113MOL   H15727261   1.317   7.170   1.135  2.1425 -1.7008  0.8929
  113MOL   C15827262   1.231   7.059   1.545  0.0733 -0.0283 -0.1272
  113MOL   C15927263   1.097   6.992   1.577  0.7607 -0.4356  0.0702
  113MOL   C16027264   0.994   6.997   1.459  0.1912  0.2643  0.1938
  113MOL   C16127265   0.922   7.122   1.438 -0.2958  0.2526  0.0406
  113MOL   H16227266   1.210   7.163   1.521  1.1423  0.3252  0.4154
  113MOL   H16327267   1.288   7.067   1.638  0.5424 -0.8932 -0.3292
  113MOL   H16427268   1.127   6.888   1.592  1.2924 -0.2427  0.3385
  113MOL   H16527269   0.925   6.915   1.481 -1.3898  1.2838 -0.9344
  113MOL   H16627270   1.059   6.966   1.377 -1.1322  0.2042 -0.8448
  113MOL   H16727271   0.876   7.147   1.533 -1.3816 -0.8797 -0.1794
  113MOL   H16827272   0.992   7.200   1.408  1.7795 -1.7743 -0.5471
  113MOL   H16927273   0.840   7.127   1.367  0.9265 -0.3754 -1.4538
  113MOL   C17027274   1.035   7.027   1.716  0.6168  0.0046  0.3930
  113MOL   C17127275   0.913   6.939   1.770  0.1881 -0.4322 -0.0818
  113MOL   C17227276   0.843   7.014   1.878  0.3377 -0.3874 -0.0087
  113MOL   C17327277   0.938   7.060   1.996 -0.5287  0.4046  0.2556
  113MOL   H17427278   1.004   7.132   1.715  0.8781  0.1026 -1.7800
  113MOL   H17527279   1.116   7.031   1.788  1.2021  0.4599 -0.2758
  113MOL   H17627280   0.842   6.936   1.688  1.5257 -0.4267 -1.2552
  113MOL   H17727281   0.766   6.962   1.934 -0.7177 -0.4221 -1.4633
  113MOL   H17827282   0.783   7.093   1.833  0.4774 -0.6101 -0.5877
  113MOL   H17927283   0.995   7.152   1.985 -2.6322  1.6028 -0.9147
  113MOL   H18027284   0.876   7.071   2.085  1.5256  0.2359  1.7454
  113MOL   H18127285   1.002   6.976   2.022  0.9036  1.5176  0.3882
  113MOL   C18227286   0.950   6.792   1.798  0.0659  0.5143  0.5768
  113MOL   C18327287   0.834   6.694   1.839  0.2806 -0.4459 -0.0502
  113MOL   C18427288   0.889   6.602   1.949 -0.2525  0.5752 -0.0725
  113MOL   C18527289   0.894   6.668   2.090 -0.2496 -0.5311  0.0585
  113MOL   H18627290   1.029   6.803   1.872  0.0553  0.2187  0.6328
  113MOL   H18727291   0.995   6.747   1.710 -0.1094  2.7184 -0.6680
  113MOL   H18827292   0.755   6.749   1.890  1.1561  1.6464 -0.8893
  113MOL   H18927293   0.982   6.560   1.912  0.5795  0.4363  2.1536
  113MOL   H19027294   0.826   6.513   1.951 -0.1528  0.4906 -0.5958
  113MOL   H19127295   0.978   6.738   2.093 -1.1909  0.5743  1.0717
  113MOL   H19227296   0.802   6.720   2.116 -0.0427 -0.9067  1.6425
  113MOL   H19327297   0.920   6.590   2.162 -0.8385 -1.8972 -1.1955
  113MOL   C19427298   0.784   6.606   1.716 -0.4109 -0.6521 -0.0873
  113MOL   C19527299   0.731   6.694   1.600  0.1429 -0.7984 -0.1700
  113MOL   C19627300   0.613   6.782   1.642  0.0647  0.4809 -0.4963
  113MOL   C19727301   0.580   6.895   1.547  0.1071  0.4802 -0.2085
  113MOL   H19827302   0.713   6.528   1.743 -0.2729  0.3144  3.3065
  113MOL   H19927303   0.864   6.546   1.671  0.8500  1.3082 -0.5325
  113MOL   H20027304   0.811   6.759   1.565  1.5986 -1.5278  1.6702
  113MOL   H20127305   0.635   6.826   1.740 -0.8515  0.9493 -0.4919
  113MOL   H20227306   0.524   6.725   1.665  1.4377 -1.8957 -0.8815
  113MOL   H20327307   0.541   6.983   1.598  0.7048  0.7383 -0.1886
  113MOL   H20427308   0.664   6.930   1.486  0.6993 -0.5328  0.0198
  113MOL   H20527309   0.506   6.877   1.469 -1.1278 -2.7412  1.6195
  113MOL   C20627310   0.700   6.612   1.472  0.0439 -0.5206  0.0783
  113MOL   C20727311   0.811   6.570   1.379 -0.1458 -0.3710 -0.3103
  113MOL   C20827312   0.790   6.626   1.233 -0.4632  0.1656 -0.6418
  113MOL   C20927313   0.679   6.557   1.152 -0.0980 -0.1739  0.5410
  113MOL   H21027314   0.634   6.678   1.416 -2.4293 -2.0566  1.0784
  113MOL   H21127315   0.632   6.528   1.489  2.4666 -2.5553 -0.0248
  113MOL   H21227316   0.907   6.608   1.415 -0.0291  0.7833 -1.8014
  113MOL   H21327317   0.881   6.609   1.176  0.9667 -0.2353  1.7128
  113MOL   H21427318   0.767   6.733   1.237 -2.3193 -0.2469  0.5209
  113MOL   H21527319   0.581   6.555   1.201 -0.4777  2.1457 -0.0819
  113MOL   H21627320   0.653   6.614   1.063  0.0286 -2.0303 -0.7181
  113MOL   H21727321   0.708   6.458   1.119  0.7840  0.4760 -0.6576
  113MOL   C21827322   0.829   6.419   1.387  0.5963 -0.1182  0.8013
  113MOL   C21927323   0.944   6.353   1.316 -0.8938  0.5346  0.2508
  113MOL   C22027324   0.928   6.192   1.312 -0.0961  0.3512 -0.1440
  113MOL   C22127325   0.914   6.114   1.448 -0.0552  0.6508  0.6641
  113MOL   H22227326   0.736   6.375   1.349 -0.4746  3.0781 -0.4331
  113MOL   H22327327   0.830   6.394   1.494 -0.3238  0.5906  0.9879
  113MOL   H22427328   0.939   6.376   1.210  0.0050 -0.3992  0.0032
  113MOL   H22527329   1.012   6.144   1.263  0.8656  0.6742  1.1581
  113MOL   H22627330   0.855   6.167   1.235  1.1755 -0.0822 -1.2362
  113MOL   H22727331   0.900   6.007   1.435 -0.0276  0.3372  2.9761
  113MOL   H22827332   1.009   6.116   1.501 -0.7399  1.2250  1.8888
  113MOL   H22927333   0.846   6.153   1.524  0.1604  0.1308  1.1235
  113MOL   C23027334   1.088   6.403   1.363  0.1065 -0.1042  0.6996
  113MOL   C23127335   1.116   6.413   1.511 -0.8319  0.1412  0.0355
  113MOL   C23227336   1.257   6.345   1.543 -0.7333 -0.6957 -0.4723
  113MOL   C23327337   1.284   6.316   1.691  0.4781 -0.8580  0.7985
  113MOL   H23427338   1.094   6.503   1.321 -0.5155 -0.3763 -0.0443
  113MOL   H23527339   1.166   6.347   1.310  0.9167  2.0566 -0.4334
  113MOL   H23627340   1.127   6.516   1.546  1.3392  0.1274 -0.5550
  113MOL   H23727341   1.336   6.412   1.509 -0.8282 -0.2005  0.2471
  113MOL   H23827342   1.267   6.248   1.494  1.5588 -0.9243  0.4015
  113MOL   H23927343   1.384   6.275   1.711  0.8820  0.0057  0.5517
  113MOL   H24027344   1.273   6.407   1.750  4.6237 -1.2939  2.4207
  113MOL   H24127345   1.214   6.239   1.724 -0.5099 -0.3580 -0.1256
  113MOL   H24227346   1.044   6.355   1.569 -0.3114  0.1013  0.6567
  114MOL     C127347   5.790   2.889   3.034  0.1101  0.2704 -0.7106
  114MOL     C227348   5.901   2.941   2.950  0.1997 -0.0536  0.7476
  114MOL     C327349   5.996   2.830   2.897  0.0857 -0.2044 -0.4856
  114MOL     C427350   5.943   2.694   2.836  0.2777 -0.3738 -0.0298
  114MOL     H527351   5.744   2.798   2.995  0.8120 -0.8226  0.9690
  114MOL     H627352   5.836   2.862   3.129 -0.7004 -3.0836 -1.2109
  114MOL     H727353   5.860   2.984   2.858  0.6995 -0.9146  0.1205
  114MOL     H827354   6.055   2.795   2.982  1.6778  0.1875 -1.4075
  114MOL     H927355   6.071   2.870   2.828  1.3635 -0.0915  0.9403
  114MOL    H1027356   5.863   2.713   2.764  1.4396 -1.2977 -1.5955
  114MOL    H1127357   6.028   2.643   2.791  0.3190  0.0245 -0.3998
  114MOL    H1227358   5.925   2.617   2.911  1.2372 -1.4391 -0.8631
  114MOL    H1327359   5.714   2.966   3.045  0.2077  0.3877 -0.8445
  114MOL    C1427360   5.979   3.053   3.021  0.2590  0.1466 -0.3631
  114MOL    C1527361   5.895   3.187   3.025  0.3660 -0.0708  0.3081
  114MOL    C1627362   5.929   3.277   2.897  0.5937 -0.0792  0.2786
  114MOL    C1727363   5.814   3.370   2.854 -0.1738  0.4385 -0.0129
  114MOL    H1827364   6.073   3.060   2.967 -0.0297 -0.6525 -0.9840
  114MOL    H1927365   6.005   3.025   3.123 -0.0537 -0.8603 -0.5571
  114MOL    H2027366   5.787   3.172   3.022  0.5038 -0.8896 -0.4226
  114MOL    H2127367   5.940   3.214   2.809  0.3778 -0.7885  0.7536
  114MOL    H2227368   6.020   3.333   2.914 -0.3660  1.0908  1.7185
  114MOL    H2327369   5.829   3.408   2.753 -0.8185  1.0624  0.1238
  114MOL    H2427370   5.720   3.314   2.857  1.1714 -1.8116  0.9728
  114MOL    H2527371   5.817   3.453   2.925 -0.7911  0.7102 -0.3011
  114MOL    C2627372   5.917   3.258   3.160  0.2718 -0.3108 -0.7448
  114MOL    C2727373   5.864   3.180   3.293 -0.1211  0.5448  0.4066
  114MOL    C2827374   5.712   3.227   3.302 -0.3682  0.2069 -0.3402
  114MOL    C2927375   5.629   3.146   3.403 -0.7931 -0.4201  1.3688
  114MOL    H3027376   5.871   3.355   3.143  0.2633 -0.2745 -0.5126
  114MOL    H3127377   6.023   3.282   3.173  0.1934  0.2449 -1.1183
  114MOL    H3227378   5.859   3.072   3.276  2.1295  0.1881  1.8869
  114MOL    H3327379   5.673   3.219   3.201 -1.1945 -1.0760  0.0700
  114MOL    H3427380   5.712   3.334   3.322 -0.3208 -0.1598  1.7174
  114MOL    H3527381   5.652   3.164   3.508  3.3941  2.0004  0.1728
  114MOL    H3627382   5.521   3.155   3.395 -0.5455  2.1621  0.5019
  114MOL    H3727383   5.646   3.039   3.390 -1.4046 -0.1207 -2.7876
  114MOL    C3827384   5.952   3.225   3.416  0.5079 -0.0830 -0.7350
  114MOL    C3927385   6.089   3.156   3.422  0.2504  0.2610 -0.3575
  114MOL    C4027386   6.073   3.018   3.486 -0.6447 -0.4586  0.1214
  114MOL    C4127387   6.194   2.923   3.474  0.7523  0.0734  0.1960
  114MOL    H4227388   5.896   3.204   3.507  1.0107  0.7714 -0.2173
  114MOL    H4327389   5.963   3.333   3.423 -1.4712  0.0836 -0.0481
  114MOL    H4427390   6.117   3.138   3.318 -0.0163  2.7067 -0.8854
  114MOL    H4527391   5.982   2.980   3.439 -1.5263  1.0231  0.5997
  114MOL    H4627392   6.054   3.028   3.593  0.8033  1.6120  0.2198
  114MOL    H4727393   6.272   2.940   3.547 -0.2248  4.2940  0.3742
  114MOL    H4827394   6.155   2.822   3.489 -2.7550  1.4925  1.0777
  114MOL    H4927395   6.234   2.923   3.373 -1.8396 -0.4444 -0.8742
  114MOL    C5027396   6.190   3.241   3.498  0.5380  0.0188  0.3863
  114MOL    C5127397   6.270   3.344   3.414 -0.4095 -0.0963  0.0266
  114MOL    C5227398   6.410   3.284   3.378  0.2663 -0.5319  1.1773
  114MOL    C5327399   6.419   3.137   3.319  0.5700 -0.3005  0.3407
  114MOL    H5427400   6.261   3.170   3.539  0.2431 -0.0792  0.7326
  114MOL    H5527401   6.143   3.289   3.584  0.3430 -2.1270  1.5009
  114MOL    H5627402   6.222   3.361   3.318 -1.6676 -0.7185  0.5436
  114MOL    H5727403   6.469   3.283   3.470 -0.4437  2.4397  1.7228
  114MOL    H5827404   6.463   3.354   3.312 -1.1917 -0.7157 -0.2047
  114MOL    H5927405   6.519   3.105   3.291  0.0359 -1.6388 -0.0609
  114MOL    H6027406   6.402   3.067   3.400  0.8921 -0.9186 -0.1275
  114MOL    H6127407   6.352   3.120   3.235 -1.4566  0.1686  1.8195
  114MOL    C6227408   6.286   3.490   3.481 -0.5366 -0.6278 -0.4444
  114MOL    C6327409   6.152   3.563   3.486  0.4315 -1.2995 -0.3858
  114MOL    C6427410   6.124   3.634   3.353 -0.6328 -0.3009  0.0384
  114MOL    C6527411   5.977   3.639   3.315  0.7028 -0.6422 -0.5815
  114MOL    H6627412   6.358   3.548   3.424 -0.2136  0.8664  1.4238
  114MOL    H6727413   6.331   3.485   3.580 -0.5455 -0.7434 -0.4458
  114MOL    H6827414   6.086   3.478   3.500 -1.5993  0.0298 -1.6193
  114MOL    H6927415   6.183   3.587   3.275  0.0593  0.6018  0.0139
  114MOL    H7027416   6.171   3.732   3.355 -0.3645 -0.4341  1.6880
  114MOL    H7127417   5.949   3.699   3.229 -0.4200  1.0155  0.9131
  114MOL    H7227418   5.944   3.537   3.297  0.0137 -0.4257 -0.5402
  114MOL    H7327419   5.929   3.679   3.404  1.3523 -0.0964 -0.4734
  114MOL    C7427420   6.145   3.664   3.607  0.1467  0.3279  0.0597
  114MOL    C7527421   6.149   3.593   3.750  0.3976 -1.0380  0.2794
  114MOL    C7627422   5.997   3.548   3.784 -0.2423  0.2869  0.0165
  114MOL    C7727423   5.975   3.468   3.917 -0.3085  0.5079  0.0507
  114MOL    H7827424   6.054   3.724   3.608  0.9574  1.5746  2.4542
  114MOL    H7927425   6.229   3.732   3.601  0.2796  0.3289  1.5675
  114MOL    H8027426   6.208   3.501   3.740  0.0927 -1.4220  1.9226
  114MOL    H8127427   5.960   3.477   3.711  0.5615  0.0833 -0.1979
  114MOL    H8227428   5.940   3.640   3.776 -1.9731 -0.5145  2.4140
  114MOL    H8327429   5.996   3.362   3.903 -0.3109  0.2410  1.9438
  114MOL    H8427430   6.032   3.504   4.003  0.2474 -1.1346  0.3839
  114MOL    H8527431   5.872   3.479   3.950 -0.1172 -1.7877  1.5445
  114MOL    C8627432   6.209   3.687   3.856 -0.1842  0.6476  0.4283
  114MOL    C8727433   6.365   3.708   3.848 -0.1826 -0.0654 -0.1060
  114MOL    C8827434   6.440   3.577   3.887  0.4938 -0.5305  0.5043
  114MOL    C8927435   6.592   3.582   3.927  0.1731 -0.2017 -0.5489
  114MOL    H9027436   6.197   3.619   3.940  0.2219  1.9004  1.5238
  114MOL    H9127437   6.144   3.769   3.885 -0.2697  0.6584  0.2071
  114MOL    H9227438   6.391   3.731   3.745 -0.1973 -0.7331 -0.2612
  114MOL    H9327439   6.433   3.503   3.806  0.5414 -0.2431  0.2362
  114MOL    H9427440   6.387   3.532   3.970  0.1311  0.6570  0.9216
  114MOL    H9527441   6.647   3.628   3.844 -1.0600  1.3115 -0.5572
  114MOL    H9627442   6.626   3.634   4.016  2.1036 -1.6132 -0.4203
  114MOL    H9727443   6.617   3.476   3.926 -0.9345 -0.4771  0.5218
  114MOL    C9827444   6.408   3.828   3.939  0.0151  0.3025  0.4317
  114MOL    C9927445   6.375   3.971   3.896  0.7703 -0.1358  0.6345
  114MOL   C10027446   6.461   4.014   3.777 -0.4829 -0.5478  0.4657
  114MOL   C10127447   6.393   4.124   3.696  0.0984 -0.6246  0.3726
  114MOL   H10227448   6.513   3.811   3.959 -0.0210  0.7402  0.9987
  114MOL   H10327449   6.358   3.813   4.034 -1.1780 -0.0632 -0.2468
  114MOL   H10427450   6.276   3.954   3.852  1.4992 -1.9189 -0.3670
  114MOL   H10527451   6.479   3.932   3.707 -2.5382  0.0915 -0.8577
  114MOL   H10627452   6.555   4.045   3.823  0.8666 -4.4581  0.5356
  114MOL   H10727453   6.303   4.090   3.646  0.0234  1.6181 -1.0880
  114MOL   H10827454   6.369   4.206   3.764 -0.1166  0.5291 -1.0682
  114MOL   H10927455   6.451   4.167   3.614 -0.3823 -0.1455  0.2836
  114MOL   C11027456   6.395   4.074   4.011 -0.3787  0.7960  0.3868
  114MOL   C11127457   6.279   4.080   4.106  0.2240  0.6333  0.4319
  114MOL   C11227458   6.159   4.156   4.043 -0.1074  1.0300  0.6561
  114MOL   C11327459   6.168   4.307   4.070  0.2795 -0.4123  0.4817
  114MOL   H11427460   6.413   4.173   3.968 -0.9890  1.1193  0.8697
  114MOL   H11527461   6.486   4.037   4.057 -1.1137 -1.4123  0.1459
  114MOL   H11627462   6.237   3.979   4.105  0.7273  0.4203  0.5574
  114MOL   H11727463   6.067   4.126   4.093 -0.8546  1.9374 -0.1349
  114MOL   H11827464   6.155   4.132   3.937 -0.2494  1.6373  0.5194
  114MOL   H11927465   6.142   4.314   4.176  0.6036  1.0947  0.4756
  114MOL   H12027466   6.272   4.338   4.057  0.2195 -0.5826 -0.3808
  114MOL   H12127467   6.089   4.360   4.017 -0.6600 -2.8644 -0.6029
  114MOL   C12227468   6.324   4.131   4.252  0.5099 -0.9007  1.0574
  114MOL   C12327469   6.215   4.124   4.357 -0.1223  0.1433  0.4986
  114MOL   C12427470   6.244   4.244   4.453  0.3944 -0.4113 -0.1593
  114MOL   C12527471   6.374   4.246   4.527  0.1457  0.9634 -0.0306
  114MOL   H12627472   6.368   4.231   4.243  1.0042 -1.3015 -1.1464
  114MOL   H12727473   6.410   4.068   4.277  2.4165  1.5808  0.9595
  114MOL   H12827474   6.118   4.145   4.313  1.2946  1.9223 -1.8465
  114MOL   H12927475   6.163   4.260   4.525 -1.1408 -0.4518 -1.8481
  114MOL   H13027476   6.235   4.341   4.405 -1.3323  0.1460  1.2157
  114MOL   H13127477   6.373   4.185   4.618 -0.5181  0.3951 -0.4176
  114MOL   H13227478   6.450   4.217   4.455 -0.9751  0.2606 -0.9409
  114MOL   H13327479   6.391   4.346   4.568  1.2943 -0.1560  2.3190
  114MOL   C13427480   6.202   3.987   4.432 -0.0258 -0.2135  0.5904
  114MOL   C13527481   6.070   3.973   4.512  0.2836  1.3988 -0.9007
  114MOL   C13627482   6.065   3.857   4.620 -0.3654  0.2440 -0.3637
  114MOL   C13727483   6.118   3.881   4.761  0.1110 -0.2859 -0.0130
  114MOL   H13827484   6.286   3.969   4.499 -0.0371 -1.4904  0.2769
  114MOL   H13927485   6.212   3.913   4.352 -2.6079  0.7920 -0.7183
  114MOL   H14027486   6.055   4.062   4.574 -1.3980  0.2126  0.4392
  114MOL   H14127487   6.116   3.772   4.573  1.9615 -0.3246  2.9656
  114MOL   H14227488   5.965   3.818   4.636  1.0615 -2.5148  2.4931
  114MOL   H14327489   6.088   3.797   4.823 -0.1516  0.0917  0.3710
  114MOL   H14427490   6.226   3.891   4.770  0.0732  1.0137 -0.8232
  114MOL   H14527491   6.068   3.965   4.810  0.7506 -1.0455  1.9503
  114MOL   C14627492   5.946   3.967   4.424  0.0237 -0.1812  0.1158
  114MOL   C14727493   5.854   4.090   4.441 -0.0636 -0.0056  0.0155
  114MOL   C14827494   5.764   4.066   4.561  0.5371 -0.0075  0.0805
  114MOL   C14927495   5.746   4.190   4.660 -0.0714  0.0814 -0.1316
  114MOL   H15027496   5.889   3.874   4.428 -0.5414  0.1962  1.1098
  114MOL   H15127497   5.980   3.977   4.321  1.6208  1.4843  0.7679
  114MOL   H15227498   5.916   4.176   4.466  0.7296 -0.0730 -1.7043
  114MOL   H15327499   5.817   3.985   4.612 -1.4145 -1.8588 -0.7549
  114MOL   H15427500   5.669   4.021   4.534 -0.0960  0.5064  1.3986
  114MOL   H15527501   5.844   4.221   4.698  0.2755  0.1572 -1.0751
  114MOL   H15627502   5.697   4.272   4.609 -4.3769 -0.9986  2.0478
  114MOL   H15727503   5.683   4.164   4.744  0.8765 -1.4883  0.1214
  114MOL   C15827504   5.774   4.125   4.314  0.4413 -0.7576  0.4408
  114MOL   C15927505   5.729   4.275   4.296  0.0777 -0.0893  0.0875
  114MOL   C16027506   5.607   4.279   4.186 -0.6855 -0.0981 -0.2766
  114MOL   C16127507   5.473   4.244   4.246  0.1752 -0.4598 -0.9706
  114MOL   H16227508   5.685   4.063   4.312 -0.1883  0.1307  0.3926
  114MOL   H16327509   5.837   4.109   4.226  0.9416 -0.8897  0.8195
  114MOL   H16427510   5.690   4.299   4.395  1.2736 -0.7015  0.7165
  114MOL   H16527511   5.627   4.217   4.099  1.5949 -1.4082  1.1306
  114MOL   H16627512   5.596   4.379   4.143 -2.2726 -0.2329 -0.2262
  114MOL   H16727513   5.386   4.232   4.181 -0.0650 -0.8388 -0.5818
  114MOL   H16827514   5.483   4.147   4.295  0.8789  0.2236  0.2644
  114MOL   H16927515   5.459   4.307   4.334  2.1890  1.9194 -2.3038
  114MOL   C17027516   5.838   4.376   4.270 -0.8070  0.4622  0.3168
  114MOL   C17127517   5.811   4.526   4.278  0.8154  0.0986 -0.1143
  114MOL   C17227518   5.889   4.615   4.177 -0.3068 -0.0545 -0.7373
  114MOL   C17327519   6.037   4.624   4.194  0.3192  0.1925  0.3363
  114MOL   H17427520   5.863   4.364   4.165 -0.3306 -0.8726  0.5725
  114MOL   H17527521   5.931   4.345   4.317  0.9651  1.1539 -2.6039
  114MOL   H17627522   5.710   4.549   4.244 -0.0398 -0.1611  2.2107
  114MOL   H17727523   5.850   4.717   4.179  0.1153  0.1335 -1.9276
  114MOL   H17827524   5.876   4.572   4.078  2.3031 -0.3672 -0.9563
  114MOL   H17927525   6.089   4.536   4.230 -1.8687 -1.3513 -0.1488
  114MOL   H18027526   6.074   4.654   4.096  0.4312 -1.3576 -0.0986
  114MOL   H18127527   6.063   4.708   4.258  2.0846 -0.0267 -0.0625
  114MOL   C18227528   5.823   4.574   4.422  0.0163 -0.1355  0.6697
  114MOL   C18327529   5.759   4.705   4.469  0.6952  0.1481 -0.3571
  114MOL   C18427530   5.823   4.756   4.601 -0.6191 -1.0384  0.0982
  114MOL   C18527531   5.748   4.697   4.726 -0.9950 -0.0940  0.3658
  114MOL   H18627532   5.929   4.577   4.448 -0.5247 -1.8300  3.1624
  114MOL   H18727533   5.780   4.493   4.480 -2.8158 -1.0081 -2.4969
  114MOL   H18827534   5.800   4.771   4.392  1.3975 -1.2761 -1.2248
  114MOL   H18927535   5.819   4.865   4.600  2.0062 -0.9180 -2.0914
  114MOL   H19027536   5.931   4.755   4.620 -0.8874 -0.4099  1.7048
  114MOL   H19127537   5.768   4.756   4.815 -1.6555  0.9914 -0.1956
  114MOL   H19227538   5.641   4.711   4.714 -0.9160  1.2654  1.1619
  114MOL   H19327539   5.778   4.593   4.740 -1.3996 -0.3475 -0.5396
  114MOL   C19427540   5.603   4.715   4.462 -0.6044 -0.5485  0.3751
  114MOL   C19527541   5.517   4.845   4.493  0.6771  0.8570 -0.6474
  114MOL   C19627542   5.364   4.819   4.488 -0.1514  0.3125  0.8655
  114MOL   C19727543   5.315   4.721   4.595 -0.2828  0.6926 -0.3737
  114MOL   H19827544   5.571   4.634   4.528 -0.7824  1.3718  2.7403
  114MOL   H19927545   5.561   4.683   4.367  1.6216  1.5552 -1.3456
  114MOL   H20027546   5.541   4.875   4.595  0.1334  1.5644 -0.7240
  114MOL   H20127547   5.331   4.788   4.388 -1.9625 -0.1799  1.6016
  114MOL   H20227548   5.304   4.910   4.492  1.5005  1.4114  0.7898
  114MOL   H20327549   5.315   4.615   4.569 -1.6183  0.8174 -0.9214
  114MOL   H20427550   5.373   4.736   4.686 -0.2020 -0.0605 -0.2993
  114MOL   H20527551   5.216   4.754   4.627  0.1041  1.0801  0.4279
  114MOL   C20627552   5.546   4.952   4.382 -0.1330  0.6922 -0.0009
  114MOL   C20727553   5.647   5.065   4.422  0.3402 -0.2896  0.3791
  114MOL   C20827554   5.592   5.156   4.535 -0.0842  0.9845 -0.2481
  114MOL   C20927555   5.674   5.150   4.664  0.0264 -0.5469 -0.5574
  114MOL   H21027556   5.456   5.002   4.346 -0.1623  0.9576  0.4323
  114MOL   H21127557   5.579   4.903   4.291 -1.5688  1.0943 -0.7650
  114MOL   H21227558   5.737   5.015   4.459 -1.1854 -1.9800  1.9031
  114MOL   H21327559   5.489   5.131   4.563  0.3403  1.4723  1.7992
  114MOL   H21427560   5.581   5.257   4.496 -0.9670 -0.0384 -2.7848
  114MOL   H21527561   5.650   5.225   4.739 -2.5005 -1.7128 -0.1404
  114MOL   H21627562   5.688   5.054   4.714  1.7248  0.4203  0.8693
  114MOL   H21727563   5.776   5.172   4.633  0.8476 -1.4505  1.4348
  114MOL   C21827564   5.690   5.144   4.295 -0.5819 -0.2612  0.3186
  114MOL   C21927565   5.804   5.243   4.310  0.2795  0.2085  0.4664
  114MOL   C22027566   5.823   5.325   4.176  0.1754  0.8214  0.3910
  114MOL   C22127567   5.771   5.469   4.188  0.3162  0.3917  0.5421
  114MOL   H22227568   5.606   5.192   4.245 -0.3446  0.0888  0.2512
  114MOL   H22327569   5.722   5.077   4.215 -2.5047  1.2370 -1.7823
  114MOL   H22427570   5.780   5.307   4.395 -1.3282  1.8826 -1.1974
  114MOL   H22527571   5.773   5.270   4.096 -0.5348  0.5068  1.0506
  114MOL   H22627572   5.928   5.314   4.150  0.4420  1.0223  1.3690
  114MOL   H22727573   5.773   5.511   4.087 -0.1491  0.7667  0.6854
  114MOL   H22827574   5.667   5.477   4.220 -0.5645  1.2043 -2.3528
  114MOL   H22927575   5.839   5.533   4.244  0.4251  0.8256 -0.0821
  114MOL   C23027576   5.933   5.163   4.356 -0.4551 -0.7948  0.3290
  114MOL   C23127577   5.999   5.069   4.262  0.7112 -0.0642 -0.0366
  114MOL   C23227578   6.147   5.032   4.301  0.6385 -0.6818  0.3738
  114MOL   C23327579   6.164   4.986   4.448  0.2478  0.1648  0.4230
  114MOL   H23427580   5.916   5.127   4.458  0.0933  1.6228  1.3259
  114MOL   H23527581   6.007   5.243   4.363 -0.9722  0.0701 -3.2258
  114MOL   H23627582   5.949   4.972   4.262 -0.8595  0.7232 -0.0669
  114MOL   H23727583   6.215   5.115   4.279 -1.2369  0.6561 -0.5579
  114MOL   H23827584   6.166   4.943   4.241  2.7781  1.1661 -1.8479
  114MOL   H23927585   6.263   4.942   4.453 -1.0153 -2.7725  0.2756
  114MOL   H24027586   6.170   5.071   4.516  0.6389  0.4914 -0.0139
  114MOL   H24127587   6.092   4.910   4.477 -0.3825  0.1319 -1.1902
  114MOL   H24227588   5.996   5.109   4.160 -3.0347 -1.0096 -0.3887
  115MOL     C127589   5.570   7.565   7.066  0.6469  0.0979  0.8424
  115MOL     C227590   5.528   7.451   7.165  0.0130  0.4262  0.0906
  115MOL     C327591   5.537   7.508   7.315  0.8715 -0.3739 -0.3664
  115MOL     C427592   5.461   7.637   7.350 -0.6232 -0.6779 -0.0014
  115MOL     H527593   5.512   7.656   7.083  1.3485  0.8545 -0.6927
  115MOL     H627594   5.671   7.604   7.075  0.0613  2.0018 -0.4269
  115MOL     H727595   5.425   7.437   7.131  0.9640 -0.3960 -2.5756
  115MOL     H827596   5.643   7.520   7.340  0.9380  1.1699 -1.2765
  115MOL     H927597   5.497   7.424   7.371  0.9089  0.2629  0.6237
  115MOL    H1027598   5.360   7.628   7.311 -0.3604 -3.3769 -0.1350
  115MOL    H1127599   5.465   7.654   7.458  1.5509 -0.4815 -0.0864
  115MOL    H1227600   5.509   0.022   7.313 -1.6921  0.2348  0.8276
  115MOL    H1327601   5.544   7.528   6.967  3.4925  1.9429 -0.6517
  115MOL    C1427602   5.615   7.323   7.140  0.5689 -0.4037  0.3017
  115MOL    C1527603   5.594   7.209   7.244 -0.1476 -0.2167  0.1651
  115MOL    C1627604   5.678   7.088   7.196  0.2753  0.4183  0.4271
  115MOL    C1727605   5.827   7.103   7.231  0.6837 -0.1848  0.0747
  115MOL    H1827606   5.717   7.360   7.134  0.8965 -1.1081  1.3874
  115MOL    H1927607   5.585   7.287   7.041  0.9326 -3.0623  1.1272
  115MOL    H2027608   5.636   7.243   7.339  1.5118  0.7437 -0.8966
  115MOL    H2127609   5.660   7.080   7.089 -1.9003  2.1575  0.6330
  115MOL    H2227610   5.636   7.000   7.245  0.3570  0.2715  0.2335
  115MOL    H2327611   5.828   7.075   7.336 -0.9258 -1.4982 -0.2288
  115MOL    H2427612   5.884   7.030   7.173  0.5632  1.0917 -1.6884
  115MOL    H2527613   5.864   7.204   7.214  1.3316 -0.2909  0.8339
  115MOL    C2627614   5.449   7.163   7.262  0.2511  0.4010  0.4234
  115MOL    C2727615   5.406   7.125   7.407  0.3551 -0.1439 -0.1159
  115MOL    C2827616   5.477   7.000   7.461  0.4771 -0.5909  0.3524
  115MOL    C2927617   5.426   6.872   7.395  0.1309  0.2805 -0.0553
  115MOL    H3027618   5.432   7.079   7.195 -2.1538 -0.0599  1.5546
  115MOL    H3127619   5.377   7.235   7.222  1.6035  0.5251 -1.8547
  115MOL    H3227620   5.443   7.214   7.456 -0.2311  1.6236 -2.7684
  115MOL    H3327621   5.466   6.990   7.569  1.2477 -3.4346  0.1965
  115MOL    H3427622   5.584   7.013   7.449  0.8163 -0.1965  3.4363
  115MOL    H3527623   5.488   6.793   7.438  1.3242  0.9399 -0.5472
  115MOL    H3627624   5.321   6.846   7.411 -0.3862  2.4476  0.2544
  115MOL    H3727625   5.448   6.875   7.288  0.0198 -0.0067 -0.0861
  115MOL    C3827626   5.255   7.105   7.429 -0.1258 -0.4974  0.3975
  115MOL    C3927627   5.179   7.236   7.463 -0.6318  0.0979  0.0611
  115MOL    C4027628   5.227   7.304   7.595 -0.4294 -0.9989 -0.0561
  115MOL    C4127629   5.182   7.446   7.624  0.0522  0.0351 -0.4246
  115MOL    H4227630   5.233   7.042   7.516 -0.0211  1.8786  2.1891
  115MOL    H4327631   5.221   7.059   7.336 -1.8685 -1.7243  1.6079
  115MOL    H4427632   5.204   7.303   7.381 -1.6294  0.9408  0.4443
  115MOL    H4527633   5.335   7.304   7.607 -0.3107  3.3787 -0.1522
  115MOL    H4627634   5.200   7.233   7.674 -0.3321 -1.3538 -0.3444
  115MOL    H4727635   5.239   7.486   0.002  0.9709 -1.9741 -0.0593
  115MOL    H4827636   5.194   7.512   7.539  0.3342  0.8920  0.2757
  115MOL    H4927637   5.086   7.439   7.676  0.2862  1.3559  0.1765
  115MOL    C5027638   5.029   7.220   7.469  0.3897  0.6806  0.1399
  115MOL    C5127639   4.960   7.172   7.339 -0.4815  0.3265 -0.6151
  115MOL    C5227640   4.953   7.291   7.245  0.1019  0.2591  1.2194
  115MOL    C5327641   4.907   7.254   7.106 -0.0318  0.0187 -0.0091
  115MOL    H5427642   4.986   7.312   7.509  0.6362  0.6848  0.4006
  115MOL    H5527643   5.017   7.139   7.540  0.5575  0.9311  0.4564
  115MOL    H5627644   5.029   7.101   7.293 -0.6303 -0.5887  0.5484
  115MOL    H5727645   5.052   7.333   7.226 -1.3220  2.9344 -0.6592
  115MOL    H5827646   4.897   7.371   7.293 -0.7680  1.3650 -1.5567
  115MOL    H5927647   4.881   7.342   7.047 -0.2322  0.5966  0.9457
  115MOL    H6027648   4.981   7.196   7.050  2.1131  1.7834  0.9331
  115MOL    H6127649   4.806   7.213   7.106 -1.3876  3.1322 -1.9153
  115MOL    C6227650   4.827   7.091   7.354  0.5281  0.4827 -0.7472
  115MOL    C6327651   4.819   6.961   7.269 -0.0619 -0.4002  0.5822
  115MOL    C6427652   4.672   6.930   7.232 -0.4941  0.1350  0.0892
  115MOL    C6527653   4.599   6.847   7.338  0.1833  0.4133  0.0359
  115MOL    H6627654   4.751   7.167   7.334  0.6420  1.7300  3.0529
  115MOL    H6727655   4.810   7.075   7.461  1.9121 -1.9422 -0.8551
  115MOL    H6827656   4.866   6.993   7.176 -0.5410  1.5785  0.9946
  115MOL    H6927657   4.675   6.873   7.139 -0.3365 -1.6013  1.1393
  115MOL    H7027658   4.629   7.027   7.206 -1.9717 -0.3595  0.6637
  115MOL    H7127659   4.607   6.881   7.441 -0.9631  0.0799  0.2500
  115MOL    H7227660   4.492   6.832   7.320  0.4519 -0.0399 -1.2162
  115MOL    H7327661   4.647   6.750   7.345  0.9048  0.8976  2.0995
  115MOL    C7427662   4.903   6.848   7.332  0.0341 -0.5132 -0.9066
  115MOL    C7527663   4.955   6.753   7.224  0.7412 -0.3079 -0.7270
  115MOL    C7627664   4.971   6.608   7.289 -0.5081 -0.0432  0.1539
  115MOL    C7727665   5.001   6.489   7.203 -0.8862  0.6239  0.3154
  115MOL    H7827666   4.844   6.814   7.417  1.8060  1.7646  1.3151
  115MOL    H7927667   4.990   6.876   7.391 -3.3183  1.3638  3.4411
  115MOL    H8027668   4.879   6.738   7.148  0.7484  0.9611 -0.9902
  115MOL    H8127669   4.869   6.585   7.319 -0.7840  1.1785  0.1794
  115MOL    H8227670   5.033   6.610   7.378 -0.1977 -0.7486 -0.0405
  115MOL    H8327671   4.939   6.479   7.114  0.2284  2.2338 -0.6735
  115MOL    H8427672   5.105   6.470   7.176 -0.8300 -1.7014  2.0397
  115MOL    H8527673   4.971   6.400   7.258  1.4749 -0.7808 -0.5844
  115MOL    C8627674   5.087   6.799   7.164  0.4700 -1.0706 -0.7194
  115MOL    C8727675   5.122   6.778   7.011  0.1854 -0.7315 -0.1783
  115MOL    C8827676   5.278   6.771   6.993  0.2633  0.2003  0.2741
  115MOL    C8927677   5.344   6.650   7.066 -0.4460  0.1451 -0.1977
  115MOL    H9027678   5.162   6.749   7.226  0.8166 -1.5879 -1.5409
  115MOL    H9127679   5.108   6.904   7.184 -0.2317 -1.2434  1.0444
  115MOL    H9227680   5.092   6.679   6.976 -2.0462 -0.1052 -0.1196
  115MOL    H9327681   5.316   6.866   7.028 -1.4902  0.4151  1.6887
  115MOL    H9427682   5.300   6.773   6.886 -1.7201  2.0302 -0.1346
  115MOL    H9527683   5.450   6.626   7.060 -0.6439 -0.7614 -0.1858
  115MOL    H9627684   5.345   6.667   7.174 -0.9062 -3.1449  0.3573
  115MOL    H9727685   5.292   6.557   7.044 -1.7243  1.2972 -2.2051
  115MOL    C9827686   5.051   6.888   6.924  0.7084 -0.2784  0.1673
  115MOL    C9927687   4.899   6.875   6.888 -0.1862  0.4733 -1.0956
  115MOL   C10027688   4.845   6.732   6.856 -0.6249  0.4050  0.6697
  115MOL   C10127689   4.907   6.672   6.723 -0.7707  0.0214 -0.6148
  115MOL   H10227690   5.101   6.896   6.827  0.5391 -1.2028 -0.0016
  115MOL   H10327691   5.062   6.986   6.972 -0.6737 -1.0677  2.1397
  115MOL   H10427692   4.854   6.901   6.984 -0.1323 -0.1098 -0.9084
  115MOL   H10527693   4.737   6.745   6.849 -0.4505  2.4469  1.5173
  115MOL   H10627694   4.872   6.663   6.935  0.3577 -1.0550 -0.9159
  115MOL   H10727695   4.863   6.573   6.708  0.6653 -0.4934 -1.4845
  115MOL   H10827696   4.874   6.723   6.632 -1.7262  0.9219  0.2265
  115MOL   H10927697   5.016   6.668   6.719 -0.7886 -0.3249 -0.8189
  115MOL   C11027698   4.859   6.992   6.792 -0.2117  0.0368  0.0112
  115MOL   C11127699   4.712   6.989   6.730 -0.1363 -0.2725 -0.1569
  115MOL   C11227700   4.689   7.109   6.633  1.1167 -0.4368 -0.0217
  115MOL   C11327701   4.671   7.075   6.487  0.3002 -0.6486  0.2058
  115MOL   H11427702   4.933   7.004   6.714  0.4691 -0.4117  0.5896
  115MOL   H11527703   4.877   7.088   6.842  1.4184 -1.7880  3.1044
  115MOL   H11627704   4.704   6.899   6.670  1.7751 -1.2631  1.0353
  115MOL   H11727705   4.769   7.183   6.643  1.5595 -0.9935  0.5799
  115MOL   H11827706   4.603   7.171   6.660  0.5581 -1.1045 -0.2649
  115MOL   H11927707   4.761   7.042   6.435 -0.4578 -1.1976 -0.7709
  115MOL   H12027708   4.596   6.998   6.471 -0.0095 -0.9511  2.8699
  115MOL   H12127709   4.634   7.156   6.425  0.2385 -0.1407  0.9086
  115MOL   C12227710   4.599   6.988   6.836 -0.0498 -1.2701 -0.5494
  115MOL   C12327711   4.450   6.966   6.800 -0.1013 -0.6440  0.0814
  115MOL   C12427712   4.357   6.951   6.921  0.3885  0.1016 -0.1128
  115MOL   C12527713   4.361   6.813   6.996  0.3418 -0.4544  0.0399
  115MOL   H12627714   4.599   7.082   6.891 -0.6956 -0.0238 -2.6001
  115MOL   H12727715   4.625   6.930   6.924  2.1888  2.4405  1.3230
  115MOL   H12827716   4.403   7.050   6.748  0.4177  0.9848  2.1894
  115MOL   H12927717   4.252   6.978   6.904  0.6324  0.8078 -0.5181
  115MOL   H13027718   4.405   7.023   6.987  0.3307  0.5441 -0.5528
  115MOL   H13127719   4.314   6.737   6.934 -1.2689 -0.1871  0.8782
  115MOL   H13227720   4.464   6.786   7.019  0.4837  1.5762  1.9887
  115MOL   H13327721   4.311   6.809   7.093  0.3718 -2.6212 -0.0036
  115MOL   C13427722   4.430   6.843   6.706 -0.0459 -0.8360  0.1498
  115MOL   C13527723   4.284   6.816   6.663 -0.8346 -0.9726  0.5428
  115MOL   C13627724   4.282   6.667   6.617 -0.3252 -0.1089  0.0300
  115MOL   C13727725   4.277   6.560   6.723 -0.1803 -0.4550 -0.0148
  115MOL   H13827726   4.479   6.762   6.761 -1.1105 -1.2905  0.4361
  115MOL   H13927727   4.496   6.866   6.622 -0.9193  1.5861  0.0844
  115MOL   H14027728   4.213   6.828   6.745 -0.9603 -1.3399  0.4904
  115MOL   H14127729   4.367   6.652   6.551 -1.3567  1.8112 -1.8313
  115MOL   H14227730   4.194   6.659   6.553  0.4011 -1.7263 -0.8004
  115MOL   H14327731   4.354   6.565   6.800 -0.2253  0.4988 -0.0298
  115MOL   H14427732   4.184   6.577   6.778  1.0508 -1.2224  2.4123
  115MOL   H14527733   4.283   6.464   6.671 -1.5571  0.0509 -1.1490
  115MOL   C14627734   4.246   6.907   6.548 -0.0584  0.2182 -0.2417
  115MOL   C14727735   4.089   6.907   6.522  0.0198  0.0928 -0.2203
  115MOL   C14827736   4.066   6.833   6.387 -0.0790  0.2292 -0.0087
  115MOL   C14927737   4.093   6.921   6.263 -0.0826  0.6593  0.0809
  115MOL   H15027738   4.302   6.878   6.459  0.6768 -0.2521  0.3704
  115MOL   H15127739   4.277   7.008   6.573  0.2086 -0.3204  1.6976
  115MOL   H15227740   4.053   6.853   6.610  3.4904 -1.2202  0.4746
  115MOL   H15327741   3.965   6.793   6.398 -0.0958  0.3593  0.3373
  115MOL   H15427742   4.129   6.744   6.374 -2.0545 -1.0853 -0.8839
  115MOL   H15527743   4.012   6.992   6.252 -1.5182 -0.9260  0.2528
  115MOL   H15627744   4.192   6.967   6.266 -1.5531  3.8832  2.9676
  115MOL   H15727745   4.084   6.868   6.169  1.4705 -0.9584  0.8093
  115MOL   C15827746   4.027   7.047   6.521 -0.2048  0.7808  0.1032
  115MOL   C15927747   4.029   7.128   6.652 -0.6430 -0.4189 -0.5148
  115MOL   C16027748   3.909   7.083   6.732  0.0779 -0.1630 -0.2458
  115MOL   C16127749   3.890   7.153   6.871 -0.1447  0.3743 -0.0595
  115MOL   H16227750   3.927   7.040   6.479  0.0694  0.5503 -0.5104
  115MOL   H16327751   4.087   7.104   6.450 -3.1088  2.6181 -0.9645
  115MOL   H16427752   4.114   7.110   6.718  0.3272  1.6058 -1.1860
  115MOL   H16527753   3.910   6.975   6.748 -0.1719 -0.2149 -0.5784
  115MOL   H16627754   3.826   7.102   6.665  1.5049  2.2687 -1.3857
  115MOL   H16727755   3.873   7.260   6.866 -1.4928  0.1918  0.2386
  115MOL   H16827756   3.806   7.108   6.923  0.4615  0.2447  0.8075
  115MOL   H16927757   3.966   7.137   6.946  0.7168  1.2459 -0.7354
  115MOL   C17027758   4.023   7.284   6.629 -0.3389 -0.6092  0.2158
  115MOL   C17127759   4.167   7.343   6.601  0.0507 -0.2338 -0.1438
  115MOL   C17227760   4.225   7.416   6.727 -0.6183 -0.0293 -0.0780
  115MOL   C17327761   4.281   7.326   6.842  0.0672  0.1111  0.0708
  115MOL   H17427762   3.992   7.343   6.715  1.1212 -2.2329  1.8934
  115MOL   H17527763   3.963   7.302   6.540  0.1550  1.0396  0.1933
  115MOL   H17627764   4.238   7.265   6.572 -1.4854 -1.4821 -0.5914
  115MOL   H17727765   4.154   7.477   6.783  0.6593 -1.0366  2.7138
  115MOL   H17827766   4.313   7.474   6.697  0.0561 -0.1884  1.5418
  115MOL   H17927767   4.303   7.392   6.926 -3.8222  1.1370  0.3833
  115MOL   H18027768   4.209   7.256   6.884  1.0480  0.2930  2.1421
  115MOL   H18127769   4.367   7.267   6.809 -0.4444 -0.6630  0.1073
  115MOL   C18227770   4.161   7.431   6.463 -0.3959  0.3499  0.3272
  115MOL   C18327771   4.152   7.366   6.321  0.5085 -0.0222 -0.4353
  115MOL   C18427772   4.285   7.347   6.256  0.9518  0.1768 -0.2334
  115MOL   C18527773   4.364   7.225   6.297  0.4298  0.2156  0.0288
  115MOL   H18627774   4.245   7.501   6.468 -0.5925  0.7136 -1.3806
  115MOL   H18727775   4.069   7.489   6.468 -1.4761 -1.2932 -0.3104
  115MOL   H18827776   4.117   7.263   6.328  0.8839 -0.1627 -0.6329
  115MOL   H18927777   4.344   7.435   6.281  1.4448 -0.2590  0.1288
  115MOL   H19027778   4.277   7.342   6.147 -2.2424  0.0079 -0.0404
  115MOL   H19127779   4.454   7.237   6.236 -0.1605 -2.4059 -1.4140
  115MOL   H19227780   4.385   7.225   6.404 -0.1438 -3.2862  0.1772
  115MOL   H19327781   4.312   7.133   6.270  1.1096 -0.0561 -0.3569
  115MOL   C19427782   4.063   7.444   6.222 -0.1092 -0.4020 -0.3386
  115MOL   C19527783   3.906   7.423   6.251 -0.5161  0.7555 -0.1153
  115MOL   C19627784   3.849   7.344   6.131  0.5203  0.3391 -0.4868
  115MOL   C19727785   3.897   7.193   6.121  0.1134  0.3148 -0.1173
  115MOL   H19827786   4.075   7.417   6.117  0.1830 -0.4391 -0.2941
  115MOL   H19927787   4.092   7.548   6.236  3.2976 -1.1917 -1.2176
  115MOL   H20027788   3.887   7.374   6.347  1.8577  0.6622  0.3302
  115MOL   H20127789   3.860   7.391   6.033  0.0020  3.2733  0.8226
  115MOL   H20227790   3.740   7.344   6.139  0.6679  1.5995  1.9726
  115MOL   H20327791   3.857   7.128   6.198 -0.3623 -0.1567 -0.7523
  115MOL   H20427792   3.871   7.152   6.023 -2.1032  0.0334  0.5619
  115MOL   H20527793   4.005   7.178   6.119  0.0221 -0.3532 -0.2596
  115MOL   C20627794   3.824   7.554   6.275  0.0567  0.4315 -0.0100
  115MOL   C20727795   3.672   7.544   6.319  0.9371  0.0758  0.3620
  115MOL   C20827796   3.597   7.675   6.293  0.2523 -0.4176 -0.1601
  115MOL   C20927797   3.648   0.081   6.389 -0.5864  0.3391  0.3174
  115MOL   H21027798   3.822   7.596   6.174  2.5229 -0.5071 -0.4846
  115MOL   H21127799   3.874   7.624   6.341  0.4785  0.9818 -0.9005
  115MOL   H21227800   3.628   7.477   6.245 -0.3619  0.4264  0.8037
  115MOL   H21327801   3.495   7.662   6.330  1.1901  0.3430  2.8872
  115MOL   H21427802   3.593   7.700   6.188  1.0589 -0.1199 -0.1179
  115MOL   H21527803   3.756   0.091   6.379 -0.7389  0.8419 -0.9891
  115MOL   H21627804   3.588   0.171   6.375 -1.3024 -0.1738 -0.0083
  115MOL   H21727805   3.634   0.053   6.493 -1.8903  2.1912  0.6759
  115MOL   C21827806   3.647   7.472   6.454  0.0372 -1.0259 -0.0584
  115MOL   C21927807   3.507   7.470   6.520  0.6320 -0.1904 -0.2192
  115MOL   C22027808   3.507   7.419   6.669 -0.2879  0.7599  0.2826
  115MOL   C22127809   3.578   7.518   6.762 -0.1729 -0.3491 -0.8204
  115MOL   H22227810   3.706   7.522   6.531 -1.7099  2.1416 -0.6875
  115MOL   H22327811   3.680   7.369   6.447 -1.6034 -1.5806  0.0363
  115MOL   H22427812   3.479   7.574   6.537  0.0550 -0.5340  0.9447
  115MOL   H22527813   3.561   7.324   6.672 -0.4178  0.6359 -1.1656
  115MOL   H22627814   3.410   7.410   6.718  0.8602  0.9914  2.6427
  115MOL   H22727815   3.580   7.617   6.717 -0.3740 -0.0748 -0.2345
  115MOL   H22827816   3.529   7.523   6.859  0.6165 -1.0425 -0.3780
  115MOL   H22927817   3.684   7.497   6.778 -0.5903 -2.6607 -0.9637
  115MOL   C23027818   3.404   7.401   6.425 -0.2435  0.3085 -0.8431
  115MOL   C23127819   3.261   7.448   6.452  0.5001 -1.0646 -0.5906
  115MOL   C23227820   3.158   7.363   6.372 -0.6436  0.6181  0.6665
  115MOL   C23327821   3.020   7.431   6.387 -0.0686  0.3818  0.0822
  115MOL   H23427822   3.420   7.297   6.453 -0.3732  0.8403  1.2927
  115MOL   H23527823   3.440   7.405   6.322  1.0358 -3.3218 -0.6243
  115MOL   H23627824   3.251   7.454   6.561  0.8573  1.3270 -0.6721
  115MOL   H23727825   3.158   7.266   6.422  0.2072 -0.0489 -0.5857
  115MOL   H23827826   3.186   7.331   6.271  1.1048 -0.6341  1.5292
  115MOL   H23927827   2.948   7.409   6.308 -0.9069 -1.9212  1.4539
  115MOL   H24027828   2.988   7.380   6.477 -1.1867 -0.0291 -0.5426
  115MOL   H24127829   3.028   7.539   6.399  0.8126  0.1095  2.2214
  115MOL   H24227830   3.254   7.547   6.409  1.5449 -0.9712 -0.5454
  116MOL     C127831   1.566   5.080   1.046 -0.0871  0.1377  0.8720
  116MOL     C227832   1.634   5.002   1.153  0.0773  0.6744 -0.0649
  116MOL     C327833   1.562   4.859   1.163 -0.2097  0.4130  0.2949
  116MOL     C427834   1.638   4.768   1.069  0.6011 -0.5686 -0.5644
  116MOL     H527835   1.609   5.180   1.049  0.1014  0.0989 -0.3431
  116MOL     H627836   1.585   5.039   0.947 -2.1370 -0.1850  0.5968
  116MOL     H727837   1.739   4.978   1.140 -0.1295 -0.1563 -0.2495
  116MOL     H827838   1.459   4.869   1.131  0.1899  2.1968 -0.4956
  116MOL     H927839   1.563   4.823   1.266 -0.3395  0.7259  0.4066
  116MOL    H1027840   1.646   4.803   0.966 -0.4087  0.5630 -0.2790
  116MOL    H1127841   1.739   4.755   1.108  1.1489  1.4675 -1.2172
  116MOL    H1227842   1.619   4.661   1.080  0.0754 -0.3990  0.2245
  116MOL    H1327843   1.462   5.098   1.072 -0.6567  1.9797 -2.4520
  116MOL    C1427844   1.635   5.070   1.287 -0.0923 -0.1812  0.2063
  116MOL    C1527845   1.496   5.089   1.361 -0.2636 -0.2267 -0.1589
  116MOL    C1627846   1.444   5.236   1.344 -0.4034  0.4641  0.3832
  116MOL    C1727847   1.519   5.351   1.414  0.7402 -0.5611 -0.1122
  116MOL    H1827848   1.689   5.165   1.290 -0.4869  0.0122  1.2593
  116MOL    H1927849   1.704   5.010   1.346 -0.9062  0.0072  1.3430
  116MOL    H2027850   1.433   5.027   1.298 -1.0575  2.3018 -1.9372
  116MOL    H2127851   1.340   5.238   1.375 -0.9670 -2.7622 -1.1244
  116MOL    H2227852   1.448   5.249   1.236  0.4446  1.0331  0.4752
  116MOL    H2327853   1.490   5.452   1.385  1.1284 -1.1959 -2.8826
  116MOL    H2427854   1.509   5.360   1.522  1.6707 -0.0075 -0.0653
  116MOL    H2527855   1.625   5.342   1.389  0.2061 -0.2852 -2.6602
  116MOL    C2627856   1.492   5.034   1.511  0.3376 -0.6381 -0.1474
  116MOL    C2727857   1.359   5.022   1.583 -0.4127 -0.1439  0.7026
  116MOL    C2827858   1.369   4.985   1.732 -0.3697  0.0075  1.0020
  116MOL    C2927859   1.415   4.846   1.760  0.3564  0.0139  0.1570
  116MOL    H3027860   1.555   5.092   1.578  0.1619 -0.1507 -0.4078
  116MOL    H3127861   1.560   4.949   1.508  1.1766 -0.0870  2.4197
  116MOL    H3227862   1.321   5.124   1.584 -0.6203 -0.2010 -0.9555
  116MOL    H3327863   1.268   4.999   1.769 -0.3490  0.8802  0.7262
  116MOL    H3427864   1.439   5.054   1.779  1.1340  0.4975 -1.8548
  116MOL    H3527865   1.381   4.808   1.856  0.0046 -1.6872 -0.6088
  116MOL    H3627866   1.384   4.772   1.686  0.6945 -0.7239  0.7533
  116MOL    H3727867   1.524   4.847   1.764  0.4761 -0.5598 -2.0486
  116MOL    C3827868   1.256   4.927   1.505  0.0590  0.5654  0.4607
  116MOL    C3927869   1.156   4.986   1.401  0.2987 -0.3567 -0.0730
  116MOL    C4027870   1.056   5.077   1.465  0.1989  0.4808  0.0047
  116MOL    C4127871   0.971   5.154   1.365 -0.3587 -0.0886  0.9113
  116MOL    H4227872   1.202   4.878   1.585  0.2223  1.5885  1.2052
  116MOL    H4327873   1.312   4.837   1.478  1.1459  0.7742  1.9491
  116MOL    H4427874   1.221   5.037   1.329  1.6214 -0.8001  0.7897
  116MOL    H4527875   1.113   5.136   1.537  2.8105 -0.4713 -1.1877
  116MOL    H4627876   0.997   5.007   1.525  0.2056 -0.1104 -0.6637
  116MOL    H4727877   1.036   5.212   1.299 -3.1970  2.3488  0.1709
  116MOL    H4827878   0.897   5.085   1.325  0.3855 -0.5809  0.3752
  116MOL    H4927879   0.907   5.223   1.420 -1.6486 -0.5829  0.0406
  116MOL    C5027880   1.095   4.863   1.339 -0.4215 -0.0546  0.1551
  116MOL    C5127881   1.146   4.812   1.203  0.0967 -0.4853 -0.3091
  116MOL    C5227882   1.119   4.902   1.082 -0.1267  0.4936  0.0524
  116MOL    C5327883   1.192   4.866   0.962 -0.4246 -0.4537  0.7902
  116MOL    H5427884   0.992   4.886   1.311 -0.1660 -1.5456 -2.1474
  116MOL    H5527885   1.088   4.775   1.403  1.9680 -1.5909 -1.6384
  116MOL    H5627886   1.254   4.828   1.210 -0.2374  2.0611 -0.3624
  116MOL    H5727887   1.156   5.002   1.104 -1.2146  0.9470 -0.1702
  116MOL    H5827888   1.013   4.906   1.058  0.2573  0.2206 -1.7404
  116MOL    H5927889   1.147   4.786   0.904 -3.1508  1.8045 -0.3355
  116MOL    H6027890   1.200   4.951   0.894  1.2377 -1.2786 -0.0859
  116MOL    H6127891   1.295   4.837   0.981  0.7739  1.4203 -2.4250
  116MOL    C6227892   1.102   4.665   1.170  0.0759  0.6352  0.1066
  116MOL    C6327893   1.133   4.557   1.277  0.4117 -0.0525 -0.1968
  116MOL    C6427894   1.276   4.551   1.316 -0.8307 -0.0828 -0.4519
  116MOL    C6527895   1.374   4.522   1.195  0.1361 -0.5702 -0.1994
  116MOL    H6627896   1.152   4.639   1.076  0.4437  0.1431  0.4391
  116MOL    H6727897   0.997   4.659   1.143 -0.2705  2.1383  1.0478
  116MOL    H6827898   1.082   4.570   1.372  2.4318  0.9194  0.7812
  116MOL    H6927899   1.301   4.485   1.399  2.1942  0.4505 -0.8728
  116MOL    H7027900   1.310   4.651   1.343 -1.6852  0.5249 -1.6036
  116MOL    H7127901   1.364   4.594   1.114  1.0490 -0.7608 -0.4789
  116MOL    H7227902   1.479   4.523   1.222  0.0211 -1.4231  0.2982
  116MOL    H7327903   1.352   4.424   1.153 -0.1375  0.8631 -3.5796
  116MOL    C7427904   1.061   4.421   1.238 -0.8303 -0.7587  0.2111
  116MOL    C7527905   1.108   4.290   1.307  0.5589  0.7867 -0.4931
  116MOL    C7627906   1.016   4.172   1.245  0.6414  0.4624 -0.0628
  116MOL    C7727907   1.051   4.128   1.103 -0.1295  0.1682  0.0431
  116MOL    H7827908   1.075   4.405   1.131  0.0427 -0.4732  0.2779
  116MOL    H7927909   0.953   4.427   1.252 -0.9802 -0.7147 -0.9099
  116MOL    H8027910   1.214   4.267   1.291 -0.9908 -4.6441 -4.0453
  116MOL    H8127911   0.911   4.199   1.253  0.3973  0.2612 -2.0838
  116MOL    H8227912   1.029   4.081   1.304 -2.6314  0.2122  0.3793
  116MOL    H8327913   0.971   4.077   1.050 -0.8139  3.6341 -2.4358
  116MOL    H8427914   1.081   4.210   1.038 -0.1282 -0.1927 -0.4136
  116MOL    H8527915   1.135   4.058   1.108  0.9294  1.4792  1.1341
  116MOL    C8627916   1.091   4.301   1.460 -0.6081 -0.6376 -0.6174
  116MOL    C8727917   1.184   4.222   1.560 -0.3890 -0.4515  0.2816
  116MOL    C8827918   1.154   4.073   1.548  0.5930  0.5362 -0.4900
  116MOL    C8927919   1.229   3.981   1.646 -0.3832 -0.2790  0.4938
  116MOL    H9027920   0.988   4.280   1.488 -0.3718  0.0344  0.8361
  116MOL    H9127921   1.105   4.402   1.498  0.0884 -1.2341  0.7410
  116MOL    H9227922   1.289   4.235   1.534 -0.1682 -2.5121  0.0798
  116MOL    H9327923   1.174   4.042   1.445  0.4273  0.5471 -0.5263
  116MOL    H9427924   1.047   4.056   1.564  0.7123  0.5854  0.3968
  116MOL    H9527925   1.338   3.987   1.640 -0.3763 -1.3284 -0.8285
  116MOL    H9627926   1.207   3.999   1.751 -2.6841 -3.0948  0.5484
  116MOL    H9727927   1.190   3.880   1.637 -1.4732 -0.0252  2.2176
  116MOL    C9827928   1.184   4.279   1.710 -0.1115  0.3101  0.1363
  116MOL    C9927929   1.258   4.412   1.735  0.1407 -0.3962  0.3147
  116MOL   C10027930   1.407   4.383   1.765 -0.0670 -0.0650  0.0382
  116MOL   C10127931   1.499   4.505   1.759 -0.1737 -0.2532 -0.3977
  116MOL   H10227932   1.239   4.215   1.780 -0.0409 -2.6526 -2.5263
  116MOL   H10327933   1.086   4.279   1.758 -0.8865  1.8765 -1.4199
  116MOL   H10427934   1.257   4.469   1.642  0.1269 -2.5297 -1.0396
  116MOL   H10527935   1.450   4.301   1.708  0.4956  0.7703 -0.7435
  116MOL   H10627936   1.419   4.347   1.868 -0.2786 -2.6448 -0.8064
  116MOL   H10727937   1.597   4.462   1.741 -0.0591 -0.3905  0.5132
  116MOL   H10827938   1.479   4.560   1.667  2.5017  1.8350  0.1927
  116MOL   H10927939   1.491   4.581   1.837  0.6365 -0.8438  0.2622
  116MOL   C11027940   1.179   4.503   1.839 -0.1868 -0.0013 -0.2544
  116MOL   C11127941   1.078   4.597   1.779 -0.1769  0.2347 -0.3822
  116MOL   C11227942   1.064   4.730   1.850  0.6344  0.3748 -1.5691
  116MOL   C11327943   1.023   4.711   1.994  0.1205  0.3148  0.4843
  116MOL   H11427944   1.254   4.563   1.891  2.1629 -1.6738 -1.6313
  116MOL   H11527945   1.131   4.432   1.906 -1.6573 -0.7127 -2.0545
  116MOL   H11627946   1.114   4.631   1.682  1.0826 -1.5481 -0.5622
  116MOL   H11727947   0.988   4.796   1.810  1.3562  1.3551 -1.3327
  116MOL   H11827948   1.156   4.788   1.839  1.2847 -0.1672  0.7744
  116MOL   H11927949   0.926   4.663   2.002 -1.4386  3.2496  0.0866
  116MOL   H12027950   1.095   4.662   2.060  1.6523 -0.0301 -1.4062
  116MOL   H12127951   1.004   4.810   2.037  0.5585  0.7939 -0.4124
  116MOL   C12227952   0.942   4.530   1.751 -0.3648  0.0471  0.1312
  116MOL   C12327953   0.822   4.616   1.710  0.3563  0.3748 -0.3977
  116MOL   C12427954   0.686   4.552   1.727 -0.1771 -0.3010 -0.8788
  116MOL   C12527955   0.662   4.518   1.874  0.3028  0.0737  0.4535
  116MOL   H12627956   0.926   4.482   1.847  0.9428 -1.6662 -0.4759
  116MOL   H12727957   0.942   4.443   1.685  0.7074  0.9016 -1.0248
  116MOL   H12827958   0.815   4.696   1.782 -1.4524  1.5532 -1.8361
  116MOL   H12927959   0.667   4.465   1.665 -1.6044 -0.8897  0.3478
  116MOL   H13027960   0.597   4.612   1.706 -1.2374 -1.3750  0.4450
  116MOL   H13127961   0.558   4.497   1.900  0.1748  0.1596  0.0149
  116MOL   H13227962   0.718   4.430   1.905  3.2922  1.5367 -0.6394
  116MOL   H13327963   0.690   4.606   1.932  0.4960  0.3308 -0.0322
  116MOL   C13427964   0.841   4.688   1.576 -0.9657  0.4858  0.4614
  116MOL   C13527965   0.750   4.810   1.543 -0.1871 -0.4739 -0.1598
  116MOL   C13627966   0.731   4.908   1.669 -0.0571  0.1807 -0.4242
  116MOL   C13727967   0.676   5.047   1.629  0.6917 -0.4054  0.2017
  116MOL   H13827968   0.842   4.623   1.488 -3.0945  1.1015 -0.0209
  116MOL   H13927969   0.940   4.734   1.577 -0.3650 -0.6201 -2.1162
  116MOL   H14027970   0.807   4.859   1.465 -0.9666  3.1858  1.4637
  116MOL   H14127971   0.833   4.920   1.703 -0.6026 -0.1034  1.3685
  116MOL   H14227972   0.670   4.864   1.748 -0.9025  2.5751  0.3262
  116MOL   H14327973   0.748   5.093   1.561  0.4710  1.3608  1.1492
  116MOL   H14427974   0.575   5.042   1.587  1.0016  1.6516 -0.8181
  116MOL   H14527975   0.667   5.111   1.716  1.7491 -0.7606  0.5723
  116MOL   C14627976   0.610   4.760   1.480  0.0217  0.3313  0.4984
  116MOL   C14727977   0.600   4.756   1.326 -0.5967  0.3061 -0.3362
  116MOL   C14827978   0.695   4.653   1.247 -0.9985  0.5008  0.1206
  116MOL   C14927979   0.658   4.504   1.261  0.4209  0.5291 -0.2936
  116MOL   H15027980   0.529   4.826   1.510 -1.0130 -0.7623  0.1753
  116MOL   H15127981   0.579   4.662   1.516  1.9929  0.1072  1.6986
  116MOL   H15227982   0.496   4.725   1.315 -0.2444 -0.8575 -0.4427
  116MOL   H15327983   0.795   4.680   1.279 -0.2946 -0.0463 -1.5602
  116MOL   H15427984   0.682   4.668   1.140  3.5547  0.1318 -0.5765
  116MOL   H15527985   0.711   4.457   1.343 -0.7733 -1.6607 -0.7520
  116MOL   H15627986   0.553   4.491   1.286  0.2361  0.0367 -1.2885
  116MOL   H15727987   0.696   4.447   1.176  1.6596 -0.4502  0.9130
  116MOL   C15827988   0.616   4.902   1.271  0.0016 -0.6005  0.3947
  116MOL   C15927989   0.535   4.948   1.149 -1.0991 -0.0751  0.7232
  116MOL   C16027990   0.591   5.079   1.090 -0.2313  0.0194  0.2239
  116MOL   C16127991   0.595   5.193   1.195 -0.1106 -0.0537 -0.0530
  116MOL   H16227992   0.718   4.913   1.234 -0.9243  2.7017 -1.3881
  116MOL   H16327993   0.608   4.978   1.350 -2.1034 -0.6009  0.2146
  116MOL   H16427994   0.554   4.875   1.070 -0.4201 -0.9958  1.7189
  116MOL   H16527995   0.524   5.101   1.008  1.0310 -1.1700 -1.1468
  116MOL   H16627996   0.690   5.063   1.047 -0.0955  0.1990  0.4681
  116MOL   H16727997   0.499   5.219   1.239 -1.6882 -1.3043 -2.6040
  116MOL   H16827998   0.664   5.178   1.278  1.5594  1.4473 -1.1370
  116MOL   H16927999   0.636   5.280   1.145 -3.0175  1.1587 -0.4321
  116MOL   C17028000   0.387   4.958   1.186 -0.1005 -0.1528 -1.2084
  116MOL   C17128001   0.285   5.010   1.074 -0.0494  0.5399  0.2128
  116MOL   C17228002   0.143   5.041   1.138  0.0087  0.1135  0.1065
  116MOL   C17328003   0.140   5.153   1.240 -0.1671  0.0919  0.2598
  116MOL   H17428004   0.382   5.040   1.257 -0.3929 -1.6980  0.5867
  116MOL   H17528005   0.341   4.871   1.234 -1.8559 -0.3118 -3.0751
  116MOL   H17628006   0.328   5.105   1.044  2.2529 -0.8503 -1.0382
  116MOL   H17728007   0.108   4.949   1.185 -0.9956  0.6172  0.3551
  116MOL   H17828008   0.062   5.058   1.067  0.6938  2.3308 -0.1757
  116MOL   H17928009   0.034   5.170   1.262 -0.4710 -0.8775 -0.4231
  116MOL   H18028010   0.181   5.130   1.338 -1.8977 -0.9708  0.7617
  116MOL   H18128011   0.173   5.248   1.199  0.5145  0.5576  1.8494
  116MOL   C18228012   0.283   4.918   0.954  0.2060  0.0517  0.1640
  116MOL   C18328013   0.312   4.986   0.817 -0.4852 -0.9117 -0.1061
  116MOL   C18428014   0.228   5.112   0.787 -0.3877  0.2705 -0.1564
  116MOL   C18528015   0.307   5.240   0.780 -0.1689 -0.0764 -0.4764
  116MOL   H18628016   0.189   4.866   0.938 -1.0090  2.2018  0.0944
  116MOL   H18728017   0.356   4.837   0.962  1.5236  1.2249  0.3194
  116MOL   H18828018   0.418   5.012   0.810 -0.5863 -0.9395 -1.8442
  116MOL   H18928019   0.139   5.124   0.848  0.2898 -2.2180  1.4120
  116MOL   H19028020   0.193   5.093   0.686 -1.0632  1.0964 -0.0787
  116MOL   H19128021   0.252   5.307   0.714  0.2882  0.0042 -0.7781
  116MOL   H19228022   0.301   5.291   0.876 -0.1198  1.7900 -1.4399
  116MOL   H19328023   0.408   5.234   0.738  0.5252  1.9225  0.8575
  116MOL   C19428024   0.283   4.875   0.705 -0.2425  0.2265 -0.6045
  116MOL   C19528025   0.319   4.893   0.551 -0.0469  0.4951 -0.4128
  116MOL   C19628026   0.261   4.775   0.464 -0.3094 -0.5533  0.0019
  116MOL   C19728027   0.106   4.765   0.469 -0.0716 -0.2846 -0.3360
  116MOL   H19828028   0.176   4.856   0.709 -0.2216 -0.1958 -1.7821
  116MOL   H19928029   0.336   4.785   0.735  1.9853  2.2088  1.6223
  116MOL   H20028030   0.260   4.975   0.508 -0.0019  0.4023 -0.6503
  116MOL   H20128031   0.306   4.683   0.503  0.9028  0.2550  0.5324
  116MOL   H20228032   0.291   4.791   0.361  1.2726  0.0219  0.5305
  116MOL   H20328033   0.061   4.863   0.481 -3.0758 -1.7677  1.1325
  116MOL   H20428034   0.070   4.723   0.376 -0.5292 -0.5239 -0.0524
  116MOL   H20528035   0.074   4.709   0.557  0.7853  1.8525  1.3739
  116MOL   C20628036   0.473   4.910   0.535  0.4275 -0.6327  1.2200
  116MOL   C20728037   0.527   4.940   0.387  0.8828  0.3771 -0.4002
  116MOL   C20828038   0.668   4.884   0.375 -0.6036  0.0558 -0.0369
  116MOL   C20928039   0.715   4.886   0.229 -1.0363  0.6662 -0.0121
  116MOL   H21028040   0.520   4.815   0.561  0.0904 -0.0000  4.3200
  116MOL   H21128041   0.520   4.978   0.606  1.0663 -2.0939  2.2305
  116MOL   H21228042   0.479   4.881   0.309  1.6682  1.1475 -1.4961
  116MOL   H21328043   0.669   4.783   0.416 -1.3691  0.8690  2.0422
  116MOL   H21428044   0.736   4.942   0.438  0.8226 -1.9467  0.3154
  116MOL   H21528045   0.669   4.964   0.169 -0.4304  0.6392 -0.5125
  116MOL   H21628046   0.820   4.911   0.239 -0.8929  0.4871 -1.0412
  116MOL   H21728047   0.710   4.792   0.174 -1.1575  0.9562 -0.4953
  116MOL   C21828048   0.492   5.085   0.338 -0.0129 -0.4331  0.2258
  116MOL   C21928049   0.571   5.194   0.415  0.2089 -0.1810  0.0677
  116MOL   C22028050   0.488   5.320   0.427  0.0230 -0.5588 -0.2916
  116MOL   C22128051   0.559   5.452   0.473  0.4951  0.1365 -0.1373
  116MOL   H22228052   0.387   5.108   0.356 -0.6424 -2.7965 -0.2976
  116MOL   H22328053   0.497   5.087   0.229  1.5678  1.2479  0.2890
  116MOL   H22428054   0.588   5.150   0.514 -0.1101 -0.0039  0.2025
  116MOL   H22528055   0.408   5.297   0.497 -0.5701 -2.4362 -1.5248
  116MOL   H22628056   0.445   5.334   0.328  1.1955  1.7538 -0.4855
  116MOL   H22728057   0.634   5.437   0.551 -2.3224  1.5652  2.9648
  116MOL   H22828058   0.621   5.503   0.398 -0.2885  0.4852 -0.5553
  116MOL   H22928059   0.498   5.530   0.519  0.2601  1.3616 -2.4240
  116MOL   C23028060   0.710   5.223   0.361 -0.8660  0.8762  0.3941
  116MOL   C23128061   0.724   5.281   0.219  0.2203  0.4785  0.2677
  116MOL   C23228062   0.865   5.340   0.181 -0.2903  0.6712  0.5759
  116MOL   C23328063   0.893   5.370   0.031 -0.4258 -0.3095  0.4814
  116MOL   H23428064   0.783   5.142   0.365 -2.0807 -0.1617  1.9965
  116MOL   H23528065   0.768   5.288   0.426  1.9739 -1.2154  0.0633
  116MOL   H23628066   0.694   5.209   0.143 -0.3183  0.9371  0.0435
  116MOL   H23728067   0.939   5.262   0.196  0.7383  1.6130  0.4475
  116MOL   H23828068   0.893   5.428   0.239  1.5593  0.6410 -0.2545
  116MOL   H23928069   0.850   5.469   0.016 -1.2329 -0.8677 -1.0236
  116MOL   H24028070   0.997   5.374   7.704 -0.4663 -1.3596  0.2226
  116MOL   H24128071   0.841   5.303   7.669  1.0925 -0.4426 -0.5655
  116MOL   H24228072   0.659   5.368   0.215 -1.0762 -0.5371 -1.1284
  117MOL     C128073   7.627   5.050   0.683 -1.3287 -0.1891 -0.3193
  117MOL     C228074   7.477   5.046   0.644 -0.3249  0.3915  0.0181
  117MOL     C328075   7.454   4.980   0.507 -0.5832 -0.5423 -1.4338
  117MOL     C428076   7.532   5.045   0.395  0.1928 -0.4689 -0.0698
  117MOL     H528077   7.672   5.135   0.632 -2.4651  1.3458  1.1898
  117MOL     H628078   7.628   5.065   0.791  1.5479  3.7926 -0.8060
  117MOL     H728079   7.438   4.980   0.720  0.2690 -0.3020 -0.2768
  117MOL     H828080   7.347   4.976   0.487 -0.7858  2.8374 -1.3720
  117MOL     H928081   7.486   4.877   0.515 -0.7636 -0.4795  0.1069
  117MOL    H1028082   7.640   5.051   0.402  0.2098 -1.1830  0.2476
  117MOL    H1128083   7.509   4.985   0.306  1.5225  1.3176 -1.6713
  117MOL    H1228084   7.498   5.146   0.369  0.1886 -0.6695 -0.8744
  117MOL    H1328085   7.674   4.953   0.662 -0.6770 -0.1604  0.9027
  117MOL    C1428086   7.401   5.175   0.655 -0.0996 -0.7341 -0.6882
  117MOL    C1528087   7.256   5.159   0.719  0.4755 -1.1885  0.7964
  117MOL    C1628088   7.156   5.058   0.658 -0.1992 -0.2502  0.6254
  117MOL    C1728089   7.164   4.910   0.687  0.2741  0.7245 -0.3360
  117MOL    H1828090   7.399   5.241   0.568 -3.1725  2.8984  1.9818
  117MOL    H1928091   7.448   5.239   0.730 -1.1400 -0.5933 -0.1565
  117MOL    H2028092   7.280   5.135   0.822 -0.2160 -3.2852  0.4913
  117MOL    H2128093   7.154   5.065   0.549  1.0450 -0.9251  0.5455
  117MOL    H2228094   7.052   5.078   0.684 -0.2182 -0.3753  0.6474
  117MOL    H2328095   7.262   4.864   0.669  1.0688  1.4015  1.9949
  117MOL    H2428096   7.140   4.875   0.788 -0.8705  1.4781 -0.3395
  117MOL    H2528097   7.098   4.858   0.618 -0.4614  0.4790  0.5487
  117MOL    C2628098   7.191   5.300   0.734 -0.0493 -0.2766 -0.7541
  117MOL    C2728099   7.076   5.312   0.836 -0.3945  0.0696 -0.0926
  117MOL    C2828100   6.993   5.436   0.809  0.6253 -0.1271  0.5769
  117MOL    C2928101   6.894   5.423   0.690 -0.5148 -0.5315 -0.1046
  117MOL    H3028102   7.170   5.351   0.640  0.7432 -0.0206 -0.8004
  117MOL    H3128103   7.273   5.360   0.774 -0.9419  0.8795 -0.6368
  117MOL    H3228104   7.005   5.229   0.832 -0.0452 -0.2461  0.1709
  117MOL    H3328105   7.051   5.528   0.801 -0.8072  0.6501 -1.1672
  117MOL    H3428106   6.937   5.453   0.901 -1.2471 -1.7214 -0.2143
  117MOL    H3528107   6.848   5.521   0.682 -0.2498 -0.2826  1.2201
  117MOL    H3628108   6.946   5.398   0.597 -2.2941  2.8202 -2.1010
  117MOL    H3728109   6.821   5.347   0.717  0.5011 -1.6864 -0.5760
  117MOL    C3828110   7.128   5.307   0.983  0.8786  0.7524  0.1909
  117MOL    C3928111   7.018   5.274   1.086  0.1023 -0.0371  0.2673
  117MOL    C4028112   6.974   5.405   1.163  1.0540 -0.2985 -0.0154
  117MOL    C4128113   6.842   5.398   1.234 -0.3304 -1.2033  0.0068
  117MOL    H4228114   7.163   5.408   1.004 -0.5215  0.9172  1.8036
  117MOL    H4328115   7.214   5.240   0.989  0.3414 -0.0933 -1.1466
  117MOL    H4428116   6.924   5.240   1.042  0.6361 -1.7931  0.4259
  117MOL    H4528117   6.956   5.478   1.084 -3.8618 -0.1578  1.0587
  117MOL    H4628118   7.048   5.446   1.232 -1.1327  2.3242  0.8621
  117MOL    H4728119   6.760   5.371   1.168 -2.0258  1.6160  0.8768
  117MOL    H4828120   6.844   5.332   1.321 -0.3921 -0.4663  0.5744
  117MOL    H4928121   6.814   5.501   1.259 -2.1067 -0.8180 -3.3273
  117MOL    C5028122   7.064   5.158   1.182 -0.1149 -0.1287  0.2657
  117MOL    C5128123   7.071   5.015   1.106 -0.6007  0.5661 -0.0942
  117MOL    C5228124   6.945   4.974   1.029 -0.4820  0.1546  0.0809
  117MOL    C5328125   6.817   4.957   1.123 -0.4988 -0.0383 -0.0707
  117MOL    H5428126   7.001   5.153   1.270 -0.6983  0.8221 -0.0941
  117MOL    H5528127   7.164   5.176   1.222  0.2314  1.6619 -1.3160
  117MOL    H5628128   7.150   5.023   1.032 -0.3835  0.1622  0.0883
  117MOL    H5728129   6.958   4.875   0.984 -0.2522 -0.2699  1.0568
  117MOL    H5828130   6.925   5.038   0.944  0.6973 -2.1207 -1.9759
  117MOL    H5928131   6.801   5.040   1.191 -3.7254  0.5650 -1.4642
  117MOL    H6028132   6.722   4.959   1.069 -0.2038 -1.2626 -0.6687
  117MOL    H6128133   6.830   4.864   1.179  1.9754  0.5193  0.3168
  117MOL    C6228134   7.123   4.894   1.186 -1.0709 -0.2437  0.4732
  117MOL    C6328135   7.251   4.920   1.261  0.1173 -0.5688 -0.1268
  117MOL    C6428136   7.361   4.978   1.169 -0.2784  0.7087  0.4684
  117MOL    C6528137   7.415   4.885   1.066  0.0302 -0.3059  0.3566
  117MOL    H6628138   7.140   4.818   1.110 -0.3402  1.8735 -1.5420
  117MOL    H6728139   7.057   4.850   1.261 -2.2279 -2.0702 -1.5389
  117MOL    H6828140   7.213   4.994   1.332 -0.2561 -1.5813  0.7428
  117MOL    H6928141   7.436   5.005   1.243  0.2294  0.3848  0.0725
  117MOL    H7028142   7.342   5.073   1.120 -0.3714  0.7121  0.5096
  117MOL    H7128143   7.460   4.794   1.107 -1.6703 -0.4885  1.9083
  117MOL    H7228144   7.339   4.845   1.000  1.6693 -1.1106 -1.0877
  117MOL    H7328145   7.489   4.934   1.003 -1.1924  2.3931  0.9515
  117MOL    C7428146   7.307   4.797   1.338  0.2754 -0.5723 -0.5468
  117MOL    C7528147   7.228   4.780   1.466 -0.3261 -0.4300 -0.0754
  117MOL    C7628148   7.302   4.869   1.569 -0.0722 -0.4550  0.7355
  117MOL    C7728149   7.231   4.906   1.701 -0.2648 -0.2064  0.1042
  117MOL    H7828150   7.414   4.800   1.353  0.3255 -0.9892 -0.8113
  117MOL    H7928151   7.296   4.707   1.278  0.6426 -1.8023  1.2058
  117MOL    H8028152   7.130   4.824   1.451  0.4390  1.6158  0.7075
  117MOL    H8128153   7.299   4.967   1.521 -0.8521 -1.7890 -2.0189
  117MOL    H8228154   7.406   4.847   1.595 -0.1160  0.8559  2.0688
  117MOL    H8328155   7.298   4.986   1.732  0.4816  0.0365 -2.0355
  117MOL    H8428156   7.124   4.927   1.698 -0.3537  0.2479  3.7360
  117MOL    H8528157   7.239   4.832   1.780  0.2122  1.0657  1.2720
  117MOL    C8628158   7.224   4.636   1.522  0.0636  0.2117 -0.4327
  117MOL    C8728159   7.107   4.541   1.469  0.8247  0.5062  0.1323
  117MOL    C8828160   6.982   4.577   1.552 -0.4519  0.2645  0.6335
  117MOL    C8928161   6.982   4.549   1.704 -0.2254 -0.3504 -0.0333
  117MOL    H9028162   7.230   4.627   1.631  3.6293 -0.6636 -0.6317
  117MOL    H9128163   7.326   4.598   1.509  0.3257 -0.5094  3.0308
  117MOL    H9228164   7.077   4.569   1.368  2.3558  1.3260 -0.1072
  117MOL    H9328165   6.890   4.538   1.507  0.2626 -1.1427  0.3699
  117MOL    H9428166   6.948   4.680   1.547 -0.4485  0.1623 -2.5336
  117MOL    H9528167   7.034   4.457   1.731  0.3143  0.3748  1.4418
  117MOL    H9628168   7.041   4.626   1.753 -1.5987  1.7796 -1.6070
  117MOL    H9728169   6.887   4.551   1.757 -0.6337 -1.7466 -0.6948
  117MOL    C9828170   7.136   4.388   1.487  0.0749 -0.0665  0.3373
  117MOL    C9928171   7.155   4.317   1.355 -0.4506  0.9226 -0.0910
  117MOL   C10028172   7.027   4.302   1.268 -0.0269  0.1271 -0.3836
  117MOL   C10128173   6.906   4.247   1.342  0.4184  0.5031  0.0816
  117MOL   H10228174   7.047   4.352   1.538  0.4112  0.1532  1.0886
  117MOL   H10328175   7.223   4.378   1.553  0.2441 -1.3011 -0.0716
  117MOL   H10428176   7.233   4.377   1.308  0.8484 -1.3949 -0.9578
  117MOL   H10528177   7.059   4.237   1.186  0.4031  0.0923 -0.1886
  117MOL   H10628178   6.989   4.399   1.237  1.6356  0.7117 -0.6090
  117MOL   H10728179   6.830   4.252   1.264 -0.0794  0.4745  0.5605
  117MOL   H10828180   6.921   4.142   1.366 -1.2290  0.3741  0.6972
  117MOL   H10928181   6.877   4.312   1.425  0.9138  0.6730  0.1212
  117MOL   C11028182   7.228   4.176   1.370 -0.3633  0.0477  0.4192
  117MOL   C11128183   7.308   4.133   1.252 -0.5418  0.4692 -0.0934
  117MOL   C11228184   7.262   3.986   1.214 -0.4409  1.3884  0.3368
  117MOL   C11328185   7.319   3.935   1.082 -0.2679 -0.1257 -0.3804
  117MOL   H11428186   7.144   4.113   1.398 -0.0858 -0.6839 -0.3737
  117MOL   H11528187   7.291   4.173   1.459  0.6893 -0.3232 -0.3296
  117MOL   H11628188   7.275   4.195   1.168  1.0637  0.2146 -0.9255
  117MOL   H11728189   7.155   3.968   1.217 -0.1520 -0.5012 -0.1839
  117MOL   H11828190   7.293   3.921   1.296 -1.1726  0.6278  0.0216
  117MOL   H11928191   7.323   4.013   1.006  2.6830 -0.7290 -0.8946
  117MOL   H12028192   7.424   3.911   1.101 -1.0116 -1.2125  2.6292
  117MOL   H12128193   7.271   3.845   1.044 -2.3840  1.2743 -1.0996
  117MOL   C12228194   7.465   4.131   1.271 -0.8057 -0.8101 -0.1203
  117MOL   C12328195   7.518   4.274   1.302 -0.1216  0.5189  0.3348
  117MOL   C12428196   7.501   4.366   1.174 -0.0909  0.0523 -0.4236
  117MOL   C12528197   7.530   4.521   1.194  0.1354  0.9062  0.0862
  117MOL   H12628198   7.531   4.095   1.193  0.2088 -1.2551  0.9189
  117MOL   H12728199   7.488   4.063   1.353  0.4153 -1.5919 -1.1017
  117MOL   H12828200   7.458   4.330   1.373  0.8157  1.0183  0.7496
  117MOL   H12928201   7.400   4.357   1.133 -0.6007 -2.9435  1.3695
  117MOL   H13028202   7.566   4.322   1.098 -1.1515 -0.7744 -0.8543
  117MOL   H13128203   7.471   4.573   1.269 -0.8571 -0.3920  0.2383
  117MOL   H13228204   7.636   4.536   1.210  0.7878 -2.1112 -1.1047
  117MOL   H13328205   7.516   4.572   1.098 -0.7724  0.8230  0.1617
  117MOL   C13428206   7.667   4.279   1.355  0.3443  0.1852  0.3549
  117MOL   C13528207   7.684   4.196   1.484 -0.2053 -0.4408 -0.5495
  117MOL   C13628208   7.595   4.242   1.605  0.0720  0.2254 -0.1096
  117MOL   C13728209   7.618   4.389   1.660  0.6944  0.0806 -0.4524
  117MOL   H13828210   7.695   4.383   1.369 -2.0835  0.8616  0.5358
  117MOL   H13928211   0.034   4.241   1.284 -2.0542 -0.5713 -1.7818
  117MOL   H14028212   7.664   4.091   1.463 -0.7110  0.0145 -2.4082
  117MOL   H14128213   7.608   4.171   1.686  1.0815  0.1409 -0.3367
  117MOL   H14228214   7.492   4.241   1.571 -0.7849  1.5306  2.3751
  117MOL   H14328215   7.542   4.414   1.733  0.3736  0.4140 -0.8986
  117MOL   H14428216   0.005   4.404   1.714 -0.3314 -0.4722  1.4980
  117MOL   H14528217   7.604   4.453   1.573  0.9179  1.8430  0.7881
  117MOL   C14628218   0.122   4.202   1.534  0.2856  0.3287 -0.1507
  117MOL   C14728219   0.234   4.132   1.450  0.5685 -0.6303  0.1960
  117MOL   C14828220   0.231   3.977   1.450  0.1317  0.1773 -0.2721
  117MOL   C14928221   0.267   3.909   1.576  0.2840 -0.0621 -0.4394
  117MOL   H15028222   0.119   4.161   1.636  3.4886 -1.5028 -0.7043
  117MOL   H15128223   0.149   4.307   1.536 -0.4277  0.5101  0.1969
  117MOL   H15228224   0.231   4.163   1.345  3.5789 -0.3272  0.1480
  117MOL   H15328225   0.299   3.948   1.371 -0.1139  2.0557 -1.1966
  117MOL   H15428226   0.139   3.935   1.409  0.4272 -1.7512  0.9979
  117MOL   H15528227   0.262   3.801   1.571 -2.1265  0.0355 -0.3874
  117MOL   H15628228   0.365   3.935   1.617  0.2249  0.2088 -0.4680
  117MOL   H15728229   0.197   3.929   1.657  1.2765 -0.1580  0.4551
  117MOL   C15828230   0.372   4.171   1.510  0.1977 -0.4116  0.2729
  117MOL   C15928231   0.493   4.133   1.433  0.1095 -0.1701  0.5933
  117MOL   C16028232   0.621   4.175   1.503 -0.2774  0.3670 -0.7246
  117MOL   C16128233   0.651   4.087   1.624 -0.4329 -0.7163  0.5231
  117MOL   H16228234   0.381   4.129   1.611 -0.3818 -0.2934  0.3750
  117MOL   H16328235   0.377   4.278   1.531 -1.7628 -0.3413  0.4083
  117MOL   H16428236   0.499   4.025   1.429  1.8708 -0.0425 -1.8613
  117MOL   H16528237   0.602   4.272   1.548 -0.2117 -0.5805  1.4003
  117MOL   H16628238   0.718   4.184   1.454  0.4826 -0.3984  0.5857
  117MOL   H16728239   0.741   4.127   1.669 -0.0537 -0.3732 -0.5195
  117MOL   H16828240   0.570   4.091   1.697  0.5720 -0.8737  1.6599
  117MOL   H16928241   0.669   3.984   1.591 -1.3551 -1.3818  2.0572
  117MOL   C17028242   0.499   4.190   1.283 -0.6880  0.2716 -0.3665
  117MOL   C17128243   0.504   4.079   1.178  0.2089 -0.5691  0.4014
  117MOL   C17228244   0.653   4.030   1.161  0.2710 -0.0608  0.2603
  117MOL   C17328245   0.671   3.903   1.072  0.1276 -0.0325  0.0948
  117MOL   H17428246   0.581   4.259   1.267  1.3220 -2.1446 -0.9063
  117MOL   H17528247   0.414   4.254   1.262  0.5802  0.7202 -4.6878
  117MOL   H17628248   0.439   4.001   1.217  1.0631 -0.3674  2.2991
  117MOL   H17728249   0.696   4.014   1.259  0.7982  1.1280  0.2327
  117MOL   H17828250   0.704   4.117   1.119  1.4375 -0.7484  0.2376
  117MOL   H17928251   0.597   3.829   1.104  0.5825 -0.8146 -0.6308
  117MOL   H18028252   0.644   3.914   0.967  0.5932 -0.6531 -0.0889
  117MOL   H18128253   0.776   3.875   1.081  0.0984 -0.8360 -1.6928
  117MOL   C18228254   0.458   4.148   1.051 -0.8444  0.0351  0.8143
  117MOL   C18328255   0.308   4.164   1.025 -0.0231  0.2883 -0.3164
  117MOL   C18428256   0.237   4.032   0.995  0.7477 -0.2723  0.1007
  117MOL   C18528257   0.084   4.024   1.005 -0.1378 -0.3534  0.2349
  117MOL   H18628258   0.501   4.091   0.969  1.1476  2.1166  0.3566
  117MOL   H18728259   0.504   4.246   1.034  0.0673 -0.7334 -1.2933
  117MOL   H18828260   0.266   4.202   1.118  3.5185  2.0031  0.6534
  117MOL   H18928261   0.283   3.952   1.052 -0.4995 -1.0859 -0.0099
  117MOL   H19028262   0.270   4.006   0.894  1.1873 -0.5538  0.3177
  117MOL   H19128263   0.056   4.040   1.109  3.7593 -3.7344  1.9011
  117MOL   H19228264   0.034   4.108   0.957  2.5655  1.3989  0.3900
  117MOL   H19328265   0.045   3.928   0.969  1.1737 -0.4395 -1.0261
  117MOL   C19428266   0.273   4.269   0.923  0.0109  0.4933  0.1736
  117MOL   C19528267   0.297   4.416   0.953 -0.4503 -0.3354 -0.0656
  117MOL   C19628268   0.173   4.476   1.028 -0.6043 -0.3362  0.1652
  117MOL   C19728269   0.213   4.566   1.149  0.6779 -0.6179 -0.1271
  117MOL   H19828270   0.171   4.265   0.887  0.4061  0.1428 -0.9164
  117MOL   H19928271   0.330   4.244   0.834  1.8023 -1.9896  1.9211
  117MOL   H20028272   0.380   4.422   1.023 -1.8919 -1.2455  1.7722
  117MOL   H20128273   0.107   4.397   1.063 -0.0964 -0.6368  0.4578
  117MOL   H20228274   0.114   4.537   0.959  1.7021  1.4478 -0.2988
  117MOL   H20328275   0.286   4.523   1.219  0.9723  1.2129  0.7049
  117MOL   H20428276   0.269   4.651   1.110  1.4223 -1.5278 -1.0736
  117MOL   H20528277   0.131   4.604   1.209  2.5383  0.6625  1.6938
  117MOL   C20628278   0.332   4.509   0.835  0.3025  0.8697 -0.1829
  117MOL   C20728279   0.478   4.515   0.785  0.5609 -0.5438 -0.4805
  117MOL   C20828280   0.522   4.381   0.717  0.8977 -0.2116 -0.8049
  117MOL   C20928281   0.439   4.344   0.591  0.3687  0.2751 -0.0432
  117MOL   H21028282   0.319   4.614   0.862 -0.8762  0.7356 -0.1865
  117MOL   H21128283   0.267   4.482   0.752  0.1009  2.9776 -0.7204
  117MOL   H21228284   0.489   4.590   0.707 -0.6014 -0.4861 -0.5993
  117MOL   H21328285   0.519   4.295   0.784 -0.3910 -1.3438 -2.2746
  117MOL   H21428286   0.627   4.390   0.690  1.2060 -0.3205  0.3366
  117MOL   H21528287   0.489   4.263   0.537 -1.7509 -0.7434 -0.5622
  117MOL   H21628288   0.342   4.297   0.611 -0.3993  0.7203 -2.5821
  117MOL   H21728289   0.421   4.432   0.530  0.0953  1.0594  1.1477
  117MOL   C21828290   0.578   4.562   0.891  0.3094  0.0753 -0.2642
  117MOL   C21928291   0.713   4.614   0.831  0.6421  0.1155  0.2228
  117MOL   C22028292   0.837   4.554   0.901  0.5130  0.1037  0.1348
  117MOL   C22128293   0.862   4.406   0.869  0.3522  0.4582  0.3515
  117MOL   H22228294   0.592   4.485   0.966  2.3559  0.9260  0.2492
  117MOL   H22328295   0.528   4.649   0.934 -1.4879 -0.5455 -1.0171
  117MOL   H22428296   0.724   4.582   0.728  0.8577 -0.3233  0.3800
  117MOL   H22528297   0.830   4.579   1.007 -0.5290 -2.1903  0.6260
  117MOL   H22628298   0.923   4.613   0.869  0.1820  0.2086 -0.5638
  117MOL   H22728299   0.842   4.379   0.765  1.3193  1.6673 -0.1561
  117MOL   H22828300   0.954   4.368   0.914  0.6521 -0.5587 -1.0846
  117MOL   H22928301   0.794   4.342   0.925  0.5634 -1.8976 -1.9561
  117MOL   C23028302   0.718   4.769   0.813 -0.2598 -0.0825 -0.4908
  117MOL   C23128303   0.813   4.821   0.706  0.6063  0.7032  0.2308
  117MOL   C23228304   0.838   4.975   0.717  0.2545  0.5109 -0.5288
  117MOL   C23328305   0.961   5.023   0.636 -0.1613  0.1753  0.4737
  117MOL   H23428306   0.747   4.811   0.909 -0.5768  2.7762 -1.5717
  117MOL   H23528307   0.615   4.803   0.798 -0.5209  0.0450  1.4154
  117MOL   H23628308   0.907   4.770   0.727  0.2164 -0.6813 -1.2945
  117MOL   H23728309   0.860   5.001   0.820  3.4093  1.9964 -1.5099
  117MOL   H23828310   0.756   5.032   0.673  0.0877 -0.3959 -1.4359
  117MOL   H23928311   1.059   5.010   0.681 -0.6934 -1.5635  1.1438
  117MOL   H24028312   0.963   4.983   0.535  0.7117  0.2768  0.4532
  117MOL   H24128313   0.956   5.132   0.629  1.7389  0.1692 -1.2588
  117MOL   H24228314   0.787   4.791   0.604  0.3271 -0.8937  0.7629
  118MOL     C128315   3.923   5.262   6.007 -0.0419 -0.7582  0.4145
  118MOL     C228316   4.007   5.385   5.978  0.1193 -0.0491 -0.3689
  118MOL     C328317   4.130   5.392   6.065 -0.7433 -0.3498  0.0124
  118MOL     C428318   4.239   5.293   6.022 -0.4368 -0.3888  0.1156
  118MOL     H528319   3.837   5.240   5.943  1.0068 -2.7891 -0.3451
  118MOL     H628320   3.983   5.172   6.014  1.3950  0.1498 -0.0054
  118MOL     H728321   4.039   5.379   5.874  1.5706 -2.0778  0.1487
  118MOL     H828322   4.115   5.364   6.169  0.3172 -2.2295 -0.3295
  118MOL     H928323   4.171   5.491   6.082  2.1433 -1.5929  0.6331
  118MOL    H1028324   4.264   5.307   5.917  0.0487 -0.6868  0.1943
  118MOL    H1128325   4.339   5.303   6.064 -0.3743 -3.4893  0.8427
  118MOL    H1228326   4.204   5.190   6.029 -1.7622  0.1700  2.4796
  118MOL    H1328327   3.873   5.282   6.101  2.7480 -1.6786  2.1436
  118MOL    C1428328   3.923   5.509   5.993  0.3613 -0.7569  0.2683
  118MOL    C1528329   3.813   5.548   5.887 -0.0322  0.3270  0.5082
  118MOL    C1628330   3.861   5.645   5.782  0.1145  0.0572  0.4628
  118MOL    C1728331   3.987   5.595   5.692  0.0041  0.0093  0.6721
  118MOL    H1828332   3.992   5.594   5.989  0.5203 -0.9720 -2.4761
  118MOL    H1928333   3.873   5.518   6.090 -2.9745 -2.2808 -1.2496
  118MOL    H2028334   3.768   5.457   5.849  1.2967 -0.3990  0.6677
  118MOL    H2128335   3.883   5.737   5.836  0.0383  0.9797 -1.0277
  118MOL    H2228336   3.782   5.662   5.708  1.9296  1.2357 -1.2530
  118MOL    H2328337   3.982   5.639   5.593  1.0448  0.0173  0.6216
  118MOL    H2428338   4.085   5.602   5.738 -1.2027 -1.3589  3.6060
  118MOL    H2528339   3.972   5.490   5.670  1.2122  0.2303 -1.2459
  118MOL    C2628340   3.690   5.622   5.953  0.0322 -0.2094  0.0246
  118MOL    C2728341   3.589   5.534   6.025  0.4248 -0.0434 -0.4361
  118MOL    C2828342   3.529   5.425   5.939 -0.6153  0.4222  0.1784
  118MOL    C2928343   3.479   5.460   5.799  0.5722  0.2277  0.2076
  118MOL    H3028344   3.637   5.681   5.879  0.1724 -0.2284 -0.0905
  118MOL    H3128345   3.713   5.703   6.022 -0.8226  0.3936 -0.3939
  118MOL    H3228346   3.637   5.480   6.107 -2.1838 -1.1660  0.4272
  118MOL    H3328347   3.456   5.368   5.997  1.0912 -1.5348  0.4966
  118MOL    H3428348   3.597   5.340   5.929 -1.4899 -0.2744 -0.0037
  118MOL    H3528349   3.441   5.371   5.749 -2.8565  0.0544  2.9021
  118MOL    H3628350   3.410   5.545   5.801  0.7035  0.3281  0.5558
  118MOL    H3728351   3.567   5.483   5.739  0.4540 -0.9776 -0.4231
  118MOL    C3828352   3.468   5.616   6.084  0.1770  0.2285 -0.1824
  118MOL    C3928353   3.428   5.597   6.230 -0.2306 -0.0000  0.1071
  118MOL    C4028354   3.283   5.641   6.267  0.4688 -0.3161 -0.0150
  118MOL    C4128355   3.180   5.579   6.172  0.5212  0.7440 -0.0283
  118MOL    H4228356   3.388   5.593   6.014  0.6059  0.3735 -0.7211
  118MOL    H4328357   3.474   5.723   6.066  1.3317  0.2608  0.3096
  118MOL    H4428358   3.434   5.491   6.255  1.1033  0.0652  0.1002
  118MOL    H4528359   3.271   5.750   6.265 -0.7260 -0.4427 -0.4155
  118MOL    H4628360   3.255   5.603   6.365 -3.4974 -2.0634 -1.6988
  118MOL    H4728361   3.178   5.640   6.082 -1.3244 -0.4377 -0.8025
  118MOL    H4828362   3.192   5.471   6.164 -0.5447  0.7149 -1.2493
  118MOL    H4928363   3.084   5.597   6.220  0.8863 -0.8660  1.3373
  118MOL    C5028364   3.525   5.669   6.331  0.9267 -0.6311 -0.2080
  118MOL    C5128365   3.518   5.625   6.480  0.0532  0.0995  0.0663
  118MOL    C5228366   3.617   5.717   6.573  0.4025  0.4800  0.1887
  118MOL    C5328367   3.561   5.862   6.596  0.7278 -0.2954  0.3357
  118MOL    H5428368   3.506   5.777   6.331 -1.0193 -0.9590  0.1113
  118MOL    H5528369   3.622   5.658   6.283  1.3331 -1.5068  0.7997
  118MOL    H5628370   3.415   5.637   6.513 -0.1563  0.0707 -0.5650
  118MOL    H5728371   3.721   5.727   6.543  0.0449 -0.3058 -1.3583
  118MOL    H5828372   3.623   5.671   6.672 -1.8226 -1.5692 -0.5890
  118MOL    H5928373   3.462   5.870   6.643  1.2243  1.0896  1.1677
  118MOL    H6028374   3.624   5.919   6.664 -1.7569  1.7255  1.0442
  118MOL    H6128375   3.569   5.928   6.510 -0.7975 -3.2576 -2.1913
  118MOL    C6228376   3.543   5.471   6.517  0.4340 -0.0670  0.4236
  118MOL    C6328377   3.689   5.417   6.543 -0.0336  0.7127 -0.4235
  118MOL    C6428378   3.779   5.415   6.411  0.8594 -0.0313 -0.3201
  118MOL    C6528379   3.932   5.429   6.444 -0.6388  0.1135 -0.4928
  118MOL    H6628380   3.493   5.398   6.454  0.3373  0.1256  0.2750
  118MOL    H6728381   3.491   5.471   6.612 -0.7962 -0.2780 -0.2479
  118MOL    H6828382   3.734   5.483   6.617 -0.0653 -0.1159  0.3397
  118MOL    H6928383   3.747   5.497   6.347  1.2875  0.3281 -0.0793
  118MOL    H7028384   3.766   5.320   6.359  1.4484 -0.2968  0.0029
  118MOL    H7128385   3.962   5.527   6.482  1.8645 -0.1815 -1.5797
  118MOL    H7228386   3.972   5.349   6.506 -0.7279 -0.0346 -0.6256
  118MOL    H7328387   3.985   5.420   6.349 -1.4030 -0.4419 -0.8708
  118MOL    C7428388   3.683   5.274   6.597  0.1122 -0.0052 -0.1423
  118MOL    C7528389   3.617   5.250   6.731 -0.3851 -0.3690  0.0073
  118MOL    C7628390   3.691   5.332   6.844 -0.2824  0.2678 -0.5652
  118MOL    C7728391   3.821   5.268   6.895 -0.2347 -0.6565  0.3817
  118MOL    H7828392   3.785   5.238   6.609  0.5071  1.1300 -0.0533
  118MOL    H7928393   3.635   5.209   6.523 -0.6903  1.1270 -0.6385
  118MOL    H8028394   3.514   5.282   6.716 -1.4874 -2.3890  3.0565
  118MOL    H8128395   3.630   5.361   6.930  1.1473  0.9935  0.2315
  118MOL    H8228396   3.708   5.437   6.819  2.0246 -0.3226 -1.6478
  118MOL    H8328397   3.872   5.215   6.814  0.2143  0.3267  0.0080
  118MOL    H8428398   3.892   5.339   6.938  0.4694  0.8703 -3.1353
  118MOL    H8528399   3.802   5.196   6.975  3.6943  0.3766  2.3706
  118MOL    C8628400   3.602   5.102   6.768 -0.5278 -0.7874 -0.0985
  118MOL    C8728401   3.527   5.065   6.886  0.7042  0.5520 -0.1961
  118MOL    C8828402   3.558   4.915   6.926 -0.5355 -0.0058  0.2023
  118MOL    C8928403   3.549   4.898   7.078 -0.0636  0.4782 -0.2816
  118MOL    H9028404   3.699   5.052   6.777  0.1310  0.5801  0.6364
  118MOL    H9128405   3.562   5.057   6.677  0.1294  0.5437 -1.0648
  118MOL    H9228406   3.555   5.139   6.962  0.3237  0.3769  0.1205
  118MOL    H9328407   3.657   4.884   6.893 -1.1462 -2.5569  0.6591
  118MOL    H9428408   3.482   4.853   6.877  0.6086 -2.3527  1.3217
  118MOL    H9528409   3.566   4.792   7.096  1.9880  1.2939  2.9552
  118MOL    H9628410   3.622   4.958   7.131  0.5208 -1.2711  0.9537
  118MOL    H9728411   3.446   4.924   7.104  0.1118  0.1958  0.7326
  118MOL    C9828412   3.371   5.071   6.874  0.4353 -0.0984  0.1925
  118MOL    C9928413   3.303   5.212   6.876  0.2139  0.7746 -0.1610
  118MOL   C10028414   3.333   5.300   7.004  0.2169 -0.8674  0.1263
  118MOL   C10128415   3.335   5.235   7.143  0.3848  0.1280 -0.3399
  118MOL   H10228416   3.321   5.014   6.953 -1.0622 -1.4621 -1.7126
  118MOL   H10328417   3.353   5.018   6.781  0.2993 -3.3794  2.0130
  118MOL   H10428418   3.335   5.279   6.796 -1.0979  1.3052 -0.2701
  118MOL   H10528419   3.269   5.388   7.001 -1.3406 -1.9952 -0.2776
  118MOL   H10628420   3.430   5.346   6.985 -1.0462  0.7965 -2.5854
  118MOL   H10728421   3.419   5.167   7.150  0.2096  0.1423  2.1269
  118MOL   H10828422   3.338   5.304   7.227 -2.3205  0.6578 -0.6273
  118MOL   H10928423   3.243   5.181   7.168  0.2067  1.2865  1.5919
  118MOL   C11028424   3.149   5.196   6.863  0.1511 -0.2866 -0.1806
  118MOL   C11128425   3.068   5.193   6.725  0.0289 -0.3478  1.4608
  118MOL   C11228426   3.089   5.322   6.646  0.4491  0.1212  0.2084
  118MOL   C11328427   3.077   5.455   6.724  0.3593  0.2727 -0.2461
  118MOL   H11428428   3.090   5.261   6.928 -0.6818 -0.1009 -1.1250
  118MOL   H11528429   3.129   5.099   6.909  1.2492 -0.3349  0.2259
  118MOL   H11628430   3.109   5.117   6.659 -2.0937 -0.0400 -0.2546
  118MOL   H11728431   3.019   5.331   6.563  1.2872 -3.7781 -1.0063
  118MOL   H11828432   3.189   5.327   6.603 -0.4018 -1.4124 -2.0762
  118MOL   H11928433   3.078   5.540   6.656  0.1941  0.5417  0.0849
  118MOL   H12028434   2.990   5.451   6.790  0.2307 -0.2260 -0.4445
  118MOL   H12128435   3.170   5.473   6.778  0.8056 -1.4457 -0.4238
  118MOL   C12228436   2.915   5.165   6.755 -0.2104 -0.8813 -0.2220
  118MOL   C12328437   2.829   5.119   6.636 -0.0032 -0.3702 -0.1049
  118MOL   C12428438   2.680   5.172   6.658  0.3610 -0.6507 -0.3880
  118MOL   C12528439   2.667   5.325   6.651  0.2209 -0.2137  0.6440
  118MOL   H12628440   2.869   5.255   6.797 -0.4714 -0.3235 -1.6909
  118MOL   H12728441   2.898   5.084   6.826 -1.6594 -0.6159 -0.2628
  118MOL   H12828442   2.864   5.169   6.546  2.4980 -0.4261  0.7972
  118MOL   H12928443   2.644   5.145   6.757 -1.3754  0.9502 -0.5652
  118MOL   H13028444   2.618   5.127   6.580 -2.6278 -0.2751  1.6934
  118MOL   H13128445   2.729   5.384   6.718  1.5965  1.8166 -2.2933
  118MOL   H13228446   2.708   5.360   6.556  0.5911 -1.0803  0.4750
  118MOL   H13328447   2.565   5.363   6.646  0.0323 -0.7271  0.5925
  118MOL   C13428448   2.856   4.970   6.616 -0.0315 -0.0057 -0.1917
  118MOL   C13528449   2.799   4.912   6.483 -0.6731  0.4082  0.0617
  118MOL   C13628450   2.743   4.775   6.520  0.0299  0.7090  0.4550
  118MOL   C13728451   2.844   4.665   6.550  0.2995 -0.2902 -0.8330
  118MOL   H13828452   2.812   4.922   6.704  0.7979  1.5551  1.1116
  118MOL   H13928453   2.963   4.952   6.604  0.1810  0.9953  0.1076
  118MOL   H14028454   2.710   4.970   6.459 -0.7158  0.7106  0.9114
  118MOL   H14128455   2.684   4.743   6.434  2.4869 -1.1683 -0.6088
  118MOL   H14228456   2.666   4.796   6.595 -0.8604 -0.3327 -0.1522
  118MOL   H14328457   2.941   4.698   6.589  0.0052 -0.9021  0.4427
  118MOL   H14428458   2.805   4.595   6.623  0.6422  1.2436  0.8757
  118MOL   H14528459   2.861   4.606   6.460 -2.5066 -1.0651 -0.9130
  118MOL   C14628460   2.887   4.921   6.353 -0.0755  0.0798  0.1104
  118MOL   C14728461   2.927   5.063   6.300  0.1203 -0.1838 -0.0632
  118MOL   C14828462   2.804   5.148   6.274 -0.0318 -0.3374  0.0818
  118MOL   C14928463   2.827   5.296   6.263  0.1209  0.2344  0.2422
  118MOL   H15028464   2.827   4.867   6.279 -0.9708 -0.8695  1.5147
  118MOL   H15128465   2.972   4.853   6.366 -2.1783 -2.3406  1.6182
  118MOL   H15228466   2.990   5.108   6.377  2.9296 -4.0592  0.0153
  118MOL   H15328467   2.722   5.146   6.346 -0.2188  0.4722 -0.1076
  118MOL   H15428468   2.757   5.127   6.178  0.6452  2.8521 -0.9938
  118MOL   H15528469   2.843   5.335   6.363 -0.7927  2.3141 -0.3871
  118MOL   H15628470   2.914   5.320   6.202  0.7655 -2.6476 -0.0291
  118MOL   H15728471   2.735   5.346   6.231 -0.5092 -1.3340 -0.4547
  118MOL   C15828472   3.025   5.064   6.176  0.8252 -0.4600  0.2616
  118MOL   C15928473   3.157   4.997   6.193  0.0159 -0.7840 -0.2059
  118MOL   C16028474   3.242   5.047   6.315  0.0669  0.0227 -0.8981
  118MOL   C16128475   3.299   5.190   6.292 -0.0048 -0.0800  0.2736
  118MOL   H16228476   3.037   5.170   6.157 -1.4071 -0.1968  0.2148
  118MOL   H16328477   2.980   5.002   6.098  2.1291 -3.6553  1.9271
  118MOL   H16428478   3.138   4.891   6.213  1.0120 -0.7028  1.2380
  118MOL   H16528479   3.329   4.992   6.351 -0.0130  0.9779  0.7802
  118MOL   H16628480   3.184   5.048   6.407  1.1108  1.0727 -0.2283
  118MOL   H16728481   3.226   5.271   6.289  0.9925  0.8111 -0.0384
  118MOL   H16828482   3.359   5.217   6.379  1.5391 -1.7118 -0.2530
  118MOL   H16928483   3.368   5.199   6.209  0.5167  1.1072  0.8291
  118MOL   C17028484   3.242   4.984   6.065 -0.0794 -0.5997 -0.0591
  118MOL   C17128485   3.371   4.904   6.086 -0.0415  0.6263  0.1677
  118MOL   C17228486   3.465   4.944   5.967 -0.7212  0.4359  0.3891
  118MOL   C17328487   3.549   5.068   5.987  0.2030 -0.0978  0.4843
  118MOL   H17428488   3.267   5.082   6.024  2.5925 -1.4251 -0.5561
  118MOL   H17528489   3.178   4.937   5.991  0.5958  0.6168 -1.4544
  118MOL   H17628490   3.432   4.931   6.173  2.7553  0.2408 -1.5877
  118MOL   H17728491   3.403   4.943   5.878  0.4213  0.1865 -0.4272
  118MOL   H17828492   3.535   4.862   5.952 -1.4055  0.2982 -2.2069
  118MOL   H17928493   3.628   5.084   5.913  2.1624 -1.9913  2.0865
  118MOL   H18028494   3.477   5.149   5.980  0.2790 -0.2171 -1.9170
  118MOL   H18128495   3.609   5.085   6.077 -0.9322  0.9839  1.0464
  118MOL   C18228496   3.349   4.753   6.090 -0.1401  0.6996 -0.2674
  118MOL   C18328497   3.436   4.681   6.196 -0.4051 -0.1764  0.2498
  118MOL   C18428498   3.495   4.550   6.133  0.4038 -0.1472  0.0353
  118MOL   C18528499   3.641   4.551   6.078 -0.0278 -0.1960  0.2349
  118MOL   H18628500   3.379   4.717   5.992 -2.1940 -1.5579 -0.1285
  118MOL   H18728501   3.244   4.723   6.102  0.1123  0.8997  3.1035
  118MOL   H18828502   3.529   4.736   6.206 -0.0743 -0.6512 -0.1634
  118MOL   H18928503   3.424   4.511   6.059  1.1035  0.3757 -0.9211
  118MOL   H19028504   3.488   4.474   6.211 -1.2122 -0.7168 -0.6361
  118MOL   H19128505   3.660   4.462   6.019  0.2636 -0.5020  0.7921
  118MOL   H19228506   3.663   4.628   6.004  0.0830 -0.0944  0.3742
  118MOL   H19328507   3.710   4.542   6.162 -1.7861  0.4275  1.7779
  118MOL   C19428508   3.378   4.652   6.329  0.1262  0.0608 -0.1865
  118MOL   C19528509   3.473   4.623   6.452 -1.3262  0.3508  0.3633
  118MOL   C19628510   3.377   4.592   6.572  0.0457 -0.0723 -0.7375
  118MOL   C19728511   3.456   4.517   6.674 -0.2637 -0.7039 -0.2476
  118MOL   H19828512   3.305   4.573   6.318 -0.4138  0.4991  0.2206
  118MOL   H19928513   3.320   4.741   6.352  2.0715  1.2797  0.1698
  118MOL   H20028514   3.542   4.543   6.427  0.3812  2.1534 -0.8085
  118MOL   H20128515   3.299   4.523   6.540 -1.3117  1.7968 -1.4939
  118MOL   H20228516   3.332   4.681   6.616  2.6339  0.9508 -0.0460
  118MOL   H20328517   3.543   4.573   6.706 -0.5889 -0.5542  0.4028
  118MOL   H20428518   3.401   4.492   6.766  0.0098 -2.7642 -0.6114
  118MOL   H20528519   3.493   4.427   6.625  0.3811 -1.2655  1.2341
  118MOL   C20628520   3.547   4.749   6.489 -0.2447  0.3822  0.1362
  118MOL   C20728521   3.693   4.751   6.449  0.3141 -0.2903 -0.4009
  118MOL   C20828522   3.767   4.650   6.543  0.3725  0.6772  0.3571
  118MOL   C20928523   3.916   4.627   6.510  0.7448 -0.5796 -0.2313
  118MOL   H21028524   3.548   4.772   6.595  0.0834 -0.8119  0.4076
  118MOL   H21128525   3.497   4.839   6.453 -0.9371  0.0567  0.2778
  118MOL   H21228526   3.717   4.706   6.352  0.0073 -1.4406  0.0406
  118MOL   H21328527   3.717   4.553   6.539  0.7733  0.3874  2.1427
  118MOL   H21428528   3.765   4.691   6.644  0.6240  1.3566  0.0927
  118MOL   H21528529   3.964   4.546   6.565  0.8040 -1.4257 -1.5208
  118MOL   H21628530   3.931   4.609   6.404  1.0826 -0.0464 -0.2790
  118MOL   H21728531   3.973   4.718   6.531  0.9209 -0.5594 -0.7806
  118MOL   C21828532   3.757   4.893   6.441 -0.2266  0.0478  0.6177
  118MOL   C21928533   3.870   4.912   6.336  0.2377 -0.3648 -0.3823
  118MOL   C22028534   3.959   5.038   6.361  0.3504 -0.2893 -0.0534
  118MOL   C22128535   4.089   5.053   6.291  0.7113 -0.0458  0.0961
  118MOL   H22228536   3.770   4.926   6.544 -2.7235  2.6951  0.1693
  118MOL   H22328537   3.675   4.957   6.409  0.1594 -0.7818 -2.0991
  118MOL   H22428538   3.941   4.832   6.355  1.6367  0.9655  0.0566
  118MOL   H22528539   3.985   5.031   6.467  0.4378 -1.1916 -0.1325
  118MOL   H22628540   3.898   5.127   6.344 -1.3987 -1.8484 -2.2693
  118MOL   H22728541   4.160   4.970   6.298  1.0689  0.2094 -0.4507
  118MOL   H22828542   4.082   5.065   6.183 -1.9270  0.1290  0.2458
  118MOL   H22928543   4.130   5.147   6.328  1.6898 -0.0256 -0.9943
  118MOL   C23028544   3.808   4.906   6.196 -0.1385  0.4189 -0.4723
  118MOL   C23128545   3.893   4.817   6.108  0.2775 -0.0721 -0.6194
  118MOL   C23228546   3.889   4.862   5.958 -0.2330 -0.1713  0.0727
  118MOL   C23328547   3.942   4.760   5.854 -0.2227 -0.2999 -0.0185
  118MOL   H23428548   3.790   5.010   6.169 -1.5854  0.8103  1.9015
  118MOL   H23528549   3.706   4.867   6.200 -0.0902  0.0977 -1.8798
  118MOL   H23628550   3.997   4.810   6.142  0.0129 -1.5125 -0.0644
  118MOL   H23728551   3.943   4.955   5.942 -0.1328 -0.7689 -3.3250
  118MOL   H23828552   3.788   4.895   5.933  0.8443  3.5201  0.3291
  118MOL   H23928553   3.889   4.665   5.862 -0.8617  0.1767  1.7491
  118MOL   H24028554   3.941   4.802   5.753 -2.4949 -0.2263  0.0125
  118MOL   H24128555   4.047   4.735   5.870  0.4647  3.0284  1.0613
  118MOL   H24228556   3.866   4.711   6.113 -0.5144  0.1973  1.1916
  119MOL     C128557   5.496   2.747   3.409  0.0801  0.3303 -0.0949
  119MOL     C228558   5.427   2.680   3.287 -0.6203 -1.1977  0.1837
  119MOL     C328559   5.500   2.557   3.238  0.0270  0.2383  0.5524
  119MOL     C428560   5.627   2.598   3.159  0.0323  0.8177  0.1690
  119MOL     H528561   5.603   2.761   3.395  0.4192 -0.3906  1.5842
  119MOL     H628562   5.450   2.844   3.425 -1.9188 -0.6442  0.1982
  119MOL     H728563   5.341   2.631   3.333 -0.0153 -0.3840  2.2310
  119MOL     H828564   5.432   2.489   3.186  0.2202 -0.0791  0.7100
  119MOL     H928565   5.531   2.504   3.329  0.6039  0.2415  0.3552
  119MOL    H1028566   5.663   2.698   3.182  1.4297  0.2371  0.5530
  119MOL    H1128567   5.709   2.530   3.183 -0.8170 -0.2468  0.1269
  119MOL    H1228568   5.611   2.598   3.051 -0.8224  0.1332  0.2899
  119MOL    H1328569   5.482   2.688   3.500  0.7755  0.6899  0.2425
  119MOL    C1428570   5.359   2.771   3.187  0.1305  0.1544  1.2450
  119MOL    C1528571   5.239   2.853   3.227 -0.6397 -0.3769  0.8552
  119MOL    C1628572   5.118   2.783   3.303 -0.0994  0.3270  0.1963
  119MOL    C1728573   5.019   2.702   3.220  0.7133 -0.4374 -0.2179
  119MOL    H1828574   5.341   2.705   3.102 -1.5552  2.5665 -0.3359
  119MOL    H1928575   5.437   2.837   3.148 -0.5650  0.2865  0.0651
  119MOL    H2028576   5.280   2.921   3.302  0.6775 -0.4132  0.1935
  119MOL    H2128577   5.059   2.863   3.347 -0.8299 -0.6140  0.9707
  119MOL    H2228578   5.155   2.728   3.389  1.4915 -0.2106 -0.8180
  119MOL    H2328579   4.964   2.773   3.158 -0.2643  0.8569  2.0325
  119MOL    H2428580   5.065   2.644   3.141  2.7558  2.0803 -0.9440
  119MOL    H2528581   4.955   2.635   3.277  0.4646  1.4959  1.8725
  119MOL    C2628582   5.190   2.936   3.108  0.1554  0.0727  0.3648
  119MOL    C2728583   5.287   3.045   3.062 -0.3218 -0.3226  0.4374
  119MOL    C2828584   5.266   3.173   3.148 -0.2869 -0.8473  0.1404
  119MOL    C2928585   5.367   3.291   3.109  0.4339 -0.3634  0.3426
  119MOL    H3028586   5.104   2.986   3.152  0.2528 -0.6963  1.4671
  119MOL    H3128587   5.142   2.875   3.031  0.3389 -2.8471  2.4571
  119MOL    H3228588   5.393   3.020   3.066 -0.5281 -0.9764  2.7347
  119MOL    H3328589   5.286   3.147   3.252  1.2657  0.2917  0.1343
  119MOL    H3428590   5.167   3.217   3.137  0.2902  0.0820 -1.4745
  119MOL    H3528591   5.383   3.357   3.194  2.3134  0.7759 -0.8618
  119MOL    H3628592   5.466   3.253   3.085  1.2137  1.4925  0.5141
  119MOL    H3728593   5.334   3.357   3.029 -1.6864 -0.2660  1.2488
  119MOL    C3828594   5.247   3.078   2.914  1.0201  0.2142 -0.2323
  119MOL    C3928595   5.285   2.967   2.816  0.2463 -0.4735 -0.3362
  119MOL    C4028596   5.442   2.948   2.792  0.2279  0.0634  0.3366
  119MOL    C4128597   5.506   3.065   2.714  0.2527  0.2799 -0.2009
  119MOL    H4228598   5.292   3.173   2.887 -0.8600  1.5042  1.0650
  119MOL    H4328599   5.141   3.104   2.918  0.8379 -0.5393 -0.0138
  119MOL    H4428600   5.249   2.871   2.854  0.8776 -0.9650 -0.9564
  119MOL    H4528601   5.461   2.856   2.736 -0.6838  0.6492 -0.9418
  119MOL    H4628602   5.492   2.928   2.887  2.1957  1.4165 -0.3801
  119MOL    H4728603   5.486   3.164   2.753 -1.2844  0.0518 -0.3745
  119MOL    H4828604   5.611   3.057   2.686  0.4149 -1.5877  0.8064
  119MOL    H4928605   5.445   3.074   2.624 -1.6634  0.7467  1.1163
  119MOL    C5028606   5.212   2.982   2.682  0.7265 -0.0626  0.0661
  119MOL    C5128607   5.063   2.938   2.687  1.1791 -0.5283 -0.0668
  119MOL    C5228608   5.041   2.787   2.699 -0.0431 -0.0202  0.4031
  119MOL    C5328609   4.908   2.757   2.760 -0.2736  0.2954 -0.1118
  119MOL    H5428610   5.258   2.928   2.599  0.9784  0.6652 -0.2685
  119MOL    H5528611   5.214   3.088   2.656  0.2446 -0.1211 -0.2195
  119MOL    H5628612   5.023   2.986   2.777  2.0375 -1.2814  0.7241
  119MOL    H5728613   5.123   2.736   2.751 -0.9777 -1.7674  0.2157
  119MOL    H5828614   5.045   2.753   2.595  0.6279 -0.3154  0.5211
  119MOL    H5928615   4.887   2.777   2.865 -0.6523  3.0669 -0.6677
  119MOL    H6028616   4.826   2.810   2.710  0.0556  1.1373  0.2192
  119MOL    H6128617   4.894   2.650   2.752 -1.7712  0.4436  0.3438
  119MOL    C6228618   4.992   2.995   2.570 -0.1116 -0.2173 -0.2759
  119MOL    C6328619   4.949   3.143   2.577 -0.6676 -1.0089  0.1703
  119MOL    C6428620   4.835   3.162   2.680 -0.0955 -0.4987 -0.9403
  119MOL    C6528621   4.880   3.241   2.807 -0.2915  0.1340  0.1884
  119MOL    H6628622   4.909   2.929   2.541 -1.3391  0.4942  1.5295
  119MOL    H6728623   5.059   2.980   2.486  1.9628 -0.2114  1.3602
  119MOL    H6828624   5.044   3.188   2.607 -0.3860 -1.5389  0.0874
  119MOL    H6928625   4.794   3.068   2.717 -0.9040  0.1798 -0.0679
  119MOL    H7028626   4.749   3.218   2.641 -2.2449 -1.0465  2.7374
  119MOL    H7128627   4.923   3.340   2.793  1.2350 -0.4070  0.9533
  119MOL    H7228628   4.798   3.264   2.875 -1.3971 -2.2369 -0.2780
  119MOL    H7328629   4.939   3.176   2.872 -0.9298 -0.6422 -0.0069
  119MOL    C7428630   4.901   3.182   2.439 -0.6288 -0.2980  0.0855
  119MOL    C7528631   4.919   3.339   2.417  1.1651 -0.2349 -0.4751
  119MOL    C7628632   4.839   3.393   2.292  0.0866  0.2969 -0.7471
  119MOL    C7728633   4.698   3.338   2.293 -0.0520 -0.4412  0.2278
  119MOL    H7828634   4.800   3.147   2.416 -0.4736  1.4087 -3.5014
  119MOL    H7928635   4.953   3.127   2.360 -0.0722  0.4488 -0.0732
  119MOL    H8028636   4.878   3.384   2.507  2.5627 -1.3662  0.7563
  119MOL    H8128637   4.885   3.359   2.199 -1.3571  0.2445 -1.4432
  119MOL    H8228638   4.836   3.501   2.304 -0.1075  0.3927 -1.6447
  119MOL    H8328639   4.634   3.397   2.228  0.3153 -1.1058 -0.7485
  119MOL    H8428640   4.699   3.231   2.270  1.8551 -0.1407 -1.1943
  119MOL    H8528641   4.652   3.355   2.390 -1.9159 -0.2967 -0.6573
  119MOL    C8628642   5.069   3.382   2.409 -0.2420 -0.7327  0.1280
  119MOL    C8728643   5.110   3.514   2.474  0.5086  0.4954  0.3403
  119MOL    C8828644   5.221   3.596   2.400  0.3188  0.1372 -0.0495
  119MOL    C8928645   5.177   3.647   2.260 -0.6738 -0.5703 -0.2141
  119MOL    H9028646   5.087   3.384   2.301  0.4633  0.1981  0.2598
  119MOL    H9128647   5.135   3.303   2.444 -0.5420  0.0700  2.5633
  119MOL    H9228648   5.014   3.566   2.472 -0.0765 -0.6133 -1.2958
  119MOL    H9328649   5.308   3.534   2.376 -0.5783 -1.7649  1.4603
  119MOL    H9428650   5.255   3.678   2.462 -0.3564 -0.1083  0.6527
  119MOL    H9528651   5.089   3.709   2.276  0.5638  0.8353  1.4045
  119MOL    H9628652   5.254   3.709   2.214 -1.5568  0.6090 -0.1416
  119MOL    H9728653   5.148   3.568   2.191 -1.6536 -1.0682  0.7631
  119MOL    C9828654   5.149   3.487   2.624  0.2102  0.4020 -0.0989
  119MOL    C9928655   5.137   3.612   2.709 -0.4234 -0.3503  0.2139
  119MOL   C10028656   5.186   3.598   2.852  0.4005  1.0683  0.5626
  119MOL   C10128657   5.338   3.584   2.859  0.3925 -0.7188  0.0331
  119MOL   H10228658   5.249   3.446   2.627 -0.6758 -1.8833 -0.8439
  119MOL   H10328659   5.076   3.417   2.663  0.3240 -0.1231 -0.8259
  119MOL   H10428660   5.202   3.680   2.653 -0.6905 -2.6791 -3.0923
  119MOL   H10528661   5.140   3.513   2.903 -0.6017  2.3049  1.7500
  119MOL   H10628662   5.149   3.681   2.912  0.1264  0.5768  1.0760
  119MOL   H10728663   5.372   3.621   2.956 -0.7686 -1.6459  0.8021
  119MOL   H10828664   5.378   3.486   2.833  1.0035 -0.9411  1.7863
  119MOL   H10928665   5.390   3.655   2.795 -0.4696 -1.1046 -1.1168
  119MOL   C11028666   4.998   3.675   2.713 -0.1305  0.0201 -0.4444
  119MOL   C11128667   4.984   3.816   2.637  0.3805 -0.5248  0.9451
  119MOL   C11228668   5.058   3.929   2.709  0.5436 -0.4049  0.1603
  119MOL   C11328669   5.072   4.060   2.628 -0.5347  0.3905 -0.8152
  119MOL   H11428670   4.971   3.686   2.818 -1.4467 -2.2257 -0.5156
  119MOL   H11528671   4.930   3.597   2.680  1.1321 -0.9198 -0.8506
  119MOL   H11628672   5.029   3.803   2.538 -0.3631 -0.8923  0.6479
  119MOL   H11728673   5.157   3.890   2.730 -0.4976 -2.8452  0.6951
  119MOL   H11828674   5.020   3.946   2.810  1.7224  0.3793  0.4890
  119MOL   H11928675   5.127   4.039   2.537 -0.4973  0.6680 -0.8540
  119MOL   H12028676   4.971   4.097   2.608 -1.1013 -0.5784  0.1250
  119MOL   H12128677   5.125   4.128   2.694 -0.4673 -0.1265 -0.3286
  119MOL   C12228678   4.838   3.846   2.600  0.7026  0.3046 -0.0048
  119MOL   C12328679   4.774   3.788   2.472 -0.0138 -0.0919  0.5492
  119MOL   C12428680   4.829   3.864   2.352 -0.4108 -0.2049  0.0670
  119MOL   C12528681   4.794   3.804   2.220 -0.2700  0.3273 -0.1096
  119MOL   H12628682   4.816   3.953   2.610 -0.8469 -0.1195  1.3225
  119MOL   H12728683   4.782   3.796   2.679 -0.1255  1.1844 -0.0128
  119MOL   H12828684   4.821   3.690   2.466  1.7142  0.7816 -0.3764
  119MOL   H12928685   4.938   3.870   2.354 -0.3164 -1.8893  0.4978
  119MOL   H13028686   4.807   3.970   2.357 -2.4379 -0.6068 -0.1756
  119MOL   H13128687   4.841   3.707   2.211 -0.8440 -0.3204  3.2318
  119MOL   H13228688   4.686   3.790   2.210 -0.3708  0.8175  0.2431
  119MOL   H13328689   4.834   3.862   2.137  0.6495  0.8710  0.7064
  119MOL   C13428690   4.619   3.797   2.466 -0.1029  0.0226  0.3015
  119MOL   C13528691   4.543   3.746   2.589 -0.3152 -0.2085 -0.4184
  119MOL   C13628692   4.566   3.601   2.612 -0.0635  0.2714  0.0059
  119MOL   C13728693   4.523   3.550   2.758  0.3395  0.1561 -0.2042
  119MOL   H13828694   4.580   3.737   2.384 -0.8550  1.2978 -0.2965
  119MOL   H13928695   4.597   3.901   2.440 -0.6219 -0.1636 -0.0134
  119MOL   H14028696   4.573   3.791   2.684  1.3314 -1.1531 -0.4657
  119MOL   H14128697   4.669   3.575   2.588 -0.6090 -1.5344 -0.5320
  119MOL   H14228698   4.515   3.542   2.535 -0.0877  0.0761  0.1697
  119MOL   H14328699   4.420   3.568   2.789  0.9805  0.1702  2.0510
  119MOL   H14428700   4.570   3.453   2.773  2.7522  1.2106 -0.6664
  119MOL   H14528701   4.578   3.612   2.829 -1.0949  0.1307  0.9537
  119MOL   C14628702   4.394   3.770   2.577  0.4075 -0.5311  0.3353
  119MOL   C14728703   4.354   3.914   2.625  1.1234 -0.5442 -0.0523
  119MOL   C14828704   4.375   3.929   2.776  0.1697  0.2266  0.1418
  119MOL   C14928705   4.287   3.848   2.870  0.1877 -0.4380 -0.5459
  119MOL   H15028706   4.336   3.701   2.638 -0.3702  1.5399  1.9987
  119MOL   H15128707   4.372   3.760   2.471  3.7164  2.4188 -0.7085
  119MOL   H15228708   4.418   3.987   2.576  0.3419  0.9602  1.1343
  119MOL   H15328709   4.351   4.034   2.792  0.1139 -0.0380  1.8154
  119MOL   H15428710   4.482   3.920   2.797  0.2527  0.4056 -0.2045
  119MOL   H15528711   4.301   3.740   2.861 -1.1686 -0.7005  0.2722
  119MOL   H15628712   4.308   3.865   2.975  2.7933  0.1222 -1.1405
  119MOL   H15728713   4.180   3.867   2.860  0.0135 -1.0830  0.0996
  119MOL   C15828714   4.205   3.949   2.583 -1.1070  0.4512  0.5531
  119MOL   C15928715   4.185   3.967   2.425 -0.2374  0.5904 -0.3805
  119MOL   C16028716   4.291   4.048   2.349 -0.6180  0.5177  0.0105
  119MOL   C16128717   4.276   4.207   2.373 -0.3521 -0.2653  0.4955
  119MOL   H16228718   4.187   4.047   2.626 -1.8896  0.7160 -0.3512
  119MOL   H16328719   4.124   3.890   2.627  0.3205 -1.6706  0.4154
  119MOL   H16428720   4.191   3.865   2.386  1.9747  0.2142  0.8820
  119MOL   H16528721   4.287   4.008   2.248  0.1255 -2.2749  1.0408
  119MOL   H16628722   4.391   4.012   2.374  0.0910  2.2442 -0.2475
  119MOL   H16728723   4.182   4.253   2.342  1.6551  1.4180 -3.4139
  119MOL   H16828724   4.303   4.219   2.478  1.7246  1.8883 -0.2247
  119MOL   H16928725   4.350   4.265   2.316 -1.4963  0.6259 -0.1018
  119MOL   C17028726   4.039   4.015   2.394  0.2552  0.4575  0.5806
  119MOL   C17128727   3.917   3.915   2.399 -0.2239  0.2774  0.0894
  119MOL   C17228728   3.864   3.881   2.541 -0.7340 -0.2287  0.4965
  119MOL   C17328729   3.729   3.812   2.544 -0.0301  0.3819 -0.0502
  119MOL   H17428730   4.034   4.059   2.294  1.5073  0.1502  0.3816
  119MOL   H17528731   4.018   4.097   2.463  1.4822  1.1189  0.1737
  119MOL   H17628732   3.839   3.975   2.353 -1.3651 -1.4991 -0.3332
  119MOL   H17728733   3.844   3.973   2.596 -1.2826 -0.2706  0.3619
  119MOL   H17828734   3.931   3.824   2.606  0.2754  0.6980  0.2822
  119MOL   H17928735   3.731   3.719   2.487  1.1925  0.0006  0.6060
  119MOL   H18028736   3.692   3.801   2.646  0.9700  2.3854  0.5552
  119MOL   H18128737   3.652   3.877   2.502  0.9213  1.7596  0.2914
  119MOL   C18228738   3.946   3.787   2.315  0.2253  0.2101 -0.4482
  119MOL   C18328739   3.964   3.804   2.165 -0.2805  0.9286  0.1948
  119MOL   C18428740   3.830   3.819   2.091  0.2345 -0.0713 -0.6077
  119MOL   C18528741   3.835   3.874   1.947  0.6824 -0.7538 -0.4270
  119MOL   H18628742   3.857   3.724   2.324 -0.4249  1.0421 -0.9548
  119MOL   H18728743   4.029   3.735   2.363 -0.3411 -0.5168 -0.2527
  119MOL   H18828744   4.019   3.896   2.148  0.1542  0.6696  0.1833
  119MOL   H18928745   3.766   3.882   2.153  2.2050 -0.1363  1.5575
  119MOL   H19028746   3.784   3.720   2.085  1.4792 -0.9748  3.1961
  119MOL   H19128747   3.900   3.818   1.879  2.4426 -0.4274  0.9342
  119MOL   H19228748   3.733   3.878   1.909  0.2545 -1.4084  0.6377
  119MOL   H19328749   3.867   3.978   1.954  0.5035 -0.4739 -3.2548
  119MOL   C19428750   4.034   3.683   2.100  0.0836 -0.0514 -0.0108
  119MOL   C19528751   4.182   3.665   2.134  0.0444 -0.7676 -0.0147
  119MOL   C19628752   4.273   3.759   2.065  0.0003 -0.3521  0.0011
  119MOL   C19728753   4.421   3.746   2.102 -0.0880 -0.3388 -0.0122
  119MOL   H19828754   4.032   3.696   1.991 -0.1832 -0.2741 -0.0317
  119MOL   H19928755   3.974   3.592   2.109  1.8693 -1.6219 -2.9894
  119MOL   H20028756   4.194   3.691   2.239 -0.8270 -1.9932  0.4074
  119MOL   H20128757   4.255   3.866   2.082  1.8599 -0.0567  0.1572
  119MOL   H20228758   4.274   3.751   1.956 -0.6077  1.2376 -0.1468
  119MOL   H20328759   4.470   3.669   2.042 -2.1659 -1.3450 -0.4833
  119MOL   H20428760   4.477   3.839   2.090 -2.5015  0.9461 -1.7480
  119MOL   H20528761   4.441   3.708   2.202  0.2374  2.3539  0.9683
  119MOL   C20628762   4.220   3.511   2.119 -0.5065  0.2751 -0.1823
  119MOL   C20728763   4.181   3.425   2.244 -0.0625 -0.6131  0.2430
  119MOL   C20828764   4.259   3.461   2.376 -1.1546  0.8685 -0.9079
  119MOL   C20928765   4.245   3.380   2.498  0.3016 -0.0348  0.4293
  119MOL   H21028766   4.328   3.505   2.112 -0.1818  0.3738  3.4549
  119MOL   H21128767   4.186   3.474   2.022  2.7860  0.4642 -1.4444
  119MOL   H21228768   4.077   3.431   2.276 -0.9384 -1.0072 -2.3946
  119MOL   H21328769   4.252   3.568   2.398  0.0823  0.8284 -0.2719
  119MOL   H21428770   4.362   3.454   2.342 -0.1023  2.3163  1.8126
  119MOL   H21528771   4.312   3.425   2.571 -0.4203  2.2544 -0.2909
  119MOL   H21628772   4.143   3.376   2.537 -0.0041 -1.8438 -0.4768
  119MOL   H21728773   4.274   3.275   2.493  2.1560  0.5167 -0.8359
  119MOL   C21828774   4.202   3.278   2.209 -0.2322 -0.7145 -0.0625
  119MOL   C21928775   4.108   3.216   2.101  0.2931  0.5358  0.0636
  119MOL   C22028776   3.952   3.245   2.133  0.5875 -0.3256 -0.8874
  119MOL   C22128777   3.905   3.182   2.267  0.2834 -1.0928  0.0362
  119MOL   H22228778   4.179   3.208   2.289 -1.9356 -0.6724 -0.5124
  119MOL   H22328779   4.310   3.268   2.193  0.0740  1.8317  0.2400
  119MOL   H22428780   4.131   3.261   2.005 -3.5477  0.3242 -1.0456
  119MOL   H22528781   3.888   3.204   2.055  2.3710 -0.6593 -2.2062
  119MOL   H22628782   3.934   3.353   2.135  1.0583 -0.2632  0.6225
  119MOL   H22728783   3.802   3.204   2.294  0.5664  1.1580 -0.6662
  119MOL   H22828784   3.921   3.076   2.290  1.3144 -0.5773  1.7902
  119MOL   H22928785   3.953   3.237   2.348  0.6078 -0.6545 -0.4444
  119MOL   C23028786   4.133   3.065   2.084  0.7482  0.1103  0.9222
  119MOL   C23128787   4.042   3.008   1.972  0.7249  0.1945  0.9494
  119MOL   C23228788   4.097   2.875   1.907  0.2584  0.4790 -0.3743
  119MOL   C23328789   4.042   2.861   1.765  0.3355  0.5000  0.1028
  119MOL   H23428790   4.121   3.009   2.176 -2.3358  0.9767  1.0976
  119MOL   H23528791   4.235   3.062   2.045  0.8359 -1.4473  1.2468
  119MOL   H23628792   3.941   2.985   2.007 -0.4859  1.0848 -1.8699
  119MOL   H23728793   4.063   2.783   1.957 -0.2312  0.9939  0.2597
  119MOL   H23828794   4.205   2.871   1.902  0.1291  0.3632 -3.7859
  119MOL   H23928795   4.087   2.775   1.715  1.8795  2.0317 -1.2210
  119MOL   H24028796   3.935   2.841   1.769  0.4963 -0.0637  2.0841
  119MOL   H24128797   4.058   2.948   1.701  1.0654 -0.0171 -0.4297
  119MOL   H24228798   4.021   3.078   1.892  0.1839 -1.0290  0.0068
  120MOL     C128799   5.462   2.236   4.501  0.3825  0.1117  0.2154
  120MOL     C228800   5.432   2.088   4.461 -0.1411  0.4575  0.0568
  120MOL     C328801   5.304   2.084   4.383  0.7063  1.1717 -0.7236
  120MOL     C428802   5.273   1.948   4.329 -0.3705 -0.1097 -0.1097
  120MOL     H528803   5.446   2.306   4.419  0.9205  0.1714  0.1576
  120MOL     H628804   5.405   2.269   4.588 -1.6548  2.9202 -2.0716
  120MOL     H728805   5.507   2.067   4.384  0.8142  0.5578  0.9520
  120MOL     H828806   5.307   2.161   4.306  0.6370  0.4054 -1.4954
  120MOL     H928807   5.226   2.108   4.454 -0.3761  1.1651 -1.8995
  120MOL    H1028808   5.345   1.932   4.248 -0.3633 -1.6211  0.1804
  120MOL    H1128809   5.284   1.868   4.402 -0.5335 -0.9158 -0.9546
  120MOL    H1228810   5.176   1.930   4.284  0.5105 -0.4574 -1.9375
  120MOL    H1328811   5.568   2.259   4.513  0.1897  0.6048  1.0510
  120MOL    C1428812   5.453   1.989   4.571  0.0454  0.0058  0.3789
  120MOL    C1528813   5.596   1.977   4.626 -0.7043  0.4842 -0.5469
  120MOL    C1628814   5.715   1.945   4.520 -1.0469  0.1255 -0.1285
  120MOL    C1728815   5.687   1.817   4.435  0.4339  1.6141 -0.7427
  120MOL    H1828816   5.424   1.887   4.546  0.1493 -0.2596  1.3063
  120MOL    H1928817   5.383   2.015   4.650 -0.2723  1.1459 -0.2772
  120MOL    H2028818   5.622   2.076   4.662 -0.0179 -0.2270  0.9580
  120MOL    H2128819   5.810   1.930   4.570 -0.2608 -3.5957 -2.5741
  120MOL    H2228820   5.704   2.030   4.453 -2.5747  0.3156  0.3287
  120MOL    H2328821   5.679   1.725   4.493  0.5626  2.4036  0.5455
  120MOL    H2428822   5.597   1.827   4.375 -0.6891 -1.2059  0.3781
  120MOL    H2528823   5.765   1.792   4.362  0.7236  1.4648 -0.3849
  120MOL    C2628824   5.602   1.882   4.755 -0.3350 -0.3301  0.4683
  120MOL    C2728825   5.733   1.898   4.852 -0.3546  0.4751  0.4214
  120MOL    C2828826   5.758   1.771   4.935  0.1909 -0.4518  0.2913
  120MOL    C2928827   5.843   1.656   4.867 -0.6499  0.3376  1.3265
  120MOL    H3028828   5.608   1.787   4.703 -2.2734 -1.0495  1.5028
  120MOL    H3128829   5.510   1.883   4.814  0.2945 -3.1968  1.5854
  120MOL    H3228830   5.824   1.911   4.794 -0.1094  1.5130  1.0360
  120MOL    H3328831   5.659   1.741   4.970 -0.0389 -0.6477 -0.4985
  120MOL    H3428832   5.811   1.808   5.023 -2.5694 -0.5817  2.0790
  120MOL    H3528833   5.871   1.585   4.945 -0.9486 -2.3411 -0.8961
  120MOL    H3628834   5.809   1.608   4.775  2.8998 -0.2279  0.2374
  120MOL    H3728835   5.943   1.679   4.831 -1.4398 -1.0880 -2.0204
  120MOL    C3828836   5.711   2.024   4.942 -0.3684 -0.2527 -0.0848
  120MOL    C3928837   5.844   2.096   4.989 -0.6609  0.8754  0.8428
  120MOL    C4028838   5.803   2.166   5.118 -0.5614 -0.1913 -0.5792
  120MOL    C4128839   5.810   2.083   5.244  0.6961  0.1863 -0.1818
  120MOL    H4228840   5.651   1.992   5.027 -0.6971  0.4332 -0.0497
  120MOL    H4328841   5.653   2.099   4.888 -1.3097 -1.7993 -1.2442
  120MOL    H4428842   5.918   2.022   5.019 -1.3117 -0.8114 -1.6019
  120MOL    H4528843   5.706   2.213   5.102 -0.2109 -0.3679 -3.5442
  120MOL    H4628844   5.874   2.249   5.126 -0.4112 -0.3584 -0.1761
  120MOL    H4728845   5.890   2.008   5.251  0.1586 -0.4944 -1.1420
  120MOL    H4828846   5.834   2.138   5.335 -2.3992  0.8089  0.3130
  120MOL    H4928847   5.713   2.034   5.256  0.4727  0.8332  0.6603
  120MOL    C5028848   5.907   2.187   4.881  0.1524 -0.5105  0.3036
  120MOL    C5128849   6.047   2.245   4.911 -0.5807 -0.6438 -0.1435
  120MOL    C5228850   6.080   2.361   4.813 -0.1813  0.0811  0.7603
  120MOL    C5328851   6.117   2.312   4.677 -0.2637 -0.0840 -0.1315
  120MOL    H5428852   5.839   2.271   4.867 -0.3192 -1.1093 -1.0773
  120MOL    H5528853   5.897   2.149   4.780 -1.0702  4.3133 -1.4979
  120MOL    H5628854   6.048   2.302   5.004  0.3555 -0.0412 -0.5051
  120MOL    H5728855   6.158   2.420   4.861 -0.3504  1.5317 -0.6876
  120MOL    H5828856   5.994   2.426   4.797 -0.0822  0.0567  0.1301
  120MOL    H5928857   6.145   2.400   4.619 -2.3859  0.6904 -0.0297
  120MOL    H6028858   6.202   2.243   4.671  1.7687  2.0723  2.5934
  120MOL    H6128859   6.036   2.265   4.621 -1.4319  1.2578  0.4260
  120MOL    C6228860   6.161   2.132   4.910 -0.2021  0.2027 -0.2615
  120MOL    C6328861   6.303   2.185   4.946  0.5678 -0.5167 -1.1254
  120MOL    C6428862   6.409   2.070   4.943  0.3169  0.2116 -0.0572
  120MOL    C6528863   6.550   2.103   4.982 -0.0185  0.7357  0.2676
  120MOL    H6628864   6.165   2.094   4.808 -0.7261 -1.0974  0.1911
  120MOL    H6728865   6.128   2.038   4.955  1.1078  0.6454  1.6783
  120MOL    H6828866   6.328   2.258   4.870 -0.3160  0.5557 -0.4059
  120MOL    H6928867   6.404   2.025   4.844  1.5850  0.7287 -0.3780
  120MOL    H7028868   6.378   1.996   5.017  0.2809  0.6340  0.3576
  120MOL    H7128869   6.602   2.180   4.923  0.1783  0.1369 -0.3507
  120MOL    H7228870   6.553   2.135   5.086  0.6731 -1.7280  1.0374
  120MOL    H7328871   6.613   2.014   4.985 -2.6203 -1.1848 -0.7711
  120MOL    C7428872   6.312   2.263   5.086 -0.1563 -0.1958 -0.6217
  120MOL    C7528873   6.290   2.190   5.224  0.5086  0.5661 -0.3386
  120MOL    C7628874   6.157   2.103   5.228 -0.3876  0.2744  0.0772
  120MOL    C7728875   6.138   2.037   5.363  0.6200 -0.2816 -0.3955
  120MOL    H7828876   6.240   2.344   5.093 -0.4765 -0.4700 -0.7529
  120MOL    H7928877   6.409   2.313   5.093  0.6576 -1.9192  0.7324
  120MOL    H8028878   6.365   2.111   5.222 -0.5857 -0.5652  1.6515
  120MOL    H8128879   6.162   2.030   5.148  0.3514  2.3378 -1.8192
  120MOL    H8228880   6.068   2.164   5.210 -0.2558  0.2581 -0.6509
  120MOL    H8328881   6.097   1.936   5.354 -2.8873  1.1686 -1.4207
  120MOL    H8428882   6.232   2.019   5.414  0.1538 -0.6838  0.3454
  120MOL    H8528883   6.069   2.082   5.435  0.8327 -0.0304 -0.3525
  120MOL    C8628884   6.316   2.279   5.344 -0.3005  0.0724 -0.5835
  120MOL    C8728885   6.460   2.275   5.412  0.6167 -0.1295 -0.4853
  120MOL    C8828886   6.476   2.140   5.480 -0.0639  0.5629  0.5037
  120MOL    C8928887   6.619   2.106   5.525  0.4299 -0.1123  0.1016
  120MOL    H9028888   6.240   2.249   5.415 -0.0305 -1.8968 -1.0699
  120MOL    H9128889   6.296   2.382   5.315 -1.8133  0.3539  1.4174
  120MOL    H9228890   6.532   2.281   5.331  1.8345 -0.4960  0.5456
  120MOL    H9328891   6.455   2.059   5.411 -1.4614 -1.4223  3.1784
  120MOL    H9428892   6.403   2.133   5.561  0.9617  0.3174  1.4330
  120MOL    H9528893   6.665   2.183   5.588  2.2727  0.9056 -2.4244
  120MOL    H9628894   6.624   1.999   5.545  1.1737 -0.0824  0.1029
  120MOL    H9728895   6.682   2.108   5.436 -3.6862 -2.6663 -3.0303
  120MOL    C9828896   6.486   2.404   5.504 -0.2454 -0.4920  0.6443
  120MOL    C9928897   6.472   2.539   5.435 -0.1174 -0.8795 -0.0668
  120MOL   C10028898   6.564   2.545   5.310  0.5699  0.3735  0.0355
  120MOL   C10128899   6.712   2.519   5.327  0.2146  0.7825  0.0056
  120MOL   H10228900   6.589   2.398   5.538 -0.2566 -1.9141  0.4550
  120MOL   H10328901   6.422   2.388   5.591 -1.5948  1.8621  0.1426
  120MOL   H10428902   6.372   2.542   5.392  0.0058  1.0941 -0.2449
  120MOL   H10528903   6.535   2.645   5.277 -0.7912  0.6333  1.9418
  120MOL   H10628904   6.524   2.485   5.229  0.4543 -1.4392  1.3912
  120MOL   H10728905   6.748   2.440   5.393 -0.3240  0.2425 -0.3391
  120MOL   H10828906   6.758   2.501   5.231 -2.1079 -0.6240 -0.9046
  120MOL   H10928907   6.755   2.614   5.358  0.9662 -0.0853  1.6763
  120MOL   C11028908   6.488   2.664   5.533  0.1799 -0.1935 -0.5870
  120MOL   C11128909   6.365   2.673   5.633  0.4852  0.4420  0.6259
  120MOL   C11228910   6.241   2.723   5.555  0.0846  0.1196  0.5436
  120MOL   C11328911   6.111   2.689   5.625  0.1805 -0.7492  0.5796
  120MOL   H11428912   6.484   2.763   5.487  0.5502  0.8265  1.5183
  120MOL   H11528913   6.587   2.664   5.580 -0.0440  1.1764 -0.0878
  120MOL   H11628914   6.327   2.573   5.659 -0.6549  0.2928 -1.4915
  120MOL   H11728915   6.250   2.686   5.452  0.5947  1.7951 -0.0310
  120MOL   H11828916   6.248   2.832   5.552  1.6427  0.0739  2.0053
  120MOL   H11928917   6.027   2.709   5.559  1.3235 -1.7128 -1.2124
  120MOL   H12028918   6.114   2.584   5.656  1.7759 -1.0895 -0.6150
  120MOL   H12128919   6.093   2.752   5.712 -0.9262 -1.9371  1.2172
  120MOL   C12228920   6.401   2.760   5.759  0.2001  0.3036 -0.2288
  120MOL   C12328921   6.336   2.710   5.888  0.0830 -0.4838 -0.4893
  120MOL   C12428922   6.338   2.828   5.991 -0.1843 -0.7435  0.4500
  120MOL   C12528923   6.224   2.935   5.975  0.1827 -0.5995  1.0047
  120MOL   H12628924   6.382   2.866   5.738 -0.1329  0.3340  0.2045
  120MOL   H12728925   6.509   2.759   5.770  0.2157 -0.6466 -0.4623
  120MOL   H12828926   6.228   2.698   5.879  0.2646 -1.2510 -1.9980
  120MOL   H12928927   6.432   2.883   5.985  0.3439 -1.7585 -0.9116
  120MOL   H13028928   6.340   2.783   6.091  1.5055 -3.8921 -0.9328
  120MOL   H13128929   6.228   2.987   5.880  1.2585  2.8248  2.8692
  120MOL   H13228930   6.123   2.894   5.969  0.3870 -1.0690  0.7521
  120MOL   H13328931   6.233   2.996   6.065  0.8612  0.4568  0.2126
  120MOL   C13428932   6.414   2.595   5.943 -0.0756  0.6561  0.7040
  120MOL   C13528933   6.344   2.512   6.056 -0.1661  0.3587 -0.0998
  120MOL   C13628934   6.442   2.435   6.141 -0.1525 -0.1233 -0.3900
  120MOL   C13728935   6.537   2.517   6.235  0.1049 -0.1638  0.8222
  120MOL   H13828936   6.513   2.633   5.969  1.1301 -2.0136  0.1893
  120MOL   H13928937   6.446   2.516   5.875  1.6297  0.2480  1.9443
  120MOL   H14028938   6.287   2.575   6.125  0.9245  1.1053  0.1212
  120MOL   H14128939   6.501   2.373   6.074 -1.7031 -0.7611 -1.1878
  120MOL   H14228940   6.391   2.367   6.210  2.5352 -1.0584  0.7563
  120MOL   H14328941   6.609   2.456   6.290 -0.5360 -0.6784  1.0980
  120MOL   H14428942   6.592   2.595   6.182  2.1628 -1.3631  1.1651
  120MOL   H14528943   6.477   2.560   6.315  0.4767 -0.0795  1.0550
  120MOL   C14628944   6.249   2.409   5.991 -0.1414 -0.0647 -0.6264
  120MOL   C14728945   6.130   2.350   6.076 -0.4963 -0.3314  0.4721
  120MOL   C14828946   6.080   2.224   6.002  0.0762 -0.5333 -0.1458
  120MOL   C14928947   5.980   2.252   5.886 -0.0281 -0.1651  0.6163
  120MOL   H15028948   6.321   2.346   5.939  2.2499  1.4460  0.7336
  120MOL   H15128949   6.196   2.454   5.908  0.9888  0.5561 -1.0256
  120MOL   H15228950   6.179   2.307   6.164  1.9399  3.2475  0.9766
  120MOL   H15328951   6.033   2.165   6.081 -2.2444  1.2311 -0.1611
  120MOL   H15428952   6.168   2.168   5.970  0.6745  0.9919 -1.2228
  120MOL   H15528953   5.890   2.293   5.932 -0.1856 -0.6012  0.7043
  120MOL   H15628954   6.023   2.327   5.820 -0.4075 -0.6167 -0.1600
  120MOL   H15728955   5.971   2.156   5.834  1.4102 -0.2937  0.5852
  120MOL   C15828956   6.026   2.450   6.125 -0.1724  0.1764 -0.2515
  120MOL   C15928957   5.907   2.405   6.221 -0.2396 -1.1854 -0.2701
  120MOL   C16028958   5.772   2.456   6.156 -0.6120 -0.3163 -0.2916
  120MOL   C16128959   5.647   2.383   6.225 -0.1115 -0.3199 -0.1215
  120MOL   H16228960   6.000   2.529   6.054 -0.4308 -0.0080 -0.3608
  120MOL   H16328961   6.083   2.520   6.187 -0.9073 -0.2901  0.9702
  120MOL   H16428962   5.896   2.298   6.232  0.1458 -1.3309 -1.2739
  120MOL   H16528963   5.771   2.434   6.050  0.3935 -1.5037 -0.0733
  120MOL   H16628964   5.767   2.563   6.178  0.1458 -0.7825  2.4003
  120MOL   H16728965   5.650   2.274   6.219 -1.5520 -0.4127  0.7158
  120MOL   H16828966   5.618   2.409   6.326 -0.0422  0.2642 -0.2525
  120MOL   H16928967   5.560   2.407   6.164 -0.4796  1.4708  1.0876
  120MOL   C17028968   5.916   2.467   6.367 -0.8779 -0.3076  0.6145
  120MOL   C17128969   6.031   2.412   6.448 -0.2563  0.7667 -0.1304
  120MOL   C17228970   6.020   2.255   6.467 -0.2058 -0.7699  0.7425
  120MOL   C17328971   5.898   2.180   6.535 -0.4739 -0.2416  0.6537
  120MOL   H17428972   5.824   2.463   6.425 -1.4641 -0.8487 -0.3341
  120MOL   H17528973   5.929   2.574   6.353 -3.2023  0.1289  1.5639
  120MOL   H17628974   6.122   2.447   6.399 -0.6598 -1.1283 -2.3322
  120MOL   H17728975   6.111   2.231   6.521  0.2504 -1.8463 -0.4896
  120MOL   H17828976   6.040   2.216   6.367  0.9022  1.4520  0.0459
  120MOL   H17928977   5.903   2.205   6.641 -0.0601  2.8797 -0.0454
  120MOL   H18028978   5.806   2.214   6.490  1.3039  2.5219 -1.0391
  120MOL   H18128979   5.895   2.072   6.524 -2.0158 -0.2537  1.1002
  120MOL   C18228980   6.038   2.472   6.594  0.0233  0.0830  0.1781
  120MOL   C18328981   6.050   2.626   6.611  0.9386  0.6197  0.7255
  120MOL   C18428982   6.177   2.684   6.540  0.3857  0.0653  0.0599
  120MOL   C18528983   6.303   2.607   6.575 -0.1129 -0.9973 -0.1411
  120MOL   H18628984   6.119   2.430   6.653  1.9667  1.7287 -1.2331
  120MOL   H18728985   5.944   2.453   6.644 -0.2543  1.2884  0.1370
  120MOL   H18828986   5.965   2.671   6.560  0.8120 -0.8240 -0.3802
  120MOL   H18928987   6.183   2.788   6.573 -0.1093 -0.2085  1.0299
  120MOL   H19028988   6.151   2.701   6.435  1.1688  0.9084 -0.0030
  120MOL   H19128989   6.298   2.507   6.530  1.0448 -1.0186 -0.2392
  120MOL   H19228990   6.381   2.656   6.515 -1.8128  0.2302 -1.3837
  120MOL   H19328991   6.328   2.608   6.681  0.1517  1.9809 -0.2006
  120MOL   C19428992   6.039   2.660   6.762  0.7601  0.6260 -0.4866
  120MOL   C19528993   5.911   2.682   6.841  0.1146 -0.0435  0.5851
  120MOL   C19628994   5.880   2.550   6.917 -0.2320 -0.4014 -0.2516
  120MOL   C19728995   5.785   2.570   7.030 -0.1997 -0.5245 -0.6111
  120MOL   H19828996   6.103   2.748   6.774  0.6748  1.0679 -2.9447
  120MOL   H19928997   6.098   2.587   6.817  0.8369  2.1139  1.4676
  120MOL   H20028998   5.944   2.755   6.914 -1.2007  1.4382 -0.2559
  120MOL   H20128999   5.975   2.519   6.961 -1.5501 -2.4724  1.1888
  120MOL   H20229000   5.860   2.469   6.847  1.3126 -1.2887  0.3067
  120MOL   H20329001   5.747   2.472   7.061 -2.4889  0.6697  0.4485
  120MOL   H20429002   5.826   2.637   7.105  0.9722 -0.4598 -1.2987
  120MOL   H20529003   5.695   2.624   7.001  0.0389 -0.4335 -1.2109
  120MOL   C20629004   5.788   2.733   6.770  0.4442 -0.2680 -0.0313
  120MOL   C20729005   5.810   2.873   6.704 -0.5155  0.4047 -0.3248
  120MOL   C20829006   5.808   2.984   6.813  0.2190 -0.1711  0.0711
  120MOL   C20929007   5.671   3.024   6.869 -0.2424  0.1977  0.4182
  120MOL   H21029008   5.712   2.746   6.848 -1.4757 -0.6944 -1.7992
  120MOL   H21129009   5.748   2.661   6.699 -0.0732 -0.9478  0.9250
  120MOL   H21229010   5.913   2.863   6.670  0.6082 -1.7093  3.5156
  120MOL   H21329011   5.863   3.069   6.774  0.8985 -1.1572 -1.1791
  120MOL   H21429012   5.874   2.955   6.895  0.6698  0.8271  0.0630
  120MOL   H21529013   5.688   3.103   6.942 -2.1185  1.6097 -0.6418
  120MOL   H21629014   5.592   3.049   6.799  0.9118  0.1110 -0.9313
  120MOL   H21729015   5.619   2.942   6.920 -1.0512  0.0287 -0.6722
  120MOL   C21829016   5.710   2.905   6.594  0.3903  1.1407 -0.3992
  120MOL   C21929017   5.744   2.845   6.450  0.6949 -0.1619  0.7712
  120MOL   C22029018   5.856   2.922   6.377 -0.4632 -0.2816 -0.3293
  120MOL   C22129019   5.903   2.848   6.245  0.0313  0.3718  0.2844
  120MOL   H22229020   5.704   3.013   6.582 -2.3997  1.0999  0.2489
  120MOL   H22329021   5.608   2.878   6.622  0.4528  2.2968  1.0408
  120MOL   H22429022   5.778   2.743   6.471  0.9004 -0.3976 -0.6893
  120MOL   H22529023   5.942   2.950   6.439  0.2403 -1.4413 -0.7688
  120MOL   H22629024   5.822   3.022   6.348  2.3847  0.8686  0.1241
  120MOL   H22729025   5.947   2.756   6.284  0.5458  0.1053 -0.9172
  120MOL   H22829026   5.833   2.835   6.163  0.1967 -0.6385  0.2960
  120MOL   H22929027   5.982   2.905   6.197  1.3801 -0.5389  1.3904
  120MOL   C23029028   5.617   2.835   6.361  0.1206 -0.2543 -0.0343
  120MOL   C23129029   5.537   2.972   6.336  0.0413 -0.5817 -0.7374
  120MOL   C23229030   5.553   3.031   6.190 -0.6719 -0.7070  0.2773
  120MOL   C23329031   5.486   3.166   6.178  0.7992 -0.0970 -0.0168
  120MOL   H23429032   5.541   2.762   6.388 -0.1627  0.4619  1.1425
  120MOL   H23529033   5.647   2.807   6.260  1.1812  0.3231  0.1102
  120MOL   H23629034   5.432   2.957   6.362  0.5324 -2.4586  0.2577
  120MOL   H23729035   5.518   2.956   6.118 -1.7846 -0.6305  0.7198
  120MOL   H23829036   5.660   3.047   6.177 -0.4988 -0.0265  2.3611
  120MOL   H23929037   5.378   3.155   6.168  0.8442  0.2693 -0.9823
  120MOL   H24029038   5.527   3.231   6.255  0.6667 -3.1692  2.7176
  120MOL   H24129039   5.511   3.220   6.086 -0.0995  0.2862 -0.0420
  120MOL   H24229040   5.573   3.047   6.407  0.4031 -0.7939 -0.6959
  121MOL     C129041   0.544   0.739   2.618 -0.5301 -0.4123  0.1028
  121MOL     C229042   0.696   0.729   2.597 -0.2194  0.4266  0.1584
  121MOL     C329043   0.771   0.621   2.681 -0.2320  0.4689 -0.2562
  121MOL     C429044   0.711   0.481   2.688  0.2606 -0.3520  0.1243
  121MOL     H529045   0.491   0.652   2.578  1.2641 -1.1970 -0.6206
  121MOL     H629046   0.520   0.743   2.725 -1.4014 -0.7469 -0.0786
  121MOL     H729047   0.704   0.691   2.495  2.6522 -0.4913  0.7042
  121MOL     H829048   0.780   0.663   2.781 -1.4988 -1.7289  0.8099
  121MOL     H929049   0.869   0.616   2.633 -0.9442  1.1909 -1.8172
  121MOL    H1029050   0.719   0.414   2.603  2.1359 -0.6739  0.5327
  121MOL    H1129051   0.761   0.428   2.769  0.1167 -0.9722 -0.1918
  121MOL    H1229052   0.608   0.495   2.723  0.7085  0.4155  1.1710
  121MOL    H1329053   0.500   0.824   2.567 -2.8261 -1.6121  0.0176
  121MOL    C1429054   0.763   0.868   2.616  0.8029 -0.8816  0.2840
  121MOL    C1529055   0.890   0.896   2.533 -0.7296 -0.2062 -0.0686
  121MOL    C1629056   0.982   0.968   2.626 -0.5050 -0.2288  0.5696
  121MOL    C1729057   0.938   1.109   2.675  0.0319 -0.6793 -0.8138
  121MOL    H1829058   0.778   0.896   2.720  1.0186 -1.3968  0.3931
  121MOL    H1929059   0.696   0.943   2.575  2.3709 -1.1713 -2.9875
  121MOL    H2029060   0.932   0.799   2.506  0.2440 -0.4707  2.2603
  121MOL    H2129061   1.080   0.985   2.581 -0.7518 -0.4026 -0.0307
  121MOL    H2229062   0.996   0.899   2.710 -0.0251 -0.9900 -0.1337
  121MOL    H2329063   1.001   1.136   2.760 -0.4702 -0.6246 -0.4566
  121MOL    H2429064   0.946   1.186   2.598 -1.5160 -2.2454 -2.5851
  121MOL    H2529065   0.835   1.105   2.709 -0.6956 -1.7282 -3.0443
  121MOL    C2629066   0.867   0.979   2.408  0.0103  0.4096  0.4179
  121MOL    C2729067   0.820   0.895   2.285 -0.7148 -0.1273  0.0134
  121MOL    C2829068   0.937   0.808   2.216 -0.1981 -0.2213 -0.4980
  121MOL    C2929069   1.049   0.892   2.162 -0.0230 -0.8335  0.0360
  121MOL    H3029070   0.964   1.022   2.384 -0.0356  0.7081  0.7669
  121MOL    H3129071   0.795   1.059   2.427  0.8862  1.3428 -0.1810
  121MOL    H3229072   0.751   0.821   2.327  0.7890 -0.8571  1.2929
  121MOL    H3329073   0.895   0.746   2.137 -0.8278  0.9191 -1.0683
  121MOL    H3429074   0.984   0.742   2.289 -3.0068 -0.8613  0.8110
  121MOL    H3529075   1.001   0.977   2.113  0.9302 -0.8557 -0.9279
  121MOL    H3629076   1.106   0.925   2.250 -0.0333 -0.4083 -0.1152
  121MOL    H3729077   1.108   0.839   2.088 -0.1340  0.1050 -0.7399
  121MOL    C3829078   0.740   0.967   2.178 -0.6683  0.6265  0.3486
  121MOL    C3929079   0.587   0.957   2.206  0.4046  0.0547  0.0966
  121MOL    C4029080   0.526   0.826   2.146 -0.1680 -0.1214  0.4700
  121MOL    C4129081   0.519   0.824   1.994  1.1532 -0.3834 -0.7695
  121MOL    H4229082   0.758   0.931   2.077  1.8550  1.3121  0.5393
  121MOL    H4329083   0.771   1.071   2.182 -0.4881  0.4770  4.0629
  121MOL    H4429084   0.581   0.943   2.314 -3.1264  2.1971  0.2411
  121MOL    H4529085   0.421   0.806   2.167  0.1658 -1.8076  0.6378
  121MOL    H4629086   0.587   0.740   2.175  0.4139 -0.5055 -1.7624
  121MOL    H4729087   0.490   0.727   1.952 -1.8370  0.5962 -1.0984
  121MOL    H4829088   0.447   0.895   1.952  0.2841 -1.1488 -0.5972
  121MOL    H4929089   0.614   0.862   1.958  1.7801 -1.2319 -0.0148
  121MOL    C5029090   0.500   1.086   2.162 -0.1180  0.4058  0.3099
  121MOL    C5129091   0.524   1.207   2.256  0.1452  0.1699 -0.2455
  121MOL    C5229092   0.458   1.184   2.395 -0.5882  0.5476  0.6718
  121MOL    C5329093   0.310   1.171   2.406  0.1103  0.0841 -0.6910
  121MOL    H5429094   0.395   1.055   2.156 -0.1829  0.9311 -1.9397
  121MOL    H5529095   0.531   1.107   2.060 -0.0549 -0.2168  0.1998
  121MOL    H5629096   0.631   1.223   2.266 -0.1141  1.0246  1.3578
  121MOL    H5729097   0.501   1.262   2.457  0.1630  0.3092  0.4562
  121MOL    H5829098   0.504   1.094   2.435  1.0372  1.7996  1.6992
  121MOL    H5929099   0.272   1.226   2.492  2.2254 -0.3133  0.5406
  121MOL    H6029100   0.266   1.204   2.312 -0.5485  1.5757  0.1305
  121MOL    H6129101   0.279   1.067   2.417  2.2268 -0.4781  0.1966
  121MOL    C6229102   0.467   1.337   2.196 -0.8637  0.2723 -0.0190
  121MOL    C6329103   0.547   1.378   2.076 -0.5700  0.4313  0.4566
  121MOL    C6429104   0.666   1.461   2.127  0.3594  0.3997 -0.0601
  121MOL    C6529105   0.793   1.473   2.035  0.6741 -0.5452  0.3723
  121MOL    H6629106   0.464   1.412   2.275 -0.6746 -0.3398  0.5722
  121MOL    H6729107   0.360   1.324   2.179 -0.4907 -0.5231 -1.9753
  121MOL    H6829108   0.585   1.296   2.015 -1.0620  0.0501  0.6583
  121MOL    H6929109   0.696   1.417   2.222  1.0471 -0.2047 -0.5558
  121MOL    H7029110   0.631   1.562   2.150  3.3952  1.4332  0.3610
  121MOL    H7129111   0.874   1.524   2.088  1.1158 -0.2563 -0.5731
  121MOL    H7229112   0.840   1.376   2.018  1.0443 -0.0495 -1.5494
  121MOL    H7329113   0.769   1.523   1.941  1.7687  2.8273  1.7732
  121MOL    C7429114   0.465   1.459   1.981  0.0009  0.5480  0.1183
  121MOL    C7529115   0.359   1.382   1.899 -0.7271 -0.0577 -0.1789
  121MOL    C7629116   0.418   1.287   1.794 -0.4128 -0.4804  0.5975
  121MOL    C7729117   0.322   1.175   1.733  0.3674 -0.4063  0.5008
  121MOL    H7829118   0.524   1.510   1.905 -0.5853  0.6197 -0.2850
  121MOL    H7929119   0.420   1.538   2.040  0.2430 -0.2326  1.3744
  121MOL    H8029120   0.306   1.314   1.965  1.0466  0.8481  2.2338
  121MOL    H8129121   0.510   1.241   1.831  0.2656  0.2518 -0.1633
  121MOL    H8229122   0.460   1.346   1.713  0.0539 -0.4703  0.8486
  121MOL    H8329123   0.375   1.118   1.658  2.7031  0.9830  1.0562
  121MOL    H8429124   0.293   1.104   1.810  0.1917 -1.3359 -0.4165
  121MOL    H8529125   0.233   1.220   1.688 -0.6704 -1.9921  0.9181
  121MOL    C8629126   0.262   1.470   1.830 -0.1253  0.7364  0.0528
  121MOL    C8729127   0.164   1.549   1.929  0.2445 -0.0759  0.1070
  121MOL    C8829128   0.026   1.490   1.917 -0.2913 -0.3698  0.0807
  121MOL    C8929129   7.650   1.501   1.784  0.0570 -0.0920  0.1543
  121MOL    H9029130   0.211   1.423   1.747 -1.8780  2.4200  0.1472
  121MOL    H9129131   0.321   1.545   1.776  0.4641 -1.7509 -2.8469
  121MOL    H9229132   0.191   1.544   2.035 -2.3470  0.8365  0.8413
  121MOL    H9329133   7.668   1.524   1.999  1.4047 -1.3620  1.8425
  121MOL    H9429134   0.029   1.383   1.935  1.1748 -0.4091 -0.3969
  121MOL    H9529135   7.704   1.466   1.696 -0.7079  2.3566 -1.3353
  121MOL    H9629136   7.553   1.452   1.794 -0.2347  0.3444 -0.5049
  121MOL    H9729137   7.630   1.606   1.764  0.8911  0.7346  3.3317
  121MOL    C9829138   0.156   1.699   1.889 -0.1468  0.1490  0.1341
  121MOL    C9929139   0.267   1.792   1.939  0.0151  0.4902 -0.0819
  121MOL   C10029140   0.236   1.839   2.082 -0.0702 -0.3269 -0.3410
  121MOL   C10129141   0.118   1.942   2.098 -0.1625 -0.3130  0.6125
  121MOL   H10229142   0.063   1.732   1.935  0.8735  0.3865  2.1212
  121MOL   H10329143   0.147   1.705   1.781  0.6155 -1.8808 -0.0587
  121MOL   H10429144   0.358   1.734   1.952  0.0405  0.2866 -1.1038
  121MOL   H10529145   0.326   1.877   2.129 -2.4327  1.8344  2.6496
  121MOL   H10629146   0.216   1.750   2.142  2.5407 -0.3096  0.6057
  121MOL   H10729147   0.108   1.977   2.201 -0.7182 -1.7779  1.0759
  121MOL   H10829148   0.124   2.023   2.026 -0.4527  0.6928  1.7133
  121MOL   H10929149   0.025   1.886   2.090 -0.5701  0.3205  0.9020
  121MOL   C11029150   0.313   1.906   1.845  0.7514  0.3431 -0.0746
  121MOL   C11129151   0.439   1.983   1.893 -0.7484  0.7438  0.0221
  121MOL   C11229152   0.391   2.125   1.947  0.1395 -0.4051 -0.6627
  121MOL   C11329153   0.506   2.217   1.997 -0.3527  0.1420 -0.6072
  121MOL   H11429154   0.233   1.968   1.806  1.4003 -0.0193 -2.0222
  121MOL   H11529155   0.340   1.856   1.752 -1.3698 -0.6409 -0.2047
  121MOL   H11629156   0.495   1.926   1.967  4.1765  3.4286 -1.3750
  121MOL   H11729157   0.312   2.117   2.022  0.2687 -1.0109 -0.5880
  121MOL   H11829158   0.348   2.189   1.870  0.1901  0.6988  0.2180
  121MOL   H11929159   0.580   2.178   2.067 -1.4025  1.2413  1.1519
  121MOL   H12029160   0.568   2.248   1.912 -2.4978  0.3677 -2.1075
  121MOL   H12129161   0.462   2.311   2.030  0.4148  1.3272 -2.8251
  121MOL   C12229162   0.536   2.002   1.770 -0.5908 -0.2141 -0.4890
  121MOL   C12329163   0.623   1.877   1.746  0.6721  0.8791  0.2674
  121MOL   C12429164   0.734   1.837   1.846  0.5472  0.1401 -0.1005
  121MOL   C12529165   0.826   1.955   1.882 -0.0860  0.7474  0.0476
  121MOL   H12629166   0.604   2.086   1.788 -2.1627  1.3494 -1.6200
  121MOL   H12729167   0.486   2.035   1.678  0.0046 -0.5252 -0.9260
  121MOL   H12829168   0.554   1.793   1.741  0.0815  1.4165 -0.7746
  121MOL   H12929169   0.785   1.743   1.825  0.6770 -0.3904  2.4425
  121MOL   H13029170   0.689   1.814   1.942  1.5150  0.3410  0.4107
  121MOL   H13129171   0.873   1.994   1.792 -2.3543  0.7522 -1.1488
  121MOL   H13229172   0.772   2.038   1.930  1.7414  1.2287  1.3695
  121MOL   H13329173   0.904   1.925   1.952  0.6487 -0.2969 -1.2173
  121MOL   C13429174   0.690   1.889   1.602 -0.1504  0.1839 -0.2086
  121MOL   C13529175   0.625   1.808   1.487  0.2066  0.1702  0.1444
  121MOL   C13629176   0.671   1.658   1.491 -0.6221  0.4332 -1.2815
  121MOL   C13729177   0.606   1.571   1.609  1.1295 -0.0183 -0.6879
  121MOL   H13829178   0.796   1.864   1.614  0.2781  0.6933 -2.6481
  121MOL   H13929179   0.705   1.993   1.574 -2.0505  0.4354 -0.3126
  121MOL   H14029180   0.517   1.806   1.498  0.1443 -2.1157 -0.5485
  121MOL   H14129181   0.778   1.667   1.509 -0.9364 -1.1657  1.7431
  121MOL   H14229182   0.662   1.604   1.397  1.8603 -2.1684 -0.1168
  121MOL   H14329183   0.499   1.587   1.625  1.1270  0.5485 -1.2365
  121MOL   H14429184   0.638   1.467   1.608 -0.6849 -0.6267  0.6340
  121MOL   H14529185   0.645   1.601   1.706 -1.2636 -0.7052  0.5295
  121MOL   C14629186   0.656   1.854   1.339 -0.0978  0.4212 -0.0789
  121MOL   C14729187   0.609   1.993   1.306  0.9851  0.3955 -0.0656
  121MOL   C14829188   0.456   2.015   1.327  0.1087  0.4901 -0.2103
  121MOL   C14929189   0.413   2.164   1.306 -0.4842 -0.1825 -0.3415
  121MOL   H15029190   0.606   1.790   1.267  1.7003  0.6746 -1.5851
  121MOL   H15129191   0.763   1.853   1.316 -0.1603  1.8947 -0.5198
  121MOL   H15229192   0.660   2.062   1.373  2.4037  0.6801 -1.3904
  121MOL   H15329193   0.422   1.994   1.428 -0.3893 -0.3602 -0.5446
  121MOL   H15429194   0.390   1.952   1.268  1.9133 -1.4049 -0.2605
  121MOL   H15529195   0.473   2.229   1.369 -0.7816 -0.8875  0.6696
  121MOL   H15629196   0.422   2.177   1.198  1.4700  1.7591  0.0317
  121MOL   H15729197   0.307   2.177   1.330  0.4490  2.2231  2.7327
  121MOL   C15829198   0.646   2.037   1.159 -0.0343 -0.1984 -0.2411
  121MOL   C15929199   0.801   2.050   1.140 -0.4611 -0.1520  0.1089
  121MOL   C16029200   0.860   2.146   1.244 -1.0839 -0.0978 -0.7519
  121MOL   C16129201   0.802   2.286   1.251 -0.0065  0.3012 -0.4420
  121MOL   H16229202   0.594   2.122   1.114 -0.3712 -0.8402 -1.0820
  121MOL   H16329203   0.609   1.957   1.094  1.0017  0.1232 -1.2493
  121MOL   H16429204   0.850   1.955   1.157 -2.1432 -0.7489  1.7769
  121MOL   H16529205   0.965   2.160   1.219 -1.0843 -0.5923 -1.0362
  121MOL   H16629206   0.859   2.095   1.341 -0.9344  1.4019  0.0577
  121MOL   H16729207   0.693   2.282   1.255 -0.0319  0.5697 -0.9365
  121MOL   H16829208   0.855   2.350   1.321 -0.4626 -1.7625  1.8818
  121MOL   H16929209   0.816   2.341   1.158  1.6150  2.3251  0.9758
  121MOL   C17029210   0.838   2.101   0.999 -0.2673 -0.1573  0.0223
  121MOL   C17129211   0.812   1.999   0.885  0.2027 -0.4028  0.0244
  121MOL   C17229212   0.884   1.868   0.899 -0.1736  0.4304  0.0641
  121MOL   C17329213   1.031   1.864   0.931 -0.0899  0.4205  0.1595
  121MOL   H17429214   0.946   2.119   0.997 -0.3590  0.2968 -2.0197
  121MOL   H17529215   0.793   2.199   0.979 -1.5244 -1.0017 -1.3937
  121MOL   H17629216   0.709   1.971   0.905  0.8149 -0.4792  3.4971
  121MOL   H17729217   0.868   1.806   0.811  1.0514  0.7468 -0.4073
  121MOL   H17829218   0.836   1.812   0.979  1.3398 -0.8599  0.0894
  121MOL   H17929219   1.040   1.874   1.039  1.6197 -2.8101  0.3699
  121MOL   H18029220   1.070   1.769   0.897 -1.0548 -0.1509  0.6025
  121MOL   H18129221   1.092   1.937   0.878  2.3595 -2.3391 -0.9068
  121MOL   C18229222   0.820   2.061   0.742  0.0121 -0.2976  0.2818
  121MOL   C18329223   0.749   2.198   0.707  0.5525  0.9572  0.4416
  121MOL   C18429224   0.595   2.175   0.707  1.1736  0.2766 -0.0094
  121MOL   C18529225   0.526   2.249   0.821 -0.3934 -1.0472  0.5415
  121MOL   H18629226   0.798   1.984   0.669  1.7537 -0.7893  0.2484
  121MOL   H18729227   0.929   2.073   0.736  0.1286 -1.1728  0.6071
  121MOL   H18829228   0.780   2.269   0.783 -0.1433  0.9858  0.7020
  121MOL   H18929229   0.565   2.070   0.702  0.1862  0.6851 -3.9870
  121MOL   H19029230   0.544   2.218   0.621  0.1425 -0.1854  0.3605
  121MOL   H19129231   0.576   2.243   0.918  0.7154 -0.0512  0.0538
  121MOL   H19229232   0.521   2.355   0.795 -1.8354 -0.9341  1.2586
  121MOL   H19329233   0.422   2.218   0.823 -0.7510  0.1012  0.0062
  121MOL   C19429234   0.797   2.245   0.571 -0.9053 -0.0840  0.1626
  121MOL   C19529235   0.762   2.397   0.543 -0.0853  0.3427 -0.3251
  121MOL   C19629236   0.638   2.423   0.449  0.1050 -0.2265 -0.6117
  121MOL   C19729237   0.605   2.564   0.399 -0.2174 -0.1382  0.9191
  121MOL   H19829238   0.765   2.176   0.493  0.3287 -1.6497  1.0153
  121MOL   H19929239   0.905   2.233   0.568 -0.7634  1.2264 -0.0965
  121MOL   H20029240   0.746   2.454   0.635 -1.5053  0.7338 -0.8047
  121MOL   H20129241   0.548   2.392   0.502 -1.6876  1.4664 -2.5190
  121MOL   H20229242   0.651   2.359   0.362  0.3411  0.9663 -1.4666
  121MOL   H20329243   0.685   2.605   0.338  0.1175 -3.3920 -0.9649
  121MOL   H20429244   0.509   2.549   0.350  1.5264 -2.3903 -1.9699
  121MOL   H20529245   0.584   2.628   0.485 -0.4352 -2.0767  2.3411
  121MOL   C20629246   0.892   2.460   0.488 -0.3887  0.5428  0.1064
  121MOL   C20729247   1.005   2.492   0.583 -0.2929  0.2105 -0.8798
  121MOL   C20829248   0.971   2.580   0.695  0.3013  0.3083  0.1545
  121MOL   C20929249   0.917   2.722   0.660 -0.1730  0.3222 -0.2782
  121MOL   H21029250   0.859   2.547   0.431  1.3582  0.5842 -0.8596
  121MOL   H21129251   0.937   2.390   0.417  0.9374 -0.5791  2.0208
  121MOL   H21229252   1.019   2.399   0.638  0.7199  0.1867 -1.1739
  121MOL   H21329253   1.063   2.593   0.753 -0.3225 -0.6313  1.3791
  121MOL   H21429254   0.899   2.541   0.767  1.9667 -3.4813 -0.1327
  121MOL   H21529255   0.898   2.779   0.751  3.9977  0.7245  0.4678
  121MOL   H21629256   0.975   2.783   0.590 -0.0306 -0.3082 -0.7140
  121MOL   H21729257   0.819   2.702   0.617 -0.0252 -0.2332 -0.3586
  121MOL   C21829258   1.141   2.530   0.514 -0.3789 -0.9559  1.1002
  121MOL   C21929259   1.255   2.434   0.545  0.2109  0.4673  0.4854
  121MOL   C22029260   1.398   2.485   0.512 -0.1670  0.2878 -0.0473
  121MOL   C22129261   1.509   2.426   0.588 -0.3132  0.1869  0.9342
  121MOL   H22229262   1.171   2.624   0.560  0.4153 -0.9735  0.6194
  121MOL   H22329263   1.138   2.550   0.407  0.5022 -1.3162  1.0046
  121MOL   H22429264   1.252   2.428   0.653 -0.2140  1.3955  0.5248
  121MOL   H22529265   1.415   2.593   0.513 -1.2194  0.4611 -0.2422
  121MOL   H22629266   1.417   2.471   0.406 -0.2673 -2.0665  0.2260
  121MOL   H22729267   1.497   2.414   0.696 -1.4015  0.4730  0.8517
  121MOL   H22829268   1.534   2.328   0.546 -3.0504  0.6352 -1.9368
  121MOL   H22929269   1.590   2.493   0.560  0.2074 -1.3068 -1.2460
  121MOL   C23029270   1.232   2.288   0.493 -0.2402 -0.0249  0.1093
  121MOL   C23129271   1.211   2.286   0.341 -0.1920  0.2204  0.4125
  121MOL   C23229272   1.218   2.147   0.288 -0.4180 -0.7335  0.1003
  121MOL   C23329273   1.202   2.147   0.138 -0.0094 -0.0576  0.4700
  121MOL   H23429274   1.148   2.242   0.545  0.5595 -1.0659  0.4905
  121MOL   H23529275   1.315   2.223   0.520 -0.7667 -1.2039 -1.0365
  121MOL   H23629276   1.108   2.316   0.325  0.1759  1.3178  0.0873
  121MOL   H23729277   1.153   2.083   0.347  1.3048 -1.1475  1.6165
  121MOL   H23829278   1.313   2.103   0.319  0.0828  0.6549  0.5686
  121MOL   H23929279   1.284   2.205   0.097 -0.8736  1.6467  1.1328
  121MOL   H24029280   1.200   2.047   0.094  2.4348  0.0303  0.0883
  121MOL   H24129281   1.109   2.196   0.110 -0.2719 -1.2207 -0.7199
  121MOL   H24229282   1.281   2.352   0.291 -0.3137  2.9870  3.6959
  122MOL     C129283   4.314   0.373   0.919  0.1089  0.1851 -0.1658
  122MOL     C229284   4.269   0.428   0.779  0.6409 -0.6485 -1.0440
  122MOL     C329285   4.336   0.355   0.658  0.3815  0.3952  0.3447
  122MOL     C429286   4.326   0.207   0.670  0.6126 -0.0450 -0.2342
  122MOL     H529287   4.311   0.267   0.944  1.6003 -0.1452 -1.2954
  122MOL     H629288   4.419   0.398   0.933  0.4163 -2.0652  1.8855
  122MOL     H729289   4.163   0.406   0.772  0.2329  0.8803  0.1303
  122MOL     H829290   4.440   0.390   0.661  0.2972  0.5528  1.6039
  122MOL     H929291   4.295   0.396   0.566 -2.3837 -2.5778  0.1767
  122MOL    H1029292   4.384   0.183   0.759 -0.7538 -0.1789  0.6337
  122MOL    H1129293   4.221   0.183   0.687  0.6626  0.8445  1.4848
  122MOL    H1229294   4.368   0.154   0.585 -2.1716 -0.3128 -1.4819
  122MOL    H1329295   4.261   0.422   1.001  0.2457  1.7494 -0.9902
  122MOL    C1429296   4.285   0.578   0.752  0.0704  0.5225 -0.1502
  122MOL    C1529297   4.178   0.661   0.844 -0.3525 -0.0313  0.1449
  122MOL    C1629298   4.031   0.610   0.840 -0.1435  0.1576 -0.9013
  122MOL    C1729299   3.967   0.631   0.701 -0.0278  0.2327 -0.1640
  122MOL    H1829300   4.274   0.603   0.647  1.3750 -1.4206 -0.7868
  122MOL    H1929301   4.390   0.604   0.771 -0.6841  2.1766  1.9515
  122MOL    H2029302   4.204   0.647   0.949 -0.6417 -1.6664  0.0078
  122MOL    H2129303   3.970   0.658   0.917  2.1436  0.2651  0.9112
  122MOL    H2229304   4.019   0.507   0.873  2.3011  0.5510  1.3774
  122MOL    H2329305   4.039   0.594   0.628  0.0306 -1.6719  0.8355
  122MOL    H2429306   3.880   0.565   0.695  0.2365 -0.0450 -0.9604
  122MOL    H2529307   3.938   0.735   0.682 -0.0855  0.1672 -0.4493
  122MOL    C2629308   4.184   0.816   0.814  0.4082  0.6888  0.1814
  122MOL    C2729309   4.286   0.899   0.887 -0.0589  0.2558  0.1030
  122MOL    C2829310   4.240   0.911   1.032 -0.6041  0.0459 -0.2414
  122MOL    C2929311   4.350   0.978   1.117  0.0714  0.5326 -0.2353
  122MOL    H3029312   4.086   0.860   0.832 -0.1295  0.4867 -2.1218
  122MOL    H3129313   4.200   0.822   0.706 -2.1152  1.2050 -0.1989
  122MOL    H3229314   4.380   0.843   0.885 -0.9864 -1.4310  2.4132
  122MOL    H3329315   4.229   0.813   1.077  1.3000  0.1496  0.4984
  122MOL    H3429316   4.145   0.962   1.042  0.2378  1.6400 -0.1413
  122MOL    H3529317   4.324   1.084   1.124  0.7075  0.7887 -1.4179
  122MOL    H3629318   4.352   0.941   1.219 -2.4933 -0.5429 -0.5591
  122MOL    H3729319   4.449   0.957   1.074  0.1043  0.0146  0.0970
  122MOL    C3829320   4.297   1.038   0.824  0.5906  0.4353  0.8736
  122MOL    C3929321   4.337   1.060   0.670 -0.0256 -0.1103 -0.4294
  122MOL    C4029322   4.463   0.983   0.625  0.0573  0.4046 -0.1101
  122MOL    C4129323   4.578   0.997   0.725 -0.5976  0.3816 -0.2716
  122MOL    H4229324   4.351   1.102   0.893 -0.2531  0.1884  1.7784
  122MOL    H4329325   4.196   1.077   0.839  0.8519  0.9437  1.2990
  122MOL    H4429326   4.250   1.021   0.617 -0.0167  1.5903 -1.7527
  122MOL    H4529327   4.481   1.012   0.521 -3.1783  1.2897 -0.4741
  122MOL    H4629328   4.445   0.877   0.611  2.0503  0.4571 -3.7722
  122MOL    H4729329   4.598   1.104   0.729 -1.9348  0.5888  2.1595
  122MOL    H4829330   4.544   0.955   0.820  4.0786 -0.3038  1.2138
  122MOL    H4929331   4.666   0.941   0.692  0.5659  1.2727  1.2444
  122MOL    C5029332   4.343   1.214   0.635  0.3130 -0.3573 -0.7106
  122MOL    C5129333   4.310   1.255   0.489  0.3058 -0.3022 -0.0157
  122MOL    C5229334   4.422   1.231   0.386  0.2263  0.4675  0.7075
  122MOL    C5329335   4.563   1.272   0.434  0.3045 -0.7390  0.0601
  122MOL    H5429336   4.432   1.264   0.673 -1.2532  1.8545  0.1082
  122MOL    H5529337   4.263   1.259   0.693 -0.2020 -1.3715 -0.6100
  122MOL    H5629338   4.237   1.186   0.447  0.0843  0.3129 -0.6407
  122MOL    H5729339   4.395   1.283   0.294  1.3510 -0.6906 -0.2892
  122MOL    H5829340   4.430   1.125   0.364 -1.6234  0.3819  0.3500
  122MOL    H5929341   4.618   1.188   0.477 -0.0255  0.7247  3.4897
  122MOL    H6029342   4.617   1.303   0.344 -0.1077 -2.0921 -0.6616
  122MOL    H6129343   4.559   1.358   0.501 -2.3610 -0.4912 -0.3649
  122MOL    C6229344   4.250   1.399   0.496 -0.0840 -0.3727  0.6885
  122MOL    C6329345   4.165   1.453   0.374 -0.6207 -0.4133 -0.7318
  122MOL    C6429346   4.114   1.591   0.410 -0.3063  0.0373 -0.2707
  122MOL    C6529347   4.088   1.675   0.288  0.3894 -0.2093 -0.1024
  122MOL    H6629348   4.328   1.471   0.521 -0.1440 -0.6761  1.7753
  122MOL    H6729349   4.174   1.399   0.575  0.0513 -0.0659  0.8194
  122MOL    H6829350   4.231   1.462   0.289 -0.5390  0.0043 -0.6268
  122MOL    H6929351   4.191   1.642   0.468  1.6856  1.1348 -3.6975
  122MOL    H7029352   4.029   1.574   0.475 -0.5879 -1.4723 -1.0152
  122MOL    H7129353   4.032   1.767   0.308  4.5529  2.1242  1.4784
  122MOL    H7229354   4.181   1.707   0.240  0.7576 -2.7550 -1.1417
  122MOL    H7329355   4.037   1.617   0.211 -2.2468  0.6295  0.9771
  122MOL    C7429356   4.037   1.367   0.345  0.3008  0.3880 -0.3195
  122MOL    C7529357   4.051   1.265   0.227 -0.3161 -0.1954 -0.1052
  122MOL    C7629358   4.067   1.341   0.094  0.1689  0.3353  0.5803
  122MOL    C7729359   4.114   1.254   7.680 -0.1487  0.8978 -0.0267
  122MOL    H7829360   3.955   1.428   0.308  0.1380  0.8284  0.7571
  122MOL    H7929361   4.009   1.315   0.436 -0.1982 -1.0812 -1.3006
  122MOL    H8029362   4.142   1.206   0.234  0.5035  1.0176 -0.5006
  122MOL    H8129363   4.134   1.426   0.104  0.0922  0.2063  2.3489
  122MOL    H8229364   3.979   1.400   0.069  0.9940  1.3009 -0.0610
  122MOL    H8329365   4.164   1.171   0.024 -2.0483  1.8432  3.6013
  122MOL    H8429366   4.030   1.222   7.617 -1.1522  1.4256  1.0355
  122MOL    H8529367   4.166   1.316   7.606  2.2470 -0.6734  0.2677
  122MOL    C8629368   3.927   1.169   0.218  0.3145 -0.2252 -0.4498
  122MOL    C8729369   3.935   1.046   0.317 -0.2229 -0.1661  0.1086
  122MOL    C8829370   4.033   0.932   0.264  0.1489 -0.3938  0.1181
  122MOL    C8929371   4.068   0.821   0.366  0.7037 -0.1295  0.4189
  122MOL    H9029372   3.930   1.140   0.113 -4.7033  2.2373 -1.4029
  122MOL    H9129373   3.839   1.232   0.230  0.5766 -0.4027  3.1468
  122MOL    H9229374   3.971   1.088   0.410 -0.2276  1.8430 -0.7715
  122MOL    H9329375   4.130   0.981   0.259  0.0575 -0.3669 -1.5131
  122MOL    H9429376   4.026   0.894   0.162  0.4084  0.3255 -0.1717
  122MOL    H9529377   4.107   0.867   0.457 -0.8747  1.2465  0.4178
  122MOL    H9629378   3.976   0.765   0.388 -0.1147  0.9699 -0.1884
  122MOL    H9729379   4.134   0.744   0.326 -3.2631 -3.2829 -0.4036
  122MOL    C9829380   3.793   0.998   0.342  0.5793  0.5170 -0.5266
  122MOL    C9929381   3.691   1.086   0.422  0.2280 -0.0499  0.0410
  122MOL   C10029382   3.745   1.129   0.565 -0.1755 -0.0340  0.0340
  122MOL   C10129383   3.799   1.009   0.647  1.2119  0.1150  0.0420
  122MOL   H10229384   3.794   0.893   0.371 -1.1876  1.0195  1.4791
  122MOL   H10329385   3.749   0.981   0.243  2.7752 -2.1861 -1.1142
  122MOL   H10429386   3.677   1.182   0.372 -2.9446 -0.6058 -0.2344
  122MOL   H10529387   3.666   1.182   0.619 -1.1377 -0.7439 -0.6683
  122MOL   H10629388   3.824   1.204   0.552 -0.1680 -0.0430  0.0264
  122MOL   H10729389   3.732   0.925   0.635 -0.4987  1.1558  1.9977
  122MOL   H10829390   3.899   0.984   0.611  2.2509  1.9480  1.5473
  122MOL   H10929391   3.794   1.033   0.754 -1.1233  0.0360 -0.0420
  122MOL   C11029392   3.546   1.021   0.440 -1.4391 -0.5716  0.2628
  122MOL   C11129393   3.460   1.008   0.309 -0.1531  0.5915  0.8088
  122MOL   C11229394   3.467   1.134   0.209 -0.0396  0.4373 -0.2725
  122MOL   C11329395   3.388   1.255   0.250  0.2738 -0.4325 -0.4414
  122MOL   H11429396   3.492   1.096   0.497  0.9021  2.5409 -1.4772
  122MOL   H11529397   3.551   0.929   0.498 -1.6606 -1.2771 -0.8140
  122MOL   H11629398   3.512   0.923   0.264 -0.2509  0.1360  1.5411
  122MOL   H11729399   3.436   1.103   0.109  1.6025 -0.5518 -0.4983
  122MOL   H11829400   3.567   1.172   0.185 -1.0146  1.9438 -2.1826
  122MOL   H11929401   3.455   1.299   0.324 -0.1719 -2.3413  1.1364
  122MOL   H12029402   3.386   1.334   0.175 -2.1143  1.1502  1.2111
  122MOL   H12129403   3.289   1.250   0.294 -0.4384  1.0327 -1.7943
  122MOL   C12229404   3.313   0.963   0.343 -0.7446  0.2212  0.1292
  122MOL   C12329405   3.223   0.908   0.226  0.6204 -0.1244 -0.6123
  122MOL   C12429406   3.082   0.883   0.268 -0.8376 -0.4718  0.5526
  122MOL   C12529407   3.012   1.020   0.301 -0.5242 -0.1550  0.6941
  122MOL   H12629408   3.259   1.047   0.387 -2.9997 -0.9515 -0.3668
  122MOL   H12729409   3.316   0.878   0.411 -4.4092 -1.2111 -1.3941
  122MOL   H12829410   3.227   0.977   0.142 -2.2501 -0.7308 -1.2724
  122MOL   H12929411   3.080   0.823   0.359  1.2728 -0.3100  0.7201
  122MOL   H13029412   3.028   0.844   0.182 -1.6744  1.1159  0.3344
  122MOL   H13129413   3.010   1.094   0.220 -2.1045 -0.4825  0.4193
  122MOL   H13229414   2.907   1.009   0.328 -1.1583 -4.6734 -2.9174
  122MOL   H13329415   3.061   1.074   0.381 -1.7227 -0.0078  1.3489
  122MOL   C13429416   3.278   0.773   0.164  0.7874  0.4086 -0.1997
  122MOL   C13529417   3.351   0.782   0.024  0.1871 -0.7230 -0.1423
  122MOL   C13629418   3.251   0.801   7.618  0.4947 -0.4660 -0.2949
  122MOL   C13729419   3.327   0.837   7.487 -0.0452  0.1583 -0.4991
  122MOL   H13829420   3.204   0.693   0.172 -0.3693  1.4271 -0.5821
  122MOL   H13929421   3.359   0.743   0.230  0.2574 -0.9613 -0.1449
  122MOL   H14029422   3.409   0.874   0.030  1.7947 -1.5915 -1.8805
  122MOL   H14129423   3.165   0.862   7.645  0.5774  0.3022 -1.7069
  122MOL   H14229424   3.192   0.714   7.592 -2.6990  1.1243  1.3414
  122MOL   H14329425   3.361   0.941   7.493  3.2544 -0.8540 -0.5093
  122MOL   H14429426   3.408   0.770   7.457 -1.5962 -1.4770 -1.1124
  122MOL   H14529427   3.257   0.826   7.405 -0.9756 -1.0593  0.4487
  122MOL   C14629428   3.448   0.660   7.704  0.5014  0.1821  0.0509
  122MOL   C14729429   3.589   0.671   0.052  0.4662  0.3396 -0.2724
  122MOL   C14829430   3.672   0.779   7.681  0.5876  0.4366 -0.1298
  122MOL   C14929431   3.812   0.799   0.027  0.1634 -0.6439 -0.5515
  122MOL   H15029432   3.456   0.627   7.600  1.8122  3.4055 -0.9173
  122MOL   H15129433   3.401   0.570   0.039 -1.1744  1.2259  0.4845
  122MOL   H15229434   3.598   0.719   0.149 -2.2531 -1.3666  0.8895
  122MOL   H15329435   3.615   0.872   7.675 -0.4696 -0.2915 -1.8588
  122MOL   H15429436   3.681   0.751   7.576 -1.5600  1.2336 -0.5465
  122MOL   H15529437   3.892   0.786   7.659  3.0457 -4.2264  2.9773
  122MOL   H15629438   3.815   0.896   0.076  1.2999 -0.4121 -1.0492
  122MOL   H15729439   3.839   0.723   0.100  0.8874  2.3485  2.3826
  122MOL   C15829440   3.651   0.532   0.060 -0.1747 -0.1228  1.1417
  122MOL   C15929441   3.609   0.445   0.179  0.5226  0.4233 -1.0025
  122MOL   C16029442   3.653   0.509   0.315 -0.1912  0.2977 -0.2567
  122MOL   C16129443   3.799   0.522   0.327 -0.6736 -0.4130 -0.2452
  122MOL   H16229444   3.760   0.529   0.054 -0.2027 -1.2037  1.0225
  122MOL   H16329445   3.617   0.480   7.676  3.6266 -1.4298  0.3683
  122MOL   H16429446   3.501   0.449   0.193  0.5783  1.0798 -0.7420
  122MOL   H16529447   3.619   0.454   0.403  0.7250 -1.8621 -1.2207
  122MOL   H16629448   3.600   0.603   0.326  1.1478  1.0144  0.1787
  122MOL   H16729449   3.859   0.538   0.237 -0.8310  0.0492 -0.2686
  122MOL   H16829450   3.829   0.585   0.410 -0.7135 -0.0288 -0.5233
  122MOL   H16929451   3.836   0.421   0.347 -0.1149 -0.1079  0.2704
  122MOL   C17029452   3.644   0.295   0.160  0.2079 -0.0982 -0.7766
  122MOL   C17129453   3.580   0.222   0.041 -1.0276  0.1060 -0.0631
  122MOL   C17229454   3.422   0.244   0.024 -0.5246  0.0437  0.3716
  122MOL   C17329455   3.332   0.220   0.155  0.0060  0.1992 -0.1770
  122MOL   H17429456   3.611   0.250   0.253  2.5375 -1.8092 -0.7277
  122MOL   H17529457   3.752   0.287   0.167 -0.0004 -1.6080  1.0432
  122MOL   H17629458   3.643   0.245   7.661  0.7768 -1.8372  0.6884
  122MOL   H17729459   3.393   0.179   7.648  1.5198  1.1876 -1.3252
  122MOL   H17829460   3.415   0.348   7.698  1.4504 -0.1545 -0.8143
  122MOL   H17929461   3.342   0.114   0.178 -3.9975 -0.0645  0.7184
  122MOL   H18029462   3.374   0.278   0.237  1.9188 -1.0975 -0.1903
  122MOL   H18129463   3.231   0.250   0.129  0.3428  1.5772  0.0761
  122MOL   C18229464   3.600   0.071   0.047 -0.2655  0.5346  0.3533
  122MOL   C18329465   3.750   0.014   0.050  0.4648  0.1388 -0.4288
  122MOL   C18429466   3.832   0.043   7.636 -0.8452  0.4725 -0.5167
  122MOL   C18529467   3.990   0.037   7.669  0.0230 -0.1193  0.5673
  122MOL   H18629468   3.548   0.026   7.668 -0.6108  3.0759 -0.8552
  122MOL   H18729469   3.567   0.034   0.144 -0.4187 -2.2155 -0.6961
  122MOL   H18829470   3.797   0.062   0.136  0.9387  0.4787 -0.8784
  122MOL   H18929471   3.813   0.140   7.589  2.3173  0.8770 -1.0262
  122MOL   H19029472   3.819   7.677   7.555  0.7431  0.8107 -1.0899
  122MOL   H19129473   4.048   0.040   7.576  0.6626 -0.4323  0.9529
  122MOL   H19229474   4.019   0.123   0.023  0.7982 -2.1202  3.1523
  122MOL   H19329475   4.022   7.660   0.025 -0.6905  1.0652  2.5734
  122MOL   C19429476   3.751   7.564   0.078  0.1558 -0.0776  0.1085
  122MOL   C19529477   3.773   7.506   0.221  0.8827 -0.4454 -0.3811
  122MOL   C19629478   3.922   7.493   0.253 -0.0558  0.5253  0.4751
  122MOL   C19729479   3.944   7.481   0.407 -0.5253  0.3243 -0.3557
  122MOL   H19829480   3.817   7.506   0.014  3.8959  2.0438  1.8985
  122MOL   H19929481   3.647   7.537   0.056  0.7491 -0.9878 -1.6635
  122MOL   H20029482   3.746   7.590   0.286  3.9803  0.9257 -0.7744
  122MOL   H20129483   3.981   7.581   0.225 -1.4328  1.1046 -0.6779
  122MOL   H20229484   3.955   7.396   0.216  1.6228  1.5368 -0.8034
  122MOL   H20329485   3.890   7.549   0.474 -1.0832  0.5359 -1.0176
  122MOL   H20429486   3.912   7.384   0.444  0.4106 -0.5947 -1.9125
  122MOL   H20529487   4.047   7.500   0.436 -0.8196  0.3816  0.6877
  122MOL   C20629488   3.689   7.380   0.250  0.1404 -0.1087 -0.5297
  122MOL   C20729489   3.538   7.403   0.267  0.4545  1.0308 -0.8243
  122MOL   C20829490   3.484   7.512   0.360 -0.4812  0.0732 -0.4750
  122MOL   C20929491   3.333   7.548   0.329  0.4660  0.1307 -0.2537
  122MOL   H21029492   3.732   7.323   0.332  0.7329 -0.7492 -1.2832
  122MOL   H21129493   3.711   7.315   0.166  0.5669  0.0660 -0.5545
  122MOL   H21229494   3.503   7.443   0.171  0.8578  2.3390 -0.4398
  122MOL   H21329495   3.537   7.607   0.353 -0.7988  0.1543 -2.0085
  122MOL   H21429496   3.512   7.488   0.462 -1.6149  0.6525 -0.0217
  122MOL   H21529497   3.298   7.534   0.227  0.5210  2.9098 -0.6807
  122MOL   H21629498   3.258   7.493   0.386  3.0064  0.2327  3.3660
  122MOL   H21729499   3.333   7.654   0.355  1.0233 -0.5083  2.5346
  122MOL   C21829500   3.465   7.267   0.284 -0.0304  0.2778 -0.1728
  122MOL   C21929501   3.469   7.155   0.178  0.5194  0.1224 -0.2022
  122MOL   C22029502   3.440   7.215   0.031 -0.6175  0.5294  0.3836
  122MOL   C22129503   3.450   7.112   7.625 -0.2256 -0.0525  0.3418
  122MOL   H22229504   3.361   7.297   0.299 -0.1700 -0.1187 -0.3476
  122MOL   H22329505   3.495   7.239   0.385  0.2282  3.1240  0.5732
  122MOL   H22429506   3.574   7.127   0.176 -0.0794 -2.2194 -0.3740
  122MOL   H22529507   3.513   7.293   0.010  0.6691 -0.9689 -0.7982
  122MOL   H22629508   3.342   7.263   0.031 -2.6087 -3.2813  1.2040
  122MOL   H22729509   3.544   7.058   7.634  0.0952 -0.1305 -2.9235
  122MOL   H22829510   3.374   7.033   7.622 -0.3662  0.1522 -2.6368
  122MOL   H22929511   3.468   7.157   7.528  1.8606 -0.7521  0.3768
  122MOL   C23029512   3.369   7.032   0.206 -0.3133 -0.0262 -0.7015
  122MOL   C23129513   3.412   6.955   0.332 -0.3544  0.0343  0.1394
  122MOL   C23229514   3.325   6.842   0.377 -0.4969  0.1872 -0.6090
  122MOL   C23329515   3.373   6.793   0.517  0.1280  0.4806  0.3116
  122MOL   H23429516   3.376   6.959   0.126  0.3827 -0.9709  0.2096
  122MOL   H23529517   3.266   7.063   0.224 -0.2287  1.0124 -1.9770
  122MOL   H23629518   3.512   6.921   0.305  0.2578  0.2150  2.0757
  122MOL   H23729519   3.320   6.763   0.302  0.0945 -1.2169  0.8041
  122MOL   H23829520   3.230   6.892   0.398 -0.5381 -0.5009  0.8837
  122MOL   H23929521   3.378   6.867   0.597  2.1235  1.0750 -0.3390
  122MOL   H24029522   3.305   6.719   0.559  1.8401 -1.9400 -1.0586
  122MOL   H24129523   3.470   6.744   0.511  0.5215  1.1906  0.8456
  122MOL   H24229524   3.423   7.026   0.414  1.2816  1.8100 -1.5211
  123MOL     C129525   1.539   2.016   1.675 -0.2709  0.9439 -0.2962
  123MOL     C229526   1.511   2.114   1.796 -0.0007  0.2780 -0.6517
  123MOL     C329527   1.357   2.135   1.827 -0.4282  0.0242 -0.3120
  123MOL     C429528   1.277   2.205   1.706  0.0281 -0.7717 -0.4042
  123MOL     H529529   1.638   2.019   1.630 -0.2685 -0.9388 -0.4781
  123MOL     H629530   1.515   1.915   1.708  2.6647 -1.0692 -3.9939
  123MOL     H729531   1.558   2.069   1.883  0.9386  1.5433 -0.4857
  123MOL     H829532   1.338   2.204   1.909 -1.4161 -1.4877  0.7596
  123MOL     H929533   1.311   2.048   1.874 -0.9899  0.5990  0.2179
  123MOL    H1029534   1.254   2.136   1.625  0.7862 -1.7447  0.1930
  123MOL    H1129535   1.176   2.235   1.733  0.2773  1.1143 -1.4527
  123MOL    H1229536   1.337   2.288   1.668 -0.6954 -0.5193 -1.0126
  123MOL    H1329537   1.476   2.026   1.587  1.0011  0.9703 -1.2142
  123MOL    C1429538   1.593   2.248   1.769  0.9080 -0.7885 -0.1330
  123MOL    C1529539   1.569   2.379   1.847  0.1962 -0.1137  0.1638
  123MOL    C1629540   1.632   2.503   1.783 -0.7678 -0.2617  0.1283
  123MOL    C1729541   1.562   2.549   1.655 -0.0860 -0.7876  0.4097
  123MOL    H1829542   1.593   2.261   1.661 -0.2280 -1.9421 -0.2767
  123MOL    H1929543   1.698   2.239   1.798  0.9820 -0.1602 -0.2136
  123MOL    H2029544   1.462   2.399   1.835  0.1635 -0.1879  0.3317
  123MOL    H2129545   1.733   2.480   1.750 -0.7703  0.9699 -0.7637
  123MOL    H2229546   1.637   2.581   1.860 -0.7633  2.2620 -2.3344
  123MOL    H2329547   1.628   2.621   1.608  0.3219 -1.1888  0.3588
  123MOL    H2429548   1.548   2.474   1.577  0.6949 -0.7053  0.1859
  123MOL    H2529549   1.468   2.598   1.679  0.8657  1.6317 -0.6538
  123MOL    C2629550   1.610   2.379   2.000  0.3931  0.5816  1.1151
  123MOL    C2729551   1.541   2.475   2.100 -0.9139  0.7509  0.2717
  123MOL    C2829552   1.594   2.461   2.240  0.3007 -0.3074 -0.4933
  123MOL    C2929553   1.553   2.342   2.333  0.2694 -0.1310  0.1302
  123MOL    H3029554   1.719   2.387   2.005  0.8837 -3.5655 -0.7580
  123MOL    H3129555   1.590   2.279   2.038 -4.4694  0.7744 -0.6191
  123MOL    H3229556   1.565   2.580   2.083 -2.1960  1.2009  1.1309
  123MOL    H3329557   1.581   2.556   2.291 -1.4630 -0.9670  0.3335
  123MOL    H3429558   1.701   2.444   2.239  0.0561 -2.4148  2.2229
  123MOL    H3529559   1.614   2.327   2.422 -0.8526 -0.7277  0.8132
  123MOL    H3629560   1.452   2.348   2.373  0.2846 -0.2529  0.1859
  123MOL    H3729561   1.572   2.251   2.275 -1.2297 -0.1968 -0.2735
  123MOL    C3829562   1.388   2.461   2.095 -0.1272 -0.3531 -0.5945
  123MOL    C3929563   1.304   2.559   2.009  0.4450 -0.1604 -0.5672
  123MOL    C4029564   1.315   2.704   2.055 -0.8628  0.5338  0.0457
  123MOL    C4129565   1.240   2.754   2.178  0.0903  0.4474  0.3356
  123MOL    H4229566   1.360   2.475   2.200 -0.5775  1.8226 -0.9864
  123MOL    H4329567   1.356   2.359   2.074  1.3351 -1.4763  2.2695
  123MOL    H4429568   1.353   2.561   1.912  0.7599 -1.8872 -0.4701
  123MOL    H4529569   1.287   2.767   1.970  1.1635  0.1584 -0.9350
  123MOL    H4629570   1.420   2.726   2.071 -0.4025 -0.7547 -1.1446
  123MOL    H4729571   1.289   2.714   2.267  1.8465  0.6555 -0.5060
  123MOL    H4829572   1.243   2.862   2.189  0.6850  0.7332 -2.2860
  123MOL    H4929573   1.134   2.734   2.189 -0.2156  2.5980  1.5804
  123MOL    C5029574   1.156   2.508   1.997  0.1138  0.3596  0.2175
  123MOL    C5129575   1.062   2.570   1.894 -0.5453  0.0935 -0.1738
  123MOL    C5229576   0.913   2.578   1.945  0.6538 -0.6408  0.5481
  123MOL    C5329577   0.841   2.441   1.959  0.2183  0.0015  0.2303
  123MOL    H5429578   1.117   2.530   2.096 -1.1993  3.0511 -0.8448
  123MOL    H5529579   1.157   2.399   1.989  0.7400  0.4379 -0.9789
  123MOL    H5629580   1.094   2.674   1.900  0.0270  0.0155 -1.5149
  123MOL    H5729581   0.854   2.641   1.879  0.1921 -0.6684  0.9308
  123MOL    H5829582   0.920   2.647   2.029 -1.7770 -0.7389  0.8692
  123MOL    H5929583   0.768   2.442   2.040 -0.4951 -1.5811 -0.3904
  123MOL    H6029584   0.800   2.407   1.864  2.5618  0.4168 -0.9798
  123MOL    H6129585   0.898   2.353   1.988  0.9609  0.4322  0.0957
  123MOL    C6229586   1.077   2.515   1.749 -0.3419 -0.4095  0.4907
  123MOL    C6329587   1.009   2.610   1.643 -0.5909  0.0675 -0.6463
  123MOL    C6429588   1.028   2.537   1.505  0.0250  0.6386 -0.1104
  123MOL    C6529589   1.164   2.541   1.442 -0.4548 -0.0525 -0.2847
  123MOL    H6629590   1.035   2.414   1.742 -2.1180  0.1374  2.6834
  123MOL    H6729591   1.180   2.498   1.717 -1.1452 -0.4680 -2.2114
  123MOL    H6829592   0.900   2.608   1.653 -0.5329  0.7281  0.2554
  123MOL    H6929593   0.962   2.585   1.433 -0.4633  1.0890  0.6297
  123MOL    H7029594   0.997   2.433   1.509  0.9768  0.3648  0.2864
  123MOL    H7129595   1.156   2.491   1.345  0.7166 -1.7261  0.4566
  123MOL    H7229596   1.181   2.647   1.422 -1.0081  0.0403 -0.2943
  123MOL    H7329597   1.246   2.521   1.511 -0.6063 -1.5155 -0.5177
  123MOL    C7429598   1.067   2.748   1.636  0.2384  0.4801  0.7780
  123MOL    C7529599   0.991   2.861   1.715  0.0438  0.2954 -0.6161
  123MOL    C7629600   0.882   2.928   1.625  0.7167  0.3871  0.5701
  123MOL    C7729601   0.735   2.868   1.627 -0.6601 -0.0841  0.0324
  123MOL    H7829602   1.073   2.784   1.534 -1.6065  3.5908  1.7204
  123MOL    H7929603   1.166   2.733   1.680 -1.1146  0.9074  4.1352
  123MOL    H8029604   0.947   2.820   1.806  0.8204  0.5489 -0.1212
  123MOL    H8129605   0.916   2.953   1.525  2.0348 -0.4564  0.7866
  123MOL    H8229606   0.860   3.025   1.670 -3.0985 -0.2774  0.2349
  123MOL    H8329607   0.735   2.769   1.582 -2.6209  0.1047 -0.4328
  123MOL    H8429608   0.687   2.861   1.725  0.1903  0.6113  0.5101
  123MOL    H8529609   0.664   2.930   1.572 -2.9079  0.3569  3.2529
  123MOL    C8629610   1.095   2.959   1.778  1.2250  0.4119  0.3220
  123MOL    C8729611   1.041   3.071   1.877 -0.0154 -0.6713  0.2870
  123MOL    C8829612   1.119   3.199   1.862  0.3997 -0.8364  0.0000
  123MOL    C8929613   1.094   3.287   1.735  0.2884  0.1728 -0.6616
  123MOL    H9029614   1.150   3.001   1.694  1.1537  1.3636  0.7363
  123MOL    H9129615   1.177   2.902   1.821  1.9850  2.1754  1.2764
  123MOL    H9229616   0.939   3.100   1.853 -0.6745 -1.0655  2.4798
  123MOL    H9329617   1.226   3.184   1.877  0.4277 -1.3774 -0.6929
  123MOL    H9429618   1.081   3.256   1.946  1.8604 -0.6694  0.5712
  123MOL    H9529619   1.115   3.230   1.645  1.5015  1.9173 -1.4946
  123MOL    H9629620   0.993   3.328   1.732  1.1913  2.3581 -1.8268
  123MOL    H9729621   1.164   3.370   1.727 -1.3307  1.6167 -0.1973
  123MOL    C9829622   1.042   3.014   2.023  0.0030 -0.2264  0.1891
  123MOL    C9929623   0.946   3.090   2.129 -0.8857  0.0456  0.0879
  123MOL   C10029624   0.806   3.117   2.074 -0.5600  0.0511  0.9220
  123MOL   C10129625   0.701   3.155   2.180  1.1765 -0.3796  0.4851
  123MOL   H10229626   1.143   3.029   2.062  1.6263 -3.3837 -2.5602
  123MOL   H10329627   1.021   2.908   2.020  0.8306 -0.4548  1.9212
  123MOL   H10429628   0.933   3.013   2.205  0.5887 -2.6719 -2.3274
  123MOL   H10529629   0.767   3.031   2.020  0.5282 -1.1265  1.9852
  123MOL   H10629630   0.809   3.188   1.992 -2.8124 -2.4760 -1.4220
  123MOL   H10729631   0.703   3.117   2.282 -0.6246 -1.4305  0.1558
  123MOL   H10829632   0.719   3.262   2.190 -0.0708 -0.2875  1.8367
  123MOL   H10929633   0.600   3.143   2.139  1.5862  0.7532 -0.9268
  123MOL   C11029634   1.001   3.205   2.218 -0.2176 -0.8808  0.2297
  123MOL   C11129635   1.149   3.204   2.268  0.3476  0.4383 -0.8796
  123MOL   C11229636   1.171   3.120   2.394 -0.1438 -0.1314  0.4883
  123MOL   C11329637   1.317   3.097   2.422 -0.2856  0.8199  0.0083
  123MOL   H11429638   0.939   3.207   2.307  1.1901 -0.4108  1.2206
  123MOL   H11529639   0.985   3.298   2.165  0.7462 -0.9314 -0.1654
  123MOL   H11629640   1.223   3.162   2.200  0.2391 -0.7351 -0.2823
  123MOL   H11729641   1.134   3.018   2.383 -0.5243  0.0635 -0.0927
  123MOL   H11829642   1.121   3.164   2.481  0.8207 -0.2742  1.1170
  123MOL   H11929643   1.376   3.055   2.341 -1.8088 -0.7615 -0.3211
  123MOL   H12029644   1.376   3.186   2.444  1.0272 -0.1623  0.5006
  123MOL   H12129645   1.321   3.035   2.511 -1.4008 -0.1025 -0.5701
  123MOL   C12229646   1.192   3.346   2.288  0.6677 -0.1359  0.1119
  123MOL   C12329647   1.269   3.408   2.165  0.1225  0.1961  0.0598
  123MOL   C12429648   1.421   3.390   2.163 -0.6629  0.6187  0.7214
  123MOL   C12529649   1.487   3.420   2.026 -0.6321 -0.3006 -0.3367
  123MOL   H12629650   1.239   3.365   2.385 -2.6694  1.3833  1.5374
  123MOL   H12729651   1.102   3.405   2.308  0.2612 -0.3006 -1.2095
  123MOL   H12829652   1.238   3.363   2.071 -0.6510  4.0304 -1.5866
  123MOL   H12929653   1.453   3.287   2.176  0.4950  0.5766 -2.1555
  123MOL   H13029654   1.471   3.438   2.248  0.1940 -0.2585  0.7155
  123MOL   H13129655   1.450   3.346   1.956  0.2911  0.5486 -1.7413
  123MOL   H13229656   1.473   3.522   1.990  0.6489 -0.5328 -1.5339
  123MOL   H13329657   1.593   3.408   2.048 -0.0862  0.6175 -2.3754
  123MOL   C13429658   1.229   3.559   2.148 -0.1656  0.2144 -0.4737
  123MOL   C13529659   1.099   3.587   2.076 -0.5021 -0.4483  0.6311
  123MOL   C13629660   1.117   3.597   1.921 -0.2246  0.2740  0.3564
  123MOL   C13729661   0.981   3.616   1.848  0.3899  0.3989  0.7946
  123MOL   H13829662   1.312   3.615   2.105  0.4538  0.1563  0.6142
  123MOL   H13929663   1.215   3.603   2.247  1.0573 -0.6552  0.0860
  123MOL   H14029664   1.032   3.504   2.098 -1.3225  0.2906  0.9092
  123MOL   H14129665   1.167   3.509   1.881  0.5955 -0.2306  2.4021
  123MOL   H14229666   1.169   3.688   1.892 -0.9949  0.1767 -1.3907
  123MOL   H14329667   0.904   3.564   1.904  0.7497 -1.6486 -0.5376
  123MOL   H14429668   0.969   3.723   1.835  0.0292  0.0851 -1.8220
  123MOL   H14529669   0.975   3.563   1.753  0.9118  1.9801 -0.1404
  123MOL   C14629670   1.020   3.711   2.138  0.1524 -0.4427  0.3213
  123MOL   C14729671   0.954   3.701   2.281 -0.4507 -0.2608  0.6717
  123MOL   C14829672   0.812   3.638   2.267 -0.2161  0.2395  0.1443
  123MOL   C14929673   0.778   3.524   2.375 -0.0638  0.5288  0.2282
  123MOL   H15029674   0.948   3.748   2.065  0.1009 -0.5028  0.3421
  123MOL   H15129675   1.084   3.800   2.137  0.0497 -0.3503 -2.6080
  123MOL   H15229676   1.014   3.637   2.346 -0.2039 -1.1549 -0.4156
  123MOL   H15329677   0.811   3.593   2.168 -1.4534 -0.5887  0.5365
  123MOL   H15429678   0.734   3.713   2.260  1.9836  2.7710  1.5204
  123MOL   H15529679   0.866   3.465   2.403 -1.1605 -0.6907  1.1230
  123MOL   H15629680   0.724   3.563   2.461 -0.8988  0.6935 -0.3661
  123MOL   H15729681   0.715   3.452   2.323  1.3661  0.4619 -1.4794
  123MOL   C15829682   0.948   3.832   2.355  0.0200 -0.1426  1.0144
  123MOL   C15929683   1.082   3.889   2.416  0.0144 -0.1867 -0.5987
  123MOL   C16029684   1.140   3.811   2.530 -0.6527  0.1516 -0.3221
  123MOL   C16129685   1.034   3.791   2.638  0.2108 -0.8101 -0.8056
  123MOL   H16229686   0.863   3.834   2.423  1.0961 -2.6260  2.5089
  123MOL   H16329687   0.927   3.902   2.274 -0.1778 -0.4218  0.8203
  123MOL   H16429688   1.157   3.902   2.338  0.4217 -1.6659 -0.4608
  123MOL   H16529689   1.226   3.863   2.571 -0.9233  0.9596 -0.7675
  123MOL   H16629690   1.175   3.709   2.512 -1.3182 -0.1379 -0.0059
  123MOL   H16729691   1.055   3.719   2.717 -1.5156 -2.1677 -1.5538
  123MOL   H16829692   1.009   3.880   2.696 -0.7755 -1.2659 -0.5249
  123MOL   H16929693   0.942   3.746   2.600 -0.3076  0.6313 -1.3083
  123MOL   C17029694   1.050   4.037   2.451 -0.2140 -0.7120 -0.0953
  123MOL   C17129695   1.087   4.141   2.347  0.0039  0.0023  0.6537
  123MOL   C17229696   1.243   4.164   2.342  0.3560  0.0857  0.1493
  123MOL   C17329697   1.303   4.197   2.204 -0.2122  0.3900 -0.0308
  123MOL   H17429698   1.113   4.064   2.535  0.5066 -0.6805 -0.6437
  123MOL   H17529699   0.946   4.043   2.484 -0.4417 -2.4447 -0.4513
  123MOL   H17629700   1.057   4.118   2.245 -0.2615  0.8173  0.5401
  123MOL   H17729701   1.292   4.071   2.373 -2.6566 -2.1624 -1.6223
  123MOL   H17829702   1.273   4.238   2.416  5.4100  1.2263 -2.8280
  123MOL   H17929703   1.271   4.300   2.184 -1.6571 -0.1277 -0.4752
  123MOL   H18029704   1.412   4.197   2.198 -0.1836  1.7505  0.2013
  123MOL   H18129705   1.270   4.133   2.122  0.4944 -1.1734  0.8940
  123MOL   C18229706   1.007   4.268   2.378 -0.1519 -0.2219  0.5619
  123MOL   C18329707   0.852   4.262   2.350  0.2120 -0.5666 -0.6168
  123MOL   C18429708   0.819   4.213   2.207  0.1858 -0.5620  0.4068
  123MOL   C18529709   0.891   4.294   2.100  0.6294 -0.0382 -0.4074
  123MOL   H18629710   1.048   4.342   2.309  1.7832 -1.9279 -0.1492
  123MOL   H18729711   1.018   4.303   2.481  0.9696  0.8777  0.0792
  123MOL   H18829712   0.808   4.191   2.420 -0.2839  1.7164  1.4579
  123MOL   H18929713   0.711   4.214   2.191  0.1333  1.0751  0.7467
  123MOL   H19029714   0.858   4.112   2.197 -1.9375 -1.2756 -1.0123
  123MOL   H19129715   0.852   4.276   1.999  0.5092 -1.2180 -0.1546
  123MOL   H19229716   0.894   4.402   2.116 -0.2588 -0.1852  0.8074
  123MOL   H19329717   0.998   4.275   2.090  0.3658 -1.4774 -0.6559
  123MOL   C19429718   0.782   4.398   2.382 -0.0614 -0.4065 -0.4165
  123MOL   C19529719   0.627   4.403   2.381 -1.1064  0.4071 -0.1101
  123MOL   C19629720   0.581   4.546   2.341 -0.2818 -0.2211  0.7792
  123MOL   C19729721   0.591   4.565   2.188  0.2911 -0.6812  0.7498
  123MOL   H19829722   0.813   4.479   2.316 -0.6843  0.1546 -0.0336
  123MOL   H19929723   0.802   4.442   2.479  1.0084  0.4775 -1.0251
  123MOL   H20029724   0.592   4.331   2.307  2.0216 -1.7554  0.3823
  123MOL   H20129725   0.626   4.630   2.396  1.4139 -1.5301  1.4463
  123MOL   H20229726   0.474   4.554   2.359 -0.2869 -0.9602  1.0911
  123MOL   H20329727   0.695   4.559   2.155  0.2400 -0.8550  0.6222
  123MOL   H20429728   0.541   4.480   2.142  2.5253 -0.9587 -1.2265
  123MOL   H20529729   0.547   4.660   2.157 -0.0023 -1.2019 -0.4207
  123MOL   C20629730   0.569   4.359   2.522  0.5778 -0.2809  0.3862
  123MOL   C20729731   0.457   4.253   2.508 -0.6831 -0.1179 -0.3169
  123MOL   C20829732   0.359   4.248   2.628 -0.3379 -0.4479  0.8687
  123MOL   C20929733   0.271   4.374   2.630  0.1702 -0.4136 -0.5032
  123MOL   H21029734   0.528   4.446   2.573 -0.0503 -0.4871  0.2394
  123MOL   H21129735   0.640   4.320   2.596  0.2758 -1.4362  0.0732
  123MOL   H21229736   0.395   4.264   2.419  0.3130 -0.1837 -1.0235
  123MOL   H21329737   0.413   4.249   2.723  0.6331  0.9893  0.3247
  123MOL   H21429738   0.302   4.155   2.635 -1.2004 -0.0081 -0.2208
  123MOL   H21529739   0.233   4.415   2.537  1.4507  0.0499 -0.8300
  123MOL   H21629740   0.200   4.353   2.710 -1.4541 -1.7904 -2.2570
  123MOL   H21729741   0.339   4.451   2.666  0.0795 -0.3404 -0.4908
  123MOL   C21829742   0.524   4.106   2.489 -0.8580  0.1800  0.0720
  123MOL   C21929743   0.434   4.003   2.434 -0.6086 -0.3620  0.4972
  123MOL   C22029744   0.440   3.865   2.518  0.3284 -0.3145 -0.7472
  123MOL   C22129745   0.321   3.777   2.484  0.0295  0.5321  0.2758
  123MOL   H22229746   0.581   4.081   2.579  0.0509  0.5113 -0.4021
  123MOL   H22329747   0.598   4.102   2.410  0.0498  0.0596  0.9135
  123MOL   H22429748   0.330   4.034   2.441 -0.1197  1.2873  0.6526
  123MOL   H22529749   0.449   3.884   2.625  0.9650  0.5779 -0.9468
  123MOL   H22629750   0.538   3.822   2.497  1.1984  0.8314  0.8538
  123MOL   H22729751   0.317   3.738   2.383  2.1216 -0.2404  0.4671
  123MOL   H22829752   0.331   3.687   2.544 -1.7686  0.8945  1.1552
  123MOL   H22929753   0.228   3.820   2.521  0.9235  2.6691  0.1318
  123MOL   C23029754   0.455   3.975   2.280  0.5042 -0.3894 -0.6530
  123MOL   C23129755   0.383   4.078   2.186  0.0359  0.9017 -0.0949
  123MOL   C23229756   0.327   4.017   2.064 -0.1893 -0.3747  0.6390
  123MOL   C23329757   0.274   4.113   1.955 -0.3035 -0.1869  0.1009
  123MOL   H23429758   0.434   3.873   2.248 -0.0582 -0.9014  1.2314
  123MOL   H23529759   0.561   3.979   2.254  0.3752 -2.9003 -1.6674
  123MOL   H23629760   0.304   4.130   2.240 -1.1830 -0.4339 -0.5614
  123MOL   H23729761   0.258   3.935   2.083 -0.3181 -0.1623  1.0879
  123MOL   H23829762   0.418   3.964   2.034 -0.0029 -0.1808  0.8564
  123MOL   H23929763   0.285   4.071   1.855 -1.0867  3.1096 -1.4361
  123MOL   H24029764   0.167   4.130   1.967 -0.1152  1.1244 -0.0595
  123MOL   H24129765   0.337   4.199   1.973 -2.0128  1.1275 -0.0825
  123MOL   H24229766   0.455   4.155   2.160  0.6066  0.2693 -0.4301
  124MOL     C129767   1.135   1.983   2.991  0.7932 -0.3780 -0.2416
  124MOL     C229768   1.023   2.023   3.088 -0.5174 -0.6686  0.8269
  124MOL     C329769   0.977   1.903   3.179 -0.3221  0.3055  0.2656
  124MOL     C429770   1.089   1.850   3.270  0.2468 -0.1883  0.3150
  124MOL     H529771   1.101   1.901   2.927  1.1837  0.5494 -1.6518
  124MOL     H629772   1.178   2.057   2.924 -1.0742  0.3642 -0.6547
  124MOL     H729773   1.075   2.091   3.156 -0.4872 -1.1095  1.2447
  124MOL     H829774   0.930   1.829   3.114 -0.4405  0.3161  0.3408
  124MOL     H929775   0.891   1.925   3.242 -2.2065  1.1490 -2.5151
  124MOL    H1029776   1.151   1.919   3.327 -0.7019  0.0457  1.0858
  124MOL    H1129777   1.043   1.794   3.352  1.6066  0.8165  1.8114
  124MOL    H1229778   1.165   1.792   3.218  0.3198  1.3004 -1.2471
  124MOL    H1329779   1.219   1.931   3.036  0.2394  0.2344  1.5391
  124MOL    C1429780   0.899   2.083   3.010 -0.2560  0.0444 -0.1978
  124MOL    C1529781   0.929   2.212   2.931  0.0828  0.1698  0.6748
  124MOL    C1629782   0.980   2.338   3.014 -0.4600 -0.0407 -0.1413
  124MOL    C1729783   0.862   2.409   3.091  0.0553  0.0628  0.2030
  124MOL    H1829784   0.831   2.103   3.093  0.8119  0.6503  0.5511
  124MOL    H1929785   0.870   1.999   2.947  1.3001 -0.2420 -0.5513
  124MOL    H2029786   1.010   2.194   2.860  1.6657  0.7554  2.2985
  124MOL    H2129787   1.042   2.410   2.962  1.2609 -0.5239  1.2112
  124MOL    H2229788   1.046   2.306   3.094 -1.8244  0.4991  1.2293
  124MOL    H2329789   0.907   2.478   3.163 -0.5823  0.7601 -0.0561
  124MOL    H2429790   0.792   2.461   3.025  0.8872  0.2939 -0.5029
  124MOL    H2529791   0.797   2.340   3.144 -1.1249 -0.0163 -1.3205
  124MOL    C2629792   0.817   2.232   2.822 -0.2626 -0.6459 -0.2408
  124MOL    C2729793   0.855   2.336   2.705  0.4152  0.3619  1.1940
  124MOL    C2829794   0.727   2.363   2.627  0.0026 -0.3187  0.1755
  124MOL    C2929795   0.636   2.459   2.703 -0.4033  0.1938  0.0507
  124MOL    H3029796   0.730   2.262   2.879  1.7051 -3.0076  4.2493
  124MOL    H3129797   0.798   2.132   2.784 -0.9873 -1.2389  1.6296
  124MOL    H3229798   0.880   2.432   2.751 -1.4433  1.5418 -0.1712
  124MOL    H3329799   0.674   2.270   2.605 -1.0660  0.1501  0.7267
  124MOL    H3429800   0.736   2.412   2.530 -2.1531  1.2924  0.7287
  124MOL    H3529801   0.673   2.561   2.692  1.0924 -0.4865 -1.5257
  124MOL    H3629802   0.534   2.458   2.667 -0.7659 -0.4441  1.0735
  124MOL    H3729803   0.629   2.434   2.809 -1.8476 -0.8742 -0.2805
  124MOL    C3829804   0.958   2.281   2.603  0.0331  0.1856 -0.5347
  124MOL    C3929805   1.011   2.384   2.489  0.5574  0.2459 -1.0932
  124MOL    C4029806   1.009   2.319   2.347  0.5866  0.8669  0.3098
  124MOL    C4129807   0.866   2.293   2.298  0.1668  0.3549  0.6100
  124MOL    H4229808   0.895   2.208   2.554  0.0787 -0.1480 -0.0977
  124MOL    H4329809   1.039   2.221   2.645 -0.5032  0.7760  1.4438
  124MOL    H4429810   0.934   2.460   2.485  1.1190  0.7290 -3.4807
  124MOL    H4529811   1.073   2.231   2.343 -0.3743  0.1879 -0.2950
  124MOL    H4629812   1.066   2.391   2.288  1.1938  1.9790  2.2003
  124MOL    H4729813   0.863   2.267   2.192  0.4221  0.6294  0.5344
  124MOL    H4829814   0.824   2.216   2.362  0.1497  0.8646  1.2135
  124MOL    H4929815   0.798   2.378   2.304  1.3439  1.3774 -0.2108
  124MOL    C5029816   1.153   2.439   2.529  0.3380 -0.3152  0.0191
  124MOL    C5129817   1.163   2.513   2.667  0.5173  0.5289 -0.6954
  124MOL    C5229818   1.084   2.645   2.678 -0.4266  0.0851  0.2374
  124MOL    C5329819   1.152   2.770   2.619 -0.7728  0.1471 -0.3706
  124MOL    H5429820   1.174   2.518   2.457  1.6833 -0.9136 -0.2670
  124MOL    H5529821   1.216   2.351   2.519 -0.6552 -1.1555  1.0749
  124MOL    H5629822   1.109   2.442   2.729  0.9318  0.3182 -0.5746
  124MOL    H5729823   1.066   2.658   2.784  0.6857 -0.8404  0.5549
  124MOL    H5829824   0.978   2.629   2.657 -0.5515 -0.5801  1.3307
  124MOL    H5929825   1.079   2.851   2.615 -0.9642 -0.0986 -2.5706
  124MOL    H6029826   1.229   2.806   2.687 -2.7821 -0.3669  2.2755
  124MOL    H6129827   1.179   2.767   2.513  1.8751  1.2995  0.2468
  124MOL    C6229828   1.311   2.515   2.724  0.7373 -0.6238  0.2155
  124MOL    C6329829   1.386   2.388   2.761  0.2445 -0.0345  1.3401
  124MOL    C6429830   1.310   2.313   2.875 -0.8953 -0.3831 -0.8239
  124MOL    C6529831   1.319   2.379   3.011 -0.1023  0.1940 -0.1443
  124MOL    H6629832   1.317   2.577   2.813 -1.4634  0.0076 -0.0572
  124MOL    H6729833   1.377   2.575   2.662 -1.5177 -0.2460 -1.8847
  124MOL    H6829834   1.383   2.325   2.672 -1.0304  1.2618  0.4333
  124MOL    H6929835   1.349   2.211   2.882 -2.1586 -0.8232  0.0278
  124MOL    H7029836   1.207   2.309   2.841 -0.9395  0.7183 -0.8202
  124MOL    H7129837   1.422   2.400   3.041 -0.1430  3.0343 -1.7959
  124MOL    H7229838   1.265   2.474   3.016  0.5891  0.5081  1.7500
  124MOL    H7329839   1.276   2.327   3.096 -1.7524  2.1041  0.2229
  124MOL    C7429840   1.528   2.435   2.805  0.3982  0.2660  0.1361
  124MOL    C7529841   1.623   2.323   2.853 -0.2432 -0.6214  0.1105
  124MOL    C7629842   1.743   2.392   2.909 -0.3807  0.1721  0.6359
  124MOL    C7729843   1.712   2.462   3.039  0.3859 -0.0196 -0.3839
  124MOL    H7829844   1.518   2.508   2.885 -1.3484 -2.1406  2.1906
  124MOL    H7929845   1.580   2.494   2.729  0.6963  1.3694  1.1726
  124MOL    H8029846   1.579   2.264   2.934  1.7657 -1.9719  0.2397
  124MOL    H8129847   1.781   2.474   2.847 -1.3239 -1.7978 -2.6744
  124MOL    H8229848   1.825   2.326   2.936  0.8917  1.0166 -1.0561
  124MOL    H8329849   1.653   2.553   3.033  0.0952 -0.3630 -3.8719
  124MOL    H8429850   1.661   2.398   3.112  0.6880 -0.2919 -0.4092
  124MOL    H8529851   1.804   2.481   3.094 -0.1660  0.1953  0.4796
  124MOL    C8629852   1.657   2.231   2.729  0.3419  0.3815 -0.3371
  124MOL    C8729853   1.728   2.106   2.779 -0.0389 -1.1243 -0.5087
  124MOL    C8829854   1.816   2.062   2.659 -0.1886  0.2522 -0.0714
  124MOL    C8929855   1.962   2.120   2.675  0.1039  0.3817  0.0563
  124MOL    H9029856   1.719   2.286   2.658  1.7172 -0.2702  0.3457
  124MOL    H9129857   1.556   2.212   2.691  0.9813 -1.5618 -1.0709
  124MOL    H9229858   1.805   2.116   2.856  0.9406 -0.7804 -1.5166
  124MOL    H9329859   1.773   2.082   2.560 -1.2954  0.5792  0.4668
  124MOL    H9429860   1.840   1.956   2.660 -0.3467  0.2159 -0.1283
  124MOL    H9529861   2.022   2.078   2.594  0.5619  0.6325  0.2611
  124MOL    H9629862   1.968   2.227   2.655 -2.0985  0.3290 -1.0219
  124MOL    H9729863   2.008   2.089   2.769 -0.9636  0.0735  0.4828
  124MOL    C9829864   1.621   2.002   2.823 -0.6887  0.0988 -0.0124
  124MOL    C9929865   1.662   1.920   2.943  0.1518  0.3938 -0.1089
  124MOL   C10029866   1.649   1.994   3.081 -0.8206  0.7403 -0.4214
  124MOL   C10129867   1.767   2.079   3.137  0.2233 -0.4056  0.1753
  124MOL   H10229868   1.601   1.928   2.746 -1.4055  0.9696 -0.6793
  124MOL   H10329869   1.520   2.039   2.844 -1.4888 -0.5078 -2.6072
  124MOL   H10429870   1.582   1.846   2.940 -0.9296  1.4868  0.7552
  124MOL   H10529871   1.627   1.921   3.159  0.7651  0.3581 -0.3191
  124MOL   H10629872   1.564   2.062   3.080  0.4994  2.4630  0.9467
  124MOL   H10729873   1.738   2.112   3.237  1.7895 -2.1805  1.2627
  124MOL   H10829874   1.861   2.027   3.155  0.9426  0.6700 -0.4197
  124MOL   H10929875   1.782   2.171   3.081 -1.7979 -0.3678 -0.3514
  124MOL   C11029876   1.789   1.836   2.924 -0.2092 -0.2132  0.3987
  124MOL   C11129877   1.790   1.722   3.028  0.4933  1.1092  0.3774
  124MOL   C11229878   1.931   1.709   3.096  0.0761  0.7913 -0.3854
  124MOL   C11329879   2.048   1.670   3.002  0.3113 -0.7128 -0.9601
  124MOL   H11429880   1.880   1.896   2.932  0.2968 -0.4592 -2.6284
  124MOL   H11529881   1.788   1.789   2.825 -1.2268 -1.0203  0.7910
  124MOL   H11629882   1.740   1.755   3.120  2.0340  0.2044  1.5766
  124MOL   H11729883   1.923   1.632   3.174 -3.6881  1.4532 -0.0116
  124MOL   H11829884   1.960   1.805   3.139  0.8147 -0.8974  3.0979
  124MOL   H11929885   2.020   1.589   2.936 -2.2294  0.4800 -1.4073
  124MOL   H12029886   2.076   1.750   2.934 -0.9036  0.0222 -0.6093
  124MOL   H12129887   2.132   1.633   3.061 -0.7576 -0.7266  0.5888
  124MOL   C12229888   1.738   1.585   2.977 -0.3808  0.1551  0.3213
  124MOL   C12329889   1.686   1.486   3.084 -0.0031 -0.0640  0.3606
  124MOL   C12429890   1.695   1.336   3.036 -0.1427  0.1809 -0.0956
  124MOL   C12529891   1.632   1.303   2.900  1.0697 -0.1561 -0.3540
  124MOL   H12629892   1.805   1.529   2.911 -2.2386 -1.8711  0.0713
  124MOL   H12729893   1.661   1.609   2.903 -0.6093 -1.7463 -0.0928
  124MOL   H12829894   1.742   1.498   3.176 -0.9940  3.1106  0.6128
  124MOL   H12929895   1.642   1.272   3.107  0.9891  0.1286  0.7109
  124MOL   H13029896   1.797   1.297   3.036  0.5600  1.8458  2.6175
  124MOL   H13129897   1.617   1.196   2.883 -3.1026  0.4359 -0.8734
  124MOL   H13229898   1.541   1.358   2.877  0.8434  0.6567  2.2744
  124MOL   H13329899   1.703   1.338   2.825  1.0444 -0.6823 -0.6312
  124MOL   C13429900   1.545   1.514   3.143  0.6395  0.0489 -0.7232
  124MOL   C13529901   1.489   1.436   3.266  0.0365  0.0017  0.2516
  124MOL   C13629902   1.347   1.383   3.242  0.1091 -0.3725 -0.2243
  124MOL   C13729903   1.240   1.482   3.222 -0.7641  0.0004 -0.4471
  124MOL   H13829904   1.476   1.510   3.060 -0.1164 -1.2598 -0.0418
  124MOL   H13929905   1.534   1.618   3.173 -2.2812 -0.0329 -1.3681
  124MOL   H14029906   1.553   1.347   3.265  1.4303  0.9909 -0.3618
  124MOL   H14129907   1.325   1.309   3.320  1.2413 -0.4131  0.0655
  124MOL   H14229908   1.362   1.333   3.146 -2.3137  0.6192 -1.1552
  124MOL   H14329909   1.172   1.444   3.146  2.2174 -0.9055 -2.7703
  124MOL   H14429910   1.188   1.510   3.313  1.5377  0.4632  0.7655
  124MOL   H14529911   1.281   1.577   3.185  0.1265 -0.6018 -1.0299
  124MOL   C14629912   1.493   1.519   3.399 -0.0612 -0.4148  0.0103
  124MOL   C14729913   1.635   1.562   3.451 -0.0669 -0.5962  0.0442
  124MOL   C14829914   1.731   1.442   3.476  0.9176 -0.1561 -0.3723
  124MOL   C14929915   1.880   1.485   3.479 -0.5848  0.0318 -0.2790
  124MOL   H15029916   1.451   1.450   3.473  0.5529 -1.8519 -0.9477
  124MOL   H15129917   1.427   1.603   3.381  0.3040  0.5198  2.6999
  124MOL   H15229918   1.686   1.618   3.373  0.7378 -0.6443  0.5385
  124MOL   H15329919   1.721   1.368   3.396  1.6638  0.1732 -0.7767
  124MOL   H15429920   1.698   1.384   3.562 -1.1821  1.2667 -0.1806
  124MOL   H15529921   1.914   1.542   3.392 -1.1643  0.4407 -0.2417
  124MOL   H15629922   1.901   1.543   3.568 -1.4153 -0.9388  0.5586
  124MOL   H15729923   1.939   1.395   3.493 -2.6011 -0.8129  3.4343
  124MOL   C15829924   1.623   1.639   3.586 -0.2050 -0.1551 -0.2101
  124MOL   C15929925   1.536   1.766   3.598 -0.4098  0.0484 -0.4159
  124MOL   C16029926   1.565   1.871   3.483 -0.5100  0.2023  0.3498
  124MOL   C16129927   1.700   1.940   3.483 -0.9963 -0.5666 -0.5329
  124MOL   H16229928   1.725   1.667   3.615 -0.5618  0.1858  0.7435
  124MOL   H16329929   1.589   1.556   3.648  0.5747 -0.1297  0.2624
  124MOL   H16429930   1.432   1.736   3.595 -0.1892 -0.7634  0.0912
  124MOL   H16529931   1.485   1.944   3.494 -0.5219 -0.0197  1.8970
  124MOL   H16629932   1.540   1.821   3.389 -2.1888  0.9650  0.3757
  124MOL   H16729933   1.778   1.896   3.421 -0.7015  1.1922 -1.4421
  124MOL   H16829934   1.696   2.042   3.444  0.6918 -0.4325 -0.3894
  124MOL   H16929935   1.730   1.948   3.588  0.7726  0.1271 -1.0770
  124MOL   C17029936   1.540   1.815   3.738  0.5397 -0.0768  0.2814
  124MOL   C17129937   1.406   1.886   3.799 -0.3941  0.8990  0.1304
  124MOL   C17229938   1.444   2.015   3.875  0.3669 -0.0665 -0.3273
  124MOL   C17329939   1.509   2.123   3.801  0.0676 -0.4510  0.4771
  124MOL   H17429940   1.629   1.876   3.750 -0.7292  1.8804 -0.0395
  124MOL   H17529941   1.550   1.732   3.809 -1.2442  0.1466  0.8332
  124MOL   H17629942   1.350   1.902   3.707  1.6156  0.5900 -1.1781
  124MOL   H17729943   1.499   1.979   3.962 -0.3223  0.0488  0.1622
  124MOL   H17829944   1.349   2.054   3.913  1.1616  1.6669 -0.0779
  124MOL   H17929945   1.609   2.088   3.775 -0.0742 -1.1598  0.8743
  124MOL   H18029946   1.455   2.151   3.710 -2.7100  0.3552  2.3059
  124MOL   H18129947   1.536   2.209   3.863 -0.3251  0.7591 -0.9867
  124MOL   C18229948   1.327   1.787   3.893 -0.0053 -0.0531 -0.0635
  124MOL   C18329949   1.271   1.654   3.834  0.3031  0.6315 -0.4396
  124MOL   C18429950   1.162   1.669   3.724  0.7914 -0.8916  0.4840
  124MOL   C18529951   1.132   1.542   3.642  0.2142 -0.8044  0.6970
  124MOL   H18629952   1.236   1.837   3.927  0.5215  0.6266  0.3484
  124MOL   H18729953   1.390   1.754   3.975  0.8528 -2.1946 -1.5334
  124MOL   H18829954   1.347   1.599   3.779 -1.4488 -0.3848 -1.9129
  124MOL   H18929955   1.185   1.747   3.652 -0.4326 -1.2500 -0.3008
  124MOL   H19029956   1.068   1.703   3.769  0.7455 -0.0575 -0.2232
  124MOL   H19129957   1.068   1.563   3.557  1.0599 -1.4686 -0.1115
  124MOL   H19229958   1.219   1.487   3.607 -0.4913 -2.6333  1.6957
  124MOL   H19329959   1.076   1.472   3.705 -1.0201 -0.2894  0.1874
  124MOL   C19429960   1.218   1.555   3.942 -0.6127 -0.1877 -0.2027
  124MOL   C19529961   1.316   1.507   4.052 -0.1001 -0.3332 -0.9797
  124MOL   C19629962   1.446   1.440   3.997 -0.1710  0.6177 -0.7040
  124MOL   C19729963   1.442   1.297   3.926  0.1865 -0.5010  0.0027
  124MOL   H19829964   1.159   1.475   3.898  0.3375 -0.0337 -1.8114
  124MOL   H19929965   1.143   1.611   3.997 -2.0849 -2.1519 -0.1703
  124MOL   H20029966   1.361   1.595   4.098 -1.4505  0.2501 -0.7483
  124MOL   H20129967   1.518   1.430   4.079 -0.4502  1.9566 -0.2705
  124MOL   H20229968   1.496   1.505   3.925 -0.3882 -1.3487 -2.6564
  124MOL   H20329969   1.534   1.247   3.894  0.8268  1.0146 -0.5751
  124MOL   H20429970   1.401   1.227   3.999  1.0963 -0.4751  0.5489
  124MOL   H20529971   1.383   1.299   3.834 -1.2857 -0.8017  0.9400
  124MOL   C20629972   1.250   1.424   4.167 -0.4668  0.1279 -0.0530
  124MOL   C20729973   1.115   1.485   4.226 -0.9166 -0.6284  0.3263
  124MOL   C20829974   1.135   1.628   4.289  0.0029  0.4195  0.3346
  124MOL   C20929975   1.008   1.690   4.339 -0.1422  0.2679  0.0580
  124MOL   H21029976   1.328   1.409   4.242 -1.8252  0.8914  1.5704
  124MOL   H21129977   1.236   1.322   4.133  0.6139 -0.8383  2.2801
  124MOL   H21229978   1.042   1.480   4.145  1.6182 -0.3722 -2.0494
  124MOL   H21329979   1.175   1.696   4.213  0.7219 -0.1703  0.1857
  124MOL   H21429980   1.215   1.621   4.363 -0.6587 -0.7105  0.9546
  124MOL   H21529981   1.013   1.798   4.324 -1.8815  0.1722 -1.4230
  124MOL   H21629982   0.925   1.657   4.276  0.4132 -1.0431 -0.0150
  124MOL   H21729983   0.981   1.667   4.442 -0.2818  3.7637  0.8566
  124MOL   C21829984   1.060   1.396   4.342  0.3726 -0.2642 -0.3118
  124MOL   C21929985   1.041   1.242   4.305 -1.1259 -0.5301 -0.6462
  124MOL   C22029986   0.973   1.214   4.163  0.0155  0.1334  0.3187
  124MOL   C22129987   0.969   1.070   4.120  0.1552  0.0887  0.0569
  124MOL   H22229988   0.960   1.425   4.373  1.1324  0.7135  1.2585
  124MOL   H22329989   1.118   1.416   4.432  0.3512  2.6833 -0.8964
  124MOL   H22429990   1.142   1.203   4.289 -1.7578 -2.3800 -0.2214
  124MOL   H22529991   1.030   1.265   4.086 -0.9768  0.0557 -0.4755
  124MOL   H22629992   0.872   1.254   4.170 -0.7016 -1.6239  0.1775
  124MOL   H22729993   0.912   1.043   4.032 -1.7897 -0.4114  1.4435
  124MOL   H22829994   1.072   1.035   4.108 -0.7088 -2.2988 -0.7472
  124MOL   H22929995   0.917   1.009   4.194  2.0743 -1.5986  0.0926
  124MOL   C23029996   0.998   1.161   4.434  0.2921  0.6162 -0.2657
  124MOL   C23129997   1.108   1.144   4.542  0.1300 -0.7120  0.4307
  124MOL   C23229998   1.069   1.071   4.669  0.3919  0.0734 -0.8054
  124MOL   C23329999   1.188   1.014   4.750  0.1214  0.2950 -0.0037
  124MOL   H23430000   0.954   1.065   4.408 -0.3958  0.0122  2.9411
  124MOL   H23530001   0.911   1.206   4.482  0.5926  0.3167  0.5644
  124MOL   H23630002   1.199   1.100   4.501 -0.8377 -0.2755 -2.2726
  124MOL   H23730003   0.995   0.994   4.647 -0.1251 -0.0635  1.2953
  124MOL   H23830004   1.032   1.151   4.733 -0.6872 -0.3115 -0.9420
  124MOL   H23930005   1.167   0.969   4.847 -1.6722 -0.0855 -0.5586
  124MOL   H24030006   1.246   0.941   4.694 -1.0927 -1.3716  0.8419
  124MOL   H24130007   1.260   1.093   4.772 -0.6084  0.6804  1.0524
  124MOL   H24230008   1.128   1.246   4.575 -2.0983 -0.6015  1.5065
  125MOL     C130009   1.178   7.386   2.613 -0.6259 -0.1926 -0.0017
  125MOL     C230010   1.287   7.316   2.524 -0.5014  0.9311 -0.2884
  125MOL     C330011   1.218   7.230   2.418  0.2216 -0.0429  0.3983
  125MOL     C430012   1.155   7.309   2.303 -0.0924  0.1890  0.3664
  125MOL     H530013   1.223   7.439   2.697  1.0558 -0.3320 -0.7795
  125MOL     H630014   1.108   7.456   2.568 -0.0175 -0.0152 -0.6818
  125MOL     H730015   1.345   7.393   2.474 -1.4579  2.9155  1.5885
  125MOL     H830016   1.135   7.171   2.455 -0.0292 -0.0499 -0.1772
  125MOL     H930017   1.291   7.163   2.371 -3.0406 -1.6603 -2.5569
  125MOL    H1030018   1.226   7.347   2.229 -0.1891  0.5491  0.4581
  125MOL    H1130019   1.097   7.251   2.231 -0.5360  0.3278  0.6094
  125MOL    H1230020   1.098   7.394   2.340 -0.3798  1.6267 -3.1785
  125MOL    H1330021   1.116   7.311   2.662 -0.4148 -0.2950  0.1107
  125MOL    C1430022   1.375   7.220   2.613 -0.3090 -0.0574 -0.1730
  125MOL    C1530023   1.469   7.294   2.718  0.1130  0.4012  0.5020
  125MOL    C1630024   1.602   7.342   2.667  0.1417 -0.1142 -0.3192
  125MOL    C1730025   1.661   7.463   2.750 -0.4637  0.1707  0.4917
  125MOL    H1830026   1.439   7.167   2.542  1.9983 -0.0462  1.8382
  125MOL    H1930027   1.306   7.148   2.658 -0.9317 -0.0188 -1.0419
  125MOL    H2030028   1.417   7.383   2.754  1.1100  1.0125  0.4537
  125MOL    H2130029   1.592   7.368   2.562  2.5956  0.0211 -0.5552
  125MOL    H2230030   1.679   7.265   2.659 -0.8337 -1.4519  2.2821
  125MOL    H2330031   1.741   7.502   2.688 -1.0974 -0.4700 -0.7428
  125MOL    H2430032   1.593   7.546   2.772  0.0119  0.3375  1.3419
  125MOL    H2530033   1.697   7.438   2.850 -0.3972  1.3630  0.7710
  125MOL    C2630034   1.497   7.197   2.837 -0.0567 -0.0209  0.0831
  125MOL    C2730035   1.378   7.185   2.936  0.3004  0.5167 -0.2172
  125MOL    C2830036   1.369   7.305   3.030 -0.0909  0.5380  0.5439
  125MOL    C2930037   1.233   7.327   3.095  0.1411  0.3237  0.6526
  125MOL    H3030038   1.583   7.236   2.892 -0.3548  1.6410 -0.6313
  125MOL    H3130039   1.533   7.102   2.796 -0.8386 -0.7117  0.9667
  125MOL    H3230040   1.285   7.165   2.882  1.1500  0.9333 -1.8703
  125MOL    H3330041   1.374   7.391   2.963 -0.8365  0.4376  0.3620
  125MOL    H3430042   1.449   7.315   3.103 -0.4346 -0.0125  1.0037
  125MOL    H3530043   1.245   7.397   3.178  0.8445  0.1126  0.7277
  125MOL    H3630044   1.166   7.361   3.016 -0.1103 -0.8259  0.3707
  125MOL    H3730045   1.194   7.233   3.133  1.3913 -0.3231  0.3521
  125MOL    C3830046   1.395   7.056   3.033  0.0990  0.1757 -0.3775
  125MOL    C3930047   1.402   6.912   2.969  0.6540  0.6126  0.3806
  125MOL    C4030048   1.321   6.807   3.041 -0.2808  0.3072  0.2853
  125MOL    C4130049   1.297   6.669   2.972 -0.3870 -0.6422 -0.4447
  125MOL    H4230050   1.314   7.044   3.106  0.9971  3.0604  1.1399
  125MOL    H4330051   1.480   7.081   3.096 -0.2377  2.9686 -0.9628
  125MOL    H4430052   1.366   6.927   2.868  1.5642 -1.5491 -0.2951
  125MOL    H4530053   1.222   6.838   3.074 -0.9113 -1.1246 -0.2041
  125MOL    H4630054   1.371   6.788   3.136 -0.4247  1.6891  0.6460
  125MOL    H4730055   1.368   6.597   3.012 -0.7563 -1.6368 -1.5329
  125MOL    H4830056   1.194   6.636   2.988  0.4764 -3.3047 -0.0818
  125MOL    H4930057   1.305   6.675   2.863 -1.8084 -1.8013 -0.6292
  125MOL    C5030058   1.545   6.873   2.951  0.3901  0.2905  0.4229
  125MOL    C5130059   1.589   6.777   2.840  0.4829 -0.2285 -0.1832
  125MOL    C5230060   1.738   6.717   2.860  0.1073 -0.0364  0.2391
  125MOL    C5330061   1.771   6.668   3.005 -0.2805 -0.6448  0.3163
  125MOL    H5430062   1.576   6.831   3.046  0.4063 -0.9180 -0.1007
  125MOL    H5530063   1.611   6.960   2.948 -0.6272  1.0669  0.6755
  125MOL    H5630064   1.522   6.694   2.859 -1.2620  1.3638  0.8034
  125MOL    H5730065   1.815   6.785   2.824  0.1027 -1.0619 -1.8188
  125MOL    H5830066   1.738   6.626   2.800  0.7547  0.8636 -1.1411
  125MOL    H5930067   1.783   6.749   3.078  2.7137 -0.7216 -0.0073
  125MOL    H6030068   1.691   6.600   3.034  1.8391 -1.8512  3.6839
  125MOL    H6130069   1.859   6.604   3.009  0.3292  0.2134  0.7708
  125MOL    C6230070   1.577   6.849   2.702 -0.0539  0.6242 -0.8680
  125MOL    C6330071   1.616   6.775   2.573 -0.2226  0.7973  0.1372
  125MOL    C6430072   1.597   6.879   2.464  0.2768  0.4717  0.2757
  125MOL    C6530073   1.694   7.003   2.470  0.0283 -0.4138 -0.0411
  125MOL    H6630074   1.644   6.934   2.706 -0.1950  0.7235 -0.5865
  125MOL    H6730075   1.481   6.900   2.689 -0.3982  0.3073  0.3896
  125MOL    H6830076   1.724   6.760   2.571 -0.2543 -0.2878  3.8043
  125MOL    H6930077   1.494   6.914   2.457 -0.4632 -1.6105  0.4956
  125MOL    H7030078   1.618   6.837   2.366  0.4689  3.2334 -0.9139
  125MOL    H7130079   1.659   7.075   2.396 -0.7138  1.0217  1.6780
  125MOL    H7230080   1.693   7.062   2.561  1.2235  0.8733 -0.8430
  125MOL    H7330081   1.796   6.969   2.452 -0.5292 -2.0233 -0.2483
  125MOL    C7430082   1.537   6.650   2.554  0.0432 -0.3223  0.4089
  125MOL    C7530083   1.568   6.559   2.432  0.0507  0.3981  0.0013
  125MOL    C7630084   1.456   6.464   2.406 -0.6780  0.2257  0.5388
  125MOL    C7730085   1.448   6.342   2.501 -0.5509  0.5831 -0.0485
  125MOL    H7830086   1.432   6.679   2.564  0.4129  1.3310 -0.3616
  125MOL    H7930087   1.561   6.583   2.636 -0.3047  0.7071  1.3596
  125MOL    H8030088   1.563   6.618   2.340  2.6181 -1.1424 -1.1672
  125MOL    H8130089   1.463   6.430   2.303  1.9368 -1.2263  1.1441
  125MOL    H8230090   1.363   6.520   2.417 -0.6172  0.5544 -0.5368
  125MOL    H8330091   1.428   6.364   2.605 -2.3313 -0.5947 -0.1202
  125MOL    H8430092   1.363   6.280   2.471 -0.5602 -0.5833  2.3220
  125MOL    H8530093   1.529   6.271   2.494 -1.9497 -0.9581 -1.0491
  125MOL    C8630094   1.709   6.493   2.424 -0.3278 -0.0101  0.2676
  125MOL    C8730095   1.769   6.470   2.279 -0.0035  0.4492  0.7878
  125MOL    C8830096   1.725   6.334   2.218 -0.0995 -0.6576 -0.3241
  125MOL    C8930097   1.794   6.297   2.087  0.5766  1.2502 -0.8703
  125MOL    H9030098   1.707   6.403   2.484 -2.5287 -1.9201 -2.5701
  125MOL    H9130099   1.780   6.546   2.488  0.7067 -0.0831 -0.7766
  125MOL    H9230100   1.722   6.550   2.222 -0.7375  0.5116  1.4688
  125MOL    H9330101   1.617   6.337   2.205  0.1645 -2.1652 -3.0597
  125MOL    H9430102   1.748   6.256   2.291  1.9528 -1.4218 -1.7475
  125MOL    H9530103   1.745   6.221   2.027  0.0760 -0.5000  1.6760
  125MOL    H9630104   1.809   6.382   2.020  1.2381  1.2072 -0.7763
  125MOL    H9730105   1.893   6.257   2.109  0.0732  0.8387  0.7364
  125MOL    C9830106   1.921   6.487   2.276  0.6937  0.2406 -0.0914
  125MOL    C9930107   1.977   6.620   2.336 -0.2677  0.3281 -0.3391
  125MOL   C10030108   1.915   6.739   2.256 -0.1779 -0.0715 -0.3371
  125MOL   C10130109   1.927   6.730   2.097  0.2652  1.0782 -0.4415
  125MOL   H10230110   1.960   6.484   2.174  0.6177 -0.9153 -0.0834
  125MOL   H10330111   1.974   6.405   2.323  0.5138 -0.4921 -1.1528
  125MOL   H10430112   1.960   6.640   2.442  1.6601 -0.8750  0.2225
  125MOL   H10530113   1.960   6.830   2.295  1.9870 -0.8152 -1.0671
  125MOL   H10630114   1.811   6.744   2.289 -0.1911 -1.0756 -0.2186
  125MOL   H10730115   1.871   6.653   2.044  0.3169  1.3729 -0.9308
  125MOL   H10830116   1.886   6.822   2.055 -1.4079 -0.5109 -2.4474
  125MOL   H10930117   2.031   6.721   2.064  0.1262 -0.0685 -0.6082
  125MOL   C11030118   2.130   6.625   2.322 -0.8537 -0.2647 -1.1428
  125MOL   C11130119   2.214   6.537   2.421  0.1037 -0.4257 -0.2400
  125MOL   C11230120   2.277   6.633   2.523  0.6932 -0.0667 -0.3267
  125MOL   C11330121   2.185   6.673   2.643  0.1186 -0.0204  0.0015
  125MOL   H11430122   2.157   6.729   2.344 -0.5860 -0.5479 -0.1287
  125MOL   H11530123   2.147   6.609   2.215 -0.5137  1.7014 -1.4135
  125MOL   H11630124   2.148   6.469   2.475 -0.3784  0.7011  0.6077
  125MOL   H11730125   2.316   6.729   2.490 -2.2097  1.2277 -0.1116
  125MOL   H11830126   2.367   6.590   2.567  1.3434  1.5786 -0.0077
  125MOL   H11930127   2.099   6.730   2.608  0.4990 -0.5349 -1.8764
  125MOL   H12030128   2.134   6.579   2.666 -0.1114 -0.4651 -2.1449
  125MOL   H12130129   2.242   6.713   2.726  0.5468 -1.7889  0.5840
  125MOL   C12230130   2.330   6.458   2.349  0.2267  0.8908  0.2702
  125MOL   C12330131   2.276   6.340   2.257  0.6204  0.9088  0.4008
  125MOL   C12430132   2.244   6.222   2.351  0.5763  0.3737  0.1626
  125MOL   C12530133   2.166   6.106   2.283 -0.0742 -0.4007  0.6151
  125MOL   H12630134   2.399   6.419   2.424 -1.0641  0.4768  1.2445
  125MOL   H12730135   2.393   6.532   2.298 -0.2465  2.4322  1.8567
  125MOL   H12830136   2.181   6.365   2.210 -0.5877 -2.1749  1.0284
  125MOL   H12930137   2.196   6.259   2.441 -1.8954  1.3693 -1.5354
  125MOL   H13030138   2.343   6.183   2.376  1.4047  0.6642 -2.4828
  125MOL   H13130139   2.083   6.069   2.343 -0.0564 -0.4256  0.6241
  125MOL   H13230140   2.126   6.143   2.188  0.7194  1.5295  1.0105
  125MOL   H13330141   2.224   6.017   2.259  0.4784 -0.0199  0.5355
  125MOL   C13430142   2.378   6.302   2.146 -0.0065 -0.4404 -0.8033
  125MOL   C13530143   2.394   6.394   2.027 -0.6849 -0.3314  0.5320
  125MOL   C13630144   2.263   6.432   1.954 -0.2830  0.1609 -0.0392
  125MOL   C13730145   2.185   6.306   1.910 -0.0301 -0.3929  0.0887
  125MOL   H13830146   2.339   6.208   2.106  2.0893 -1.3153 -0.8485
  125MOL   H13930147   2.472   6.272   2.192 -0.1131 -0.6554 -0.7205
  125MOL   H14030148   2.436   6.488   2.062  0.6916 -0.2136 -1.3459
  125MOL   H14130149   2.296   6.492   1.869  1.2879  0.1339  0.5308
  125MOL   H14230150   2.215   6.504   2.020  1.7003  0.9180  0.6334
  125MOL   H14330151   2.239   6.230   1.856 -0.1633 -0.5322  0.1514
  125MOL   H14430152   2.146   6.252   1.997 -2.1274 -1.1803 -1.2917
  125MOL   H14530153   2.096   6.342   1.858  1.1769  2.1777 -0.2676
  125MOL   C14630154   2.507   6.323   1.939 -0.2941 -0.5587  0.2948
  125MOL   C14730155   2.566   6.411   1.826  0.3518 -0.1545  0.1173
  125MOL   C14830156   2.652   6.318   1.740  0.0166  0.4394 -0.5485
  125MOL   C14930157   2.680   6.359   1.594 -0.2254 -0.0230  0.0450
  125MOL   H15030158   2.469   6.229   1.898 -1.5335  0.7515 -1.6753
  125MOL   H15130159   2.589   6.288   2.001 -0.3398  2.3994  2.0971
  125MOL   H15230160   2.477   6.437   1.768 -0.4759  1.0414  1.9067
  125MOL   H15330161   2.609   6.218   1.734 -1.6719  1.2939 -3.6981
  125MOL   H15430162   2.738   6.308   1.806 -0.0425 -1.2985 -0.6955
  125MOL   H15530163   2.756   6.291   1.556  1.8348  1.6241  1.1305
  125MOL   H15630164   2.590   6.353   1.532 -0.7548  1.0809  0.6958
  125MOL   H15730165   2.728   6.456   1.598 -0.0353 -0.1598  1.1390
  125MOL   C15830166   2.643   6.543   1.863 -0.0905 -0.5222  0.3853
  125MOL   C15930167   2.563   6.683   1.855 -0.0175 -0.2577  0.6343
  125MOL   C16030168   2.540   6.723   1.709  0.3212 -0.0947 -0.6590
  125MOL   C16130169   2.404   6.673   1.649  0.3147 -0.1804  0.1292
  125MOL   H16230170   2.740   6.553   1.815  0.8446 -1.4696  2.0411
  125MOL   H16330171   2.674   6.524   1.966 -0.6912 -0.8312  0.5114
  125MOL   H16430172   2.467   6.667   1.905  0.1211 -2.1516  0.3320
  125MOL   H16530173   2.623   6.688   1.647  2.8036  0.2707  2.3350
  125MOL   H16630174   2.540   6.832   1.702  3.5231 -0.0821 -1.1254
  125MOL   H16730175   2.324   6.690   1.721  1.8263  2.3065  1.2810
  125MOL   H16830176   2.388   6.725   1.555 -0.2794  2.3530  1.5730
  125MOL   H16930177   2.409   6.565   1.632  0.7834 -0.6097  2.7604
  125MOL   C17030178   2.643   6.790   1.931 -0.0972  0.6891  0.2915
  125MOL   C17130179   2.599   6.788   2.087  0.5364  0.1516 -0.8110
  125MOL   C17230180   2.472   6.871   2.107  0.1400  0.3104 -0.4797
  125MOL   C17330181   2.484   7.015   2.084 -0.3391  0.8686 -0.5608
  125MOL   H17430182   2.616   6.888   1.891 -0.3746  0.2303 -0.6419
  125MOL   H17530183   2.750   6.776   1.921 -0.3676 -0.2745 -1.3071
  125MOL   H17630184   2.566   6.687   2.112 -3.8050  0.5551 -4.3698
  125MOL   H17730185   2.433   6.861   2.208 -1.4681  2.0797 -0.8955
  125MOL   H17830186   2.399   6.832   2.036 -2.1801  0.4670  1.7407
  125MOL   H17930187   2.559   7.072   2.140  0.6577 -1.9553  1.0457
  125MOL   H18030188   2.516   7.036   1.982 -0.4805 -3.2560 -1.5300
  125MOL   H18130189   2.384   7.059   2.084 -0.4848  0.5774 -1.9566
  125MOL   C18230190   2.712   6.822   2.180  0.0080  0.2668  0.5693
  125MOL   C18330191   2.689   6.785   2.324  0.3745 -0.0615  0.5610
  125MOL   C18430192   2.658   6.909   2.406  0.1625  0.4848 -0.2614
  125MOL   C18530193   2.573   6.882   2.534 -0.3324  0.4585 -0.0893
  125MOL   H18630194   2.730   6.928   2.162 -4.7384  1.1544  0.3247
  125MOL   H18730195   2.805   6.776   2.148 -0.7921 -1.1713  0.2719
  125MOL   H18830196   2.598   6.726   2.334 -0.6374  1.0050 -1.7692
  125MOL   H18930197   2.586   6.967   2.347  0.8347 -0.7276 -2.3406
  125MOL   H19030198   2.750   6.965   2.422  0.1158  0.1784  1.1332
  125MOL   H19130199   2.506   6.801   2.506  1.5609 -1.2949  0.3111
  125MOL   H19230200   2.629   6.861   2.625  1.5004  1.5721 -0.9218
  125MOL   H19330201   2.519   6.971   2.567 -2.2487 -0.9103  0.5277
  125MOL   C19430202   2.797   6.696   2.388  0.4300  0.0715 -0.0619
  125MOL   C19530203   2.805   6.548   2.329 -0.4492 -0.7121 -0.2899
  125MOL   C19630204   2.693   6.459   2.384  0.4719 -0.0197 -0.8366
  125MOL   C19730205   2.700   6.413   2.530  0.5547 -0.0381 -0.3927
  125MOL   H19830206   2.779   6.707   2.495 -0.2504 -0.4748 -0.1187
  125MOL   H19930207   2.896   6.741   2.373 -0.5751  1.2017 -3.9089
  125MOL   H20030208   2.800   6.554   2.220 -0.8477  0.0367 -0.2369
  125MOL   H20130209   2.689   6.370   2.320 -1.7034  0.1264 -0.9376
  125MOL   H20230210   2.601   6.516   2.373 -0.0806 -0.9200 -0.9512
  125MOL   H20330211   2.710   6.503   2.590 -0.5406 -0.4338  0.3975
  125MOL   H20430212   2.616   6.349   2.559  0.8602 -0.4441 -0.4057
  125MOL   H20530213   2.791   6.353   2.535  1.0343  0.6361 -0.9023
  125MOL   C20630214   2.943   6.486   2.349 -0.2868  0.7595  0.0835
  125MOL   C20730215   3.047   6.524   2.242  0.4087  0.6421  0.1022
  125MOL   C20830216   2.999   6.470   2.104  0.4795 -0.4523  0.2575
  125MOL   C20930217   2.990   6.580   1.994  0.0486 -0.5964  0.1905
  125MOL   H21030218   2.925   6.378   2.341 -0.7364  0.6512  2.3619
  125MOL   H21130219   2.978   6.506   2.450 -1.0116 -0.3735  0.5673
  125MOL   H21230220   3.047   6.632   2.233 -0.2900  0.6033 -0.3191
  125MOL   H21330221   2.903   6.419   2.096 -0.9065  0.9786  5.5987
  125MOL   H21430222   3.068   6.388   2.085  1.6361  0.8047 -1.0964
  125MOL   H21530223   2.968   6.539   1.895 -0.3514  0.6880 -0.2736
  125MOL   H21630224   2.895   6.634   2.000 -0.6914 -1.6669 -1.5836
  125MOL   H21730225   3.076   6.647   1.987 -1.2113  1.0161 -0.4356
  125MOL   C21830226   3.198   6.478   2.270 -0.4463  0.8852 -0.8603
  125MOL   C21930227   3.273   6.562   2.382 -0.1284  0.1203 -0.3006
  125MOL   C22030228   3.322   6.704   2.336  0.1469  0.4922  0.4460
  125MOL   C22130229   3.355   6.795   2.455 -0.5592 -0.6173  0.3766
  125MOL   H22230230   3.256   6.493   2.180 -0.3251  0.9557 -0.7697
  125MOL   H22330231   3.213   6.374   2.300 -0.6980  0.8054 -1.0018
  125MOL   H22430232   3.208   6.595   2.463 -1.0434 -1.3893 -0.3982
  125MOL   H22530233   3.252   6.752   2.267  2.5068  1.0144 -1.6448
  125MOL   H22630234   3.415   6.695   2.281 -0.7763 -0.8854 -0.9526
  125MOL   H22730235   3.283   6.789   2.537 -2.1507 -3.5414 -1.1378
  125MOL   H22830236   3.455   6.782   2.497 -0.1769 -1.6663 -0.8226
  125MOL   H22930237   3.348   6.898   2.420 -1.7782 -0.3724  1.3006
  125MOL   C23030238   3.385   6.479   2.461  0.4644 -0.3870 -0.1567
  125MOL   C23130239   3.510   6.446   2.385  0.1858 -0.2080  0.0415
  125MOL   C23230240   3.610   6.367   2.474  0.3952  0.0260 -0.2131
  125MOL   C23330241   3.753   6.367   2.419 -0.2813  0.6508  0.3959
  125MOL   H23430242   3.330   6.394   2.502 -0.2767 -0.7616 -1.8504
  125MOL   H23530243   3.416   6.531   2.551 -0.6735  0.4830 -0.2537
  125MOL   H23630244   3.478   6.400   2.292 -0.3388  0.5863 -0.1678
  125MOL   H23730245   3.574   6.264   2.477 -0.6760  0.4011 -0.1218
  125MOL   H23830246   3.614   6.405   2.576  0.7982 -0.0953 -0.1822
  125MOL   H23930247   3.804   6.297   2.485 -0.5965  0.3267  0.2988
  125MOL   H24030248   3.752   6.320   2.320 -3.0928  2.1715 -0.3346
  125MOL   H24130249   3.788   6.469   2.404  0.1105  0.3720 -0.6272
  125MOL   H24230250   3.563   6.535   2.352  0.9500 -1.0640 -1.0894
  126MOL     C130251   6.003   4.568   1.375 -0.2549 -0.4032  0.5734
  126MOL     C230252   6.016   4.689   1.281  0.1727  0.1072  0.4622
  126MOL     C330253   5.915   4.668   1.165 -0.2171 -0.5907 -0.3990
  126MOL     C430254   5.943   4.548   1.070 -0.1855 -1.0086  0.1805
  126MOL     H530255   5.901   4.557   1.412 -0.5404 -3.0953 -0.9266
  126MOL     H630256   6.034   4.472   1.334  1.2935  0.2512  0.1577
  126MOL     H730257   5.989   4.776   1.342  1.4114  0.4481  0.5277
  126MOL     H830258   5.906   4.758   1.104  2.4587 -0.1733 -0.2227
  126MOL     H930259   5.815   4.648   1.203 -0.9984 -1.3879 -2.7966
  126MOL    H1030260   5.855   4.520   1.011 -0.1952  0.0601 -0.3154
  126MOL    H1130261   6.016   4.567   0.992 -2.3348  0.1581 -1.6049
  126MOL    H1230262   5.979   4.465   1.131 -1.3497 -0.5242  1.5512
  126MOL    H1330263   6.063   4.572   1.467 -2.2137 -0.9678  1.9077
  126MOL    C1430264   6.165   4.704   1.240 -0.0572  0.2808  0.1257
  126MOL    C1530265   6.206   4.809   1.136 -0.3910  0.1096 -0.4284
  126MOL    C1630266   6.329   4.755   1.064 -0.3116  0.6100  0.3745
  126MOL    C1730267   6.453   4.739   1.153  0.2564 -0.2858  0.7802
  126MOL    H1830268   6.191   4.604   1.206  1.1256  0.1009  1.5323
  126MOL    H1930269   6.235   4.710   1.323  1.1698 -1.3784 -0.7711
  126MOL    H2030270   6.123   4.818   1.066 -2.0833 -2.1408  1.2206
  126MOL    H2130271   6.356   4.819   0.979  0.5606 -1.1775 -0.7217
  126MOL    H2230272   6.316   4.655   1.023 -0.5614  0.8024 -0.0285
  126MOL    H2330273   6.465   4.647   1.210  0.3345 -0.6357  0.2005
  126MOL    H2430274   6.539   4.738   1.087 -1.3038 -1.7150 -1.2870
  126MOL    H2530275   6.462   4.820   1.225  1.7008 -0.3316  0.6491
  126MOL    C2630276   6.223   4.944   1.198 -0.4680  0.0520 -0.3496
  126MOL    C2730277   6.249   5.056   1.094 -0.3348  0.3017  0.4390
  126MOL    C2830278   6.332   5.171   1.163  0.7217 -0.7770 -0.4760
  126MOL    C2930279   6.464   5.138   1.232 -0.0592  0.4197 -0.8759
  126MOL    H3030280   6.304   4.942   1.271 -1.0873 -0.2222  0.3320
  126MOL    H3130281   6.139   4.976   1.259  0.8368  1.1635  0.8857
  126MOL    H3230282   6.308   5.007   1.017 -0.5256 -1.1572  1.1862
  126MOL    H3330283   6.271   5.214   1.243  0.9791  0.2492 -0.8217
  126MOL    H3430284   6.349   5.249   1.089 -1.6525 -1.3937 -1.7166
  126MOL    H3530285   6.523   5.225   1.262 -0.6186  1.5554 -2.9551
  126MOL    H3630286   6.454   5.082   1.325  1.4659 -1.1605 -1.6349
  126MOL    H3730287   6.528   5.077   1.168  0.2917 -0.0545 -0.0665
  126MOL    C3830288   6.116   5.104   1.024 -0.1167  0.3604 -0.0327
  126MOL    C3930289   6.128   5.188   0.893  0.0669 -0.2884 -0.2675
  126MOL    C4030290   5.998   5.266   0.851  0.3134 -0.2835  0.2817
  126MOL    C4130291   5.871   5.187   0.814 -0.6410 -0.2850  0.8929
  126MOL    H4230292   6.072   5.179   1.090 -0.9656  0.0398 -0.2347
  126MOL    H4330293   6.042   5.025   1.013 -1.8283  2.0348 -0.9629
  126MOL    H4430294   6.203   5.265   0.914 -2.5709  3.0996 -2.7025
  126MOL    H4530295   6.014   5.344   0.777 -0.9563 -0.2631  0.0276
  126MOL    H4630296   5.969   5.325   0.937  1.4641  0.0016  0.4866
  126MOL    H4730297   5.799   5.267   0.794 -0.3428  0.3587  2.3298
  126MOL    H4830298   5.870   5.139   0.716 -0.0368 -0.0863  0.7909
  126MOL    H4930299   5.838   5.111   0.885 -0.0562 -0.3315  1.1174
  126MOL    C5030300   6.191   5.105   0.768 -0.0485 -0.0083 -0.7839
  126MOL    C5130301   6.246   5.193   0.656  0.2782  0.2836  0.4785
  126MOL    C5230302   6.153   5.201   0.537 -0.1419  0.1431 -0.1796
  126MOL    C5330303   6.142   5.068   0.457  0.0821 -0.4552 -0.0436
  126MOL    H5430304   6.113   5.038   0.733  2.0441 -2.9103 -0.0703
  126MOL    H5530305   6.261   5.026   0.795  0.0190 -0.3044 -1.7819
  126MOL    H5630306   6.245   5.292   0.700  1.1896  0.8240 -0.6741
  126MOL    H5730307   6.200   5.279   0.477  0.6883 -0.5420 -0.4252
  126MOL    H5830308   6.055   5.235   0.571 -0.8543 -0.9891 -1.0514
  126MOL    H5930309   6.228   5.047   0.394  1.3078  2.2128  0.6707
  126MOL    H6030310   6.134   4.986   0.529  2.2344 -0.0752  0.6528
  126MOL    H6130311   6.051   5.065   0.396  1.1398 -2.3170 -1.5982
  126MOL    C6230312   6.394   5.167   0.617 -0.0514 -0.1513  0.4564
  126MOL    C6330313   6.505   5.170   0.727  0.0639  0.3198  0.3751
  126MOL    C6430314   6.531   5.308   0.794 -0.0584  0.1986  0.8707
  126MOL    C6530315   6.602   5.311   0.919  0.1877 -0.1701  0.7697
  126MOL    H6630316   6.424   5.237   0.539 -2.2412 -0.8732 -1.0936
  126MOL    H6730317   6.386   5.072   0.564 -2.9267  1.5293 -2.3483
  126MOL    H6830318   6.469   5.107   0.809 -0.0609  0.2077  0.2349
  126MOL    H6930319   6.431   5.351   0.797  0.2399  0.9371  0.3083
  126MOL    H7030320   6.592   5.365   0.724 -1.5676 -0.3696 -0.9836
  126MOL    H7130321   6.606   5.419   0.937  1.3827  0.0043 -0.4212
  126MOL    H7230322   6.540   5.254   0.988 -2.3243  0.6543 -0.7190
  126MOL    H7330323   6.702   5.268   0.908 -0.2457 -1.2030  0.8714
  126MOL    C7430324   6.640   5.112   0.669 -0.3017  0.0118  0.1479
  126MOL    C7530325   6.641   4.961   0.631  0.1448 -0.2004  0.1226
  126MOL    C7630326   6.635   4.878   0.759 -0.1241 -0.7245  0.0916
  126MOL    C7730327   6.602   4.726   0.745 -0.5152  0.2185 -0.0055
  126MOL    H7830328   6.733   5.141   0.718  0.9727 -1.8781 -1.0905
  126MOL    H7930329   6.656   5.166   0.576 -1.1256  1.9939  1.1272
  126MOL    H8030330   6.549   4.939   0.578 -1.0814  1.1932  1.6088
  126MOL    H8130331   6.547   4.912   0.815  0.6837  1.8158 -0.1304
  126MOL    H8230332   6.712   4.902   0.833 -1.2077  2.4406  0.2394
  126MOL    H8330333   6.526   4.711   0.668 -1.0417  0.5785  0.4373
  126MOL    H8430334   6.684   4.665   0.709 -0.8995 -1.4886  1.8956
  126MOL    H8530335   6.566   4.680   0.838  1.5231  0.2914  0.8461
  126MOL    C8630336   6.761   4.910   0.543  0.2218  0.2367 -0.3099
  126MOL    C8730337   6.789   4.967   0.398  0.1230  0.1629  0.5635
  126MOL    C8830338   6.686   4.918   0.289  0.4343 -0.1395  0.2849
  126MOL    C8930339   6.571   5.016   0.266 -0.2544 -0.5090 -0.7385
  126MOL    H9030340   6.755   4.802   0.533 -0.8329  0.3728 -1.2013
  126MOL    H9130341   6.845   4.927   0.611 -0.7530  3.7884  0.0990
  126MOL    H9230342   6.784   5.073   0.424 -2.1919  0.7981 -2.2323
  126MOL    H9330343   6.646   4.818   0.307  1.0637 -0.5016 -0.3203
  126MOL    H9430344   6.738   4.895   0.197 -0.3535 -0.0330 -0.1947
  126MOL    H9530345   6.619   5.111   0.244 -0.3988  0.0003  1.0026
  126MOL    H9630346   6.520   4.980   0.177 -0.5785 -2.1087  0.0751
  126MOL    H9730347   6.517   5.032   0.360 -1.4491 -2.5951 -1.0346
  126MOL    C9830348   6.933   4.952   0.349 -0.4426 -0.0584 -0.2906
  126MOL    C9930349   6.981   5.032   0.227  0.0864 -0.4416 -0.0653
  126MOL   C10030350   7.108   4.972   0.167  0.3726 -0.2598 -0.0357
  126MOL   C10130351   7.089   4.925   0.014 -0.2298 -0.0472 -0.8731
  126MOL   H10230352   6.961   4.846   0.348  0.8762  0.2851 -0.3723
  126MOL   H10330353   7.007   4.981   0.424  1.9567  0.2391 -2.6709
  126MOL   H10430354   6.911   5.027   0.143  0.4304  2.7087 -0.6284
  126MOL   H10530355   7.137   4.885   0.226  0.9678 -1.3841 -1.9338
  126MOL   H10630356   7.181   5.052   0.176 -1.1777  1.0699  0.8773
  126MOL   H10730357   7.162   4.850   7.689  0.8121  0.1077  1.1160
  126MOL   H10830358   7.000   4.866   7.698  0.0098 -0.7270 -0.0164
  126MOL   H10930359   7.109   5.010   7.654  0.2052 -1.2156 -2.2753
  126MOL   C11030360   7.001   5.183   0.280 -0.0188  0.4238 -0.3153
  126MOL   C11130361   7.006   5.294   0.171  0.3977 -0.7217 -0.1589
  126MOL   C11230362   7.057   5.427   0.235 -0.6403 -0.1206 -0.6570
  126MOL   C11330363   7.201   5.418   0.302 -0.2191  0.1872 -1.0087
  126MOL   H11430364   7.091   5.183   0.341 -0.3135  1.6271  0.1306
  126MOL   H11530365   6.928   5.221   0.351 -0.4106  0.6193 -0.8200
  126MOL   H11630366   7.086   5.269   0.101  0.4297  0.0625 -0.4121
  126MOL   H11730367   6.990   5.470   0.309  0.0904  1.0236 -0.6420
  126MOL   H11830368   7.062   5.505   0.158  3.3401  0.2095 -0.1732
  126MOL   H11930369   7.198   5.346   0.384 -0.2700  0.2803 -0.9274
  126MOL   H12030370   7.282   5.391   0.235 -0.9232 -0.9677 -1.4156
  126MOL   H12130371   7.216   5.517   0.346 -3.4132 -0.3379  1.4773
  126MOL   C12230372   6.874   5.323   0.100 -0.0760 -0.5436  0.7540
  126MOL   C12330373   6.883   5.367   7.653  0.1126  0.1233  0.2392
  126MOL   C12430374   6.748   5.429   7.610  0.0248  0.4590 -0.8472
  126MOL   C12530375   6.737   5.573   7.654  0.6345  0.2704 -0.1658
  126MOL   H12630376   6.807   5.389   0.155 -0.0670 -0.2462  0.4070
  126MOL   H12730377   6.823   5.226   0.095 -3.1761  1.0343  0.1815
  126MOL   H12830378   6.966   5.438   7.650  0.3644 -0.1021  1.4377
  126MOL   H12930379   6.666   5.373   7.655  1.2525 -1.4455 -0.8961
  126MOL   H13030380   6.728   5.429   7.503  0.2943  1.6561 -0.9013
  126MOL   H13130381   6.761   5.591   0.053  2.9747  0.0321 -0.6489
  126MOL   H13230382   6.806   5.632   7.595  1.6492 -0.3321  0.4045
  126MOL   H13330383   6.635   5.605   7.631 -0.4009 -0.6241  2.8856
  126MOL   C13430384   6.933   5.250   7.563 -0.2907 -0.5652  0.3397
  126MOL   C13530385   6.938   5.291   7.413 -0.4228 -0.1877  0.3283
  126MOL   C13630386   6.890   5.176   7.318 -0.5615  0.0974  0.2258
  126MOL   C13730387   6.971   5.045   7.332  1.0705  0.1703  0.4529
  126MOL   H13830388   6.880   5.155   7.575  1.8869 -1.8607  0.0223
  126MOL   H13930389   7.027   5.209   7.601  1.3825  1.2636 -1.7432
  126MOL   H14030390   6.873   5.373   7.381  1.6156  1.3408 -0.0015
  126MOL   H14130391   6.878   5.212   7.216 -3.6480  0.3013  0.6029
  126MOL   H14230392   6.785   5.158   7.341 -0.7240  0.5939 -0.1257
  126MOL   H14330393   6.918   4.977   7.265 -0.8487  1.6663  0.4074
  126MOL   H14430394   7.071   5.051   7.289 -0.2053  0.7477 -2.5721
  126MOL   H14530395   6.968   4.993   7.427  0.9312  0.3899  0.5697
  126MOL   C14630396   7.077   5.344   7.381  0.0350 -0.7596  0.0249
  126MOL   C14730397   7.091   5.394   7.233 -0.5847  0.0511 -0.1736
  126MOL   C14830398   7.240   5.388   7.197 -0.7533 -0.2630 -0.3847
  126MOL   C14930399   7.310   5.252   7.184 -0.2412 -0.8467 -0.0842
  126MOL   H15030400   7.150   5.267   7.406  1.1947  0.7744  1.4697
  126MOL   H15130401   7.090   5.428   7.449 -2.2669 -0.6790  0.3885
  126MOL   H15230402   7.045   5.324   7.163 -1.7573 -0.5184  1.1400
  126MOL   H15330403   7.294   5.442   7.274  0.3560 -2.3495  0.3235
  126MOL   H15430404   7.258   5.424   7.095  2.3789 -1.0637 -0.1607
  126MOL   H15530405   7.325   5.206   7.282 -0.2523 -1.5018 -0.3854
  126MOL   H15630406   7.238   5.188   7.132  1.9551 -3.2299 -0.2760
  126MOL   H15730407   7.398   5.257   7.120 -0.1138  2.5076  0.2929
  126MOL   C15830408   7.030   5.533   7.217 -0.4518 -0.0519 -0.2685
  126MOL   C15930409   7.015   5.590   7.072  0.5781 -0.3917  0.1077
  126MOL   C16030410   7.075   5.736   7.045 -0.1001  1.0043  0.0518
  126MOL   C16130411   7.225   5.744   7.042 -0.4441 -0.1408  0.1372
  126MOL   H16230412   7.090   5.606   7.272  1.3352 -1.6365 -0.0527
  126MOL   H16330413   6.935   5.547   7.268  0.5683 -1.7622  2.2408
  126MOL   H16430414   7.059   5.519   7.002  0.7882 -1.3305  1.1703
  126MOL   H16530415   7.042   5.809   7.118  0.7293  1.8104 -0.3723
  126MOL   H16630416   7.040   5.775   6.950 -1.3150  0.7908  0.3994
  126MOL   H16730417   7.274   5.674   6.975  0.1102 -0.9678  1.3910
  126MOL   H16830418   7.247   5.849   7.021  1.3645 -0.9392 -2.0817
  126MOL   H16930419   7.256   5.719   7.143 -3.8741 -0.5185  1.1658
  126MOL   C17030420   6.859   5.578   7.032 -0.5080 -0.2025  0.1198
  126MOL   C17130421   6.825   5.593   6.881  0.1508  0.0651  0.0509
  126MOL   C17230422   6.671   5.573   6.866 -0.5539  0.3250  0.1991
  126MOL   C17330423   6.620   5.635   6.740  0.1101  0.0805  0.3711
  126MOL   H17430424   6.816   5.658   7.092  5.0367  3.5026 -0.4525
  126MOL   H17530425   6.819   5.485   7.072 -0.5092 -0.3965 -0.3296
  126MOL   H17630426   6.852   5.697   6.861 -1.1751  0.7501  1.7385
  126MOL   H17730427   6.618   5.624   6.946 -0.9424 -1.9298  1.4243
  126MOL   H17830428   6.646   5.467   6.867 -0.3736  0.2819  0.4765
  126MOL   H17930429   6.704   5.659   6.675  0.2807  0.9013  0.8911
  126MOL   H18030430   6.557   5.572   6.677 -1.7427 -1.7547  3.9015
  126MOL   H18130431   6.568   5.730   6.754 -0.9660 -0.8663  3.3178
  126MOL   C18230432   6.912   5.504   6.787 -0.1991 -0.2503  0.4569
  126MOL   C18330433   6.871   5.361   6.749  0.1816 -0.2504  0.3702
  126MOL   C18430434   6.920   5.263   6.857 -0.4356 -0.8649  0.3713
  126MOL   C18530435   6.831   5.144   6.894  0.1718  0.7570 -0.3545
  126MOL   H18630436   7.020   5.514   6.799  0.1212 -0.3472 -2.0854
  126MOL   H18730437   6.913   5.555   6.691 -0.0720 -1.7330 -0.3494
  126MOL   H18830438   6.763   5.352   6.738  0.0620  1.5373 -0.0296
  126MOL   H18930439   6.940   5.313   6.952 -1.2621  2.2919 -1.0441
  126MOL   H19030440   7.012   5.225   6.813  0.8397  0.4514  1.8599
  126MOL   H19130441   6.751   5.186   6.954 -1.4615 -0.5877 -1.5632
  126MOL   H19230442   6.797   5.080   6.813  0.6640  0.0124  0.0059
  126MOL   H19330443   6.888   5.076   6.958 -0.5817  0.3670 -0.0892
  126MOL   C19430444   6.924   5.311   6.607  0.4694 -0.6356  0.4055
  126MOL   C19530445   6.841   5.352   6.487 -0.1909  0.1888 -0.5423
  126MOL   C19630446   6.872   5.489   6.431 -0.0278 -0.0491 -0.3466
  126MOL   C19730447   6.845   5.502   6.281  0.2965  0.2248  0.0836
  126MOL   H19830448   6.946   5.205   6.613  0.6465 -0.6099  0.2036
  126MOL   H19930449   7.027   5.346   6.602  0.0346  0.8177  1.1534
  126MOL   H20030450   6.876   5.292   6.403  0.8489 -0.4850  0.3680
  126MOL   H20130451   6.970   5.526   6.459 -0.6492  2.5243 -1.4080
  126MOL   H20230452   6.798   5.556   6.476 -0.5271 -2.1551  2.0394
  126MOL   H20330453   6.836   5.609   6.265 -2.1722 -0.0388 -0.4841
  126MOL   H20430454   6.935   5.468   6.230  0.7951 -0.4907  1.4245
  126MOL   H20530455   6.754   5.452   6.247  0.7896 -0.1813 -0.6517
  126MOL   C20630456   6.683   5.318   6.487 -0.4166 -0.1437 -0.6788
  126MOL   C20730457   6.639   5.181   6.549  0.7200  0.0070  0.0216
  126MOL   C20830458   6.677   5.066   6.458 -0.6698 -0.3250  0.2335
  126MOL   C20930459   6.698   4.936   6.519  0.0054  0.2112  0.9825
  126MOL   H21030460   6.643   5.332   6.387 -1.2648 -0.1960 -0.3510
  126MOL   H21130461   6.632   5.395   6.546  1.7712  0.0981  1.0027
  126MOL   H21230462   6.688   5.169   6.645 -2.6414 -3.1952  1.4857
  126MOL   H21330463   6.758   5.087   6.389 -1.9847  0.3717 -1.1448
  126MOL   H21430464   6.590   5.055   6.393 -1.0522 -0.7676  0.8055
  126MOL   H21530465   6.628   4.908   6.597 -1.2687  0.1366 -0.1602
  126MOL   H21630466   6.680   4.863   6.440  0.8196  0.8534  0.1866
  126MOL   H21730467   6.803   4.929   6.544  0.4896  2.8422 -0.1426
  126MOL   C21830468   6.486   5.165   6.565  0.3785  0.5698  0.1458
  126MOL   C21930469   6.430   5.248   6.679  0.2573  0.9344  0.5542
  126MOL   C22030470   6.481   5.201   6.821 -0.0177  0.4403  0.1724
  126MOL   C22130471   6.443   5.275   6.944  0.7189  0.2263  0.2101
  126MOL   H22230472   6.458   5.063   6.589  2.7798  0.1237  1.1288
  126MOL   H22330473   6.434   5.184   6.471 -0.1023 -0.3653  0.2172
  126MOL   H22430474   6.477   5.346   6.664  1.2511 -0.2108 -4.6448
  126MOL   H22530475   6.589   5.203   6.811  0.3113 -2.5160  2.4651
  126MOL   H22630476   6.460   5.095   6.831 -1.3944  0.6646 -0.2824
  126MOL   H22730477   6.417   5.380   6.935 -2.8053 -0.7395 -2.3724
  126MOL   H22830478   6.362   5.229   7.001  0.1579  0.3928 -0.4515
  126MOL   H22930479   6.516   5.259   7.023 -0.4238 -0.3336  1.1748
  126MOL   C23030480   6.278   5.263   6.657 -0.8196 -0.7646 -0.8424
  126MOL   C23130481   6.183   5.149   6.682  0.1834  0.7071  0.1038
  126MOL   C23230482   6.044   5.192   6.723  0.1411 -0.1794  0.4069
  126MOL   C23330483   5.947   5.068   6.712  0.6541 -0.0663  0.1003
  126MOL   H23430484   6.251   5.301   6.559 -1.0573 -0.6486 -0.7304
  126MOL   H23530485   6.260   5.342   6.730 -1.2889 -1.2935 -0.3811
  126MOL   H23630486   6.190   5.088   6.592  3.6341  2.9721 -1.2777
  126MOL   H23730487   6.017   5.275   6.658  1.8055  0.1085  0.0647
  126MOL   H23830488   6.044   5.236   6.822  1.1822  0.3706  0.1603
  126MOL   H23930489   5.946   5.020   6.615  0.3101 -1.1848  0.6453
  126MOL   H24030490   5.958   5.002   6.798 -1.6746 -0.5498  0.0646
  126MOL   H24130491   5.843   5.102   6.718 -0.7003 -3.8962 -0.6775
  126MOL   H24230492   6.225   5.075   6.751 -1.2569  2.1961  2.6436
  127MOL     C130493   0.246   2.170   2.472 -0.5772  0.7938 -0.0229
  127MOL     C230494   0.173   2.291   2.413 -0.4211 -0.3677 -0.1209
  127MOL     C330495   0.270   2.408   2.405  0.5219  0.0262  0.8561
  127MOL     C430496   0.396   2.372   2.316  0.5298  0.2380  0.4996
  127MOL     H530497   0.176   2.091   2.500  0.0071  0.9262  1.8892
  127MOL     H630498   0.325   2.139   2.404 -1.4280 -2.3678  0.3753
  127MOL     H730499   0.145   2.256   2.314  1.8789 -3.3030  0.2017
  127MOL     H830500   0.291   2.433   2.509 -2.4674  0.8242  1.3121
  127MOL     H930501   0.219   2.494   2.362  1.2454  0.8116  1.5521
  127MOL    H1030502   0.371   2.346   2.213  0.0202 -0.3330  0.7622
  127MOL    H1130503   0.469   2.452   2.319  1.5864 -0.7187  0.6955
  127MOL    H1230504   0.448   2.283   2.353 -0.2306 -0.6535 -0.5282
  127MOL    H1330505   0.300   2.189   2.564  4.1740 -1.4796 -2.1691
  127MOL    C1430506   0.046   2.315   2.496 -0.3998 -0.4232  0.1212
  127MOL    C1530507   7.622   2.275   2.430  0.0910 -0.4152  0.3136
  127MOL    C1630508   7.504   2.352   2.484  0.2390 -0.1352 -0.0584
  127MOL    C1730509   7.486   2.332   2.634 -0.0274 -0.3953 -0.4600
  127MOL    H1830510   0.050   2.424   2.500  0.6846 -0.4134 -0.7055
  127MOL    H1930511   0.066   2.268   2.592 -1.7602 -2.0676 -0.3872
  127MOL    H2030512   7.613   2.314   2.329 -1.2667 -0.3841  0.4367
  127MOL    H2130513   7.406   2.330   2.440 -0.0910 -0.4652  0.8353
  127MOL    H2230514   7.523   2.458   2.467  0.7284 -0.2849 -0.4695
  127MOL    H2330515   7.473   2.228   2.665  1.2505 -0.3445  0.2403
  127MOL    H2430516   7.577   2.371   2.678  0.0625  0.7507 -1.6397
  127MOL    H2530517   7.403   2.386   2.680  1.8847 -0.2284  2.9504
  127MOL    C2630518   7.610   2.120   2.431 -0.5606  0.1072 -0.1824
  127MOL    C2730519   7.494   2.063   2.352  1.1295 -0.3854  0.6195
  127MOL    C2830520   7.458   1.921   2.396 -0.3763 -0.6583  0.0925
  127MOL    C2930521   7.565   1.808   2.371  1.3150  0.4643 -0.3738
  127MOL    H3030522   7.603   2.081   2.533 -1.6683 -0.3348 -0.4240
  127MOL    H3130523   7.700   2.079   2.385 -0.7422 -0.0813 -0.3755
  127MOL    H3230524   7.403   2.113   2.386  0.0079 -1.5948 -0.5399
  127MOL    H3330525   7.358   1.902   2.357 -2.1432  3.0802  2.4920
  127MOL    H3430526   7.452   1.918   2.505 -1.4982 -0.2443  0.0468
  127MOL    H3530527   7.551   1.723   2.437  1.7619  2.4624  2.3708
  127MOL    H3630528   7.569   1.759   2.274 -0.7667 -0.1113 -0.1899
  127MOL    H3730529   7.663   1.844   2.401  1.3692  0.7620 -0.8933
  127MOL    C3830530   7.519   2.078   2.206  0.2759  0.2277 -0.0719
  127MOL    C3930531   7.389   2.098   2.128  0.2312 -0.0772  0.2767
  127MOL    C4030532   7.359   1.975   2.042  0.4450  0.3759  0.4865
  127MOL    C4130533   7.456   1.950   1.922 -0.0264  0.1964  0.0066
  127MOL    H4230534   7.577   1.990   2.179  1.8539  2.1361 -3.2610
  127MOL    H4330535   7.579   2.167   2.186 -1.3041  1.3264 -0.0145
  127MOL    H4430536   7.307   2.106   2.199 -0.5811  0.4506 -0.7123
  127MOL    H4530537   7.260   1.989   1.997  1.3833 -0.4655 -1.9255
  127MOL    H4630538   7.356   1.888   2.108 -0.3732 -1.2728 -1.6479
  127MOL    H4730539   7.443   1.856   1.868 -0.5672 -0.0677  0.5928
  127MOL    H4830540   7.458   2.035   1.853  0.7655 -0.2074 -0.4733
  127MOL    H4930541   7.557   1.939   1.963  0.1526 -0.9781 -0.7457
  127MOL    C5030542   7.391   2.217   2.031 -0.9768  0.4635 -0.0060
  127MOL    C5130543   7.368   2.361   2.091  0.0418 -0.5005  0.5901
  127MOL    C5230544   7.243   2.368   2.172  0.1862 -0.2046  0.2825
  127MOL    C5330545   7.117   2.367   2.083 -0.1866 -0.3388 -0.2145
  127MOL    H5430546   7.312   2.199   1.958 -3.3874  0.9206  2.4362
  127MOL    H5530547   7.491   2.214   1.987 -0.8925 -1.7402  0.2853
  127MOL    H5630548   7.450   2.377   2.161 -0.5084  2.6865  0.5783
  127MOL    H5730549   7.251   2.452   2.240 -1.1870 -1.0845  1.5526
  127MOL    H5830550   7.231   2.287   2.244  0.9298 -1.5687 -1.0811
  127MOL    H5930551   7.025   2.342   2.136 -0.4000 -0.2809 -0.5600
  127MOL    H6030552   7.096   2.458   2.027  2.6180  0.8611  0.6014
  127MOL    H6130553   7.120   2.285   2.012 -2.5450 -0.6202 -0.0159
  127MOL    C6230554   7.391   2.467   1.969  0.0214 -1.0004 -0.0775
  127MOL    C6330555   7.383   2.615   2.015 -0.2933  0.3191  0.0773
  127MOL    C6430556   7.347   2.715   1.902  0.5733 -0.4463  0.4811
  127MOL    C6530557   7.441   2.713   1.791 -0.5710  0.5274  0.2595
  127MOL    H6630558   7.321   2.456   1.885  0.9222 -2.5649 -0.6391
  127MOL    H6730559   7.489   2.441   1.931  0.4385 -2.6264  2.0670
  127MOL    H6830560   7.305   2.632   2.089  0.9793 -0.5182  1.6206
  127MOL    H6930561   7.354   2.814   1.947  0.4355 -0.4261  0.4562
  127MOL    H7030562   7.244   2.701   1.871  0.5356 -0.0729  0.4444
  127MOL    H7130563   7.541   2.753   1.808 -2.0242  2.8883  4.0044
  127MOL    H7230564   7.462   2.613   1.754 -0.3848 -0.1974  2.2827
  127MOL    H7330565   7.405   2.776   1.710 -1.4388 -1.9299 -1.2989
  127MOL    C7430566   7.514   2.667   2.073  0.5541  0.0196  0.1694
  127MOL    C7530567   7.490   2.766   2.187  0.0525 -0.2511  0.0403
  127MOL    C7630568   7.617   2.842   2.227  0.2600 -0.3091 -0.2854
  127MOL    C7730569   7.687   2.931   2.119  0.6886  0.1969  0.2526
  127MOL    H7830570   7.584   2.697   1.995  0.3933  0.0811  0.0485
  127MOL    H7930571   7.565   2.582   2.117 -1.8709 -0.9484  1.1983
  127MOL    H8030572   7.417   2.841   2.153 -0.2774  0.1614  1.5953
  127MOL    H8130573   7.683   2.767   2.270 -0.8084  0.1959  2.3479
  127MOL    H8230574   7.604   2.902   2.318  1.7991 -0.4591  0.0373
  127MOL    H8330575   0.063   2.992   2.158  1.4009 -0.5509 -0.0757
  127MOL    H8430576   0.015   2.857   2.047  1.3818 -0.6854  1.4702
  127MOL    H8530577   7.615   2.993   2.066 -0.8114 -0.9739  0.8750
  127MOL    C8630578   7.436   2.697   2.315 -0.2237 -0.1849 -0.3543
  127MOL    C8730579   7.371   2.789   2.423  0.5710  0.1864 -0.7025
  127MOL    C8830580   7.361   2.704   2.553 -0.2681  1.1259  0.1349
  127MOL    C8930581   7.489   2.694   2.643  0.4062 -0.0593  0.9651
  127MOL    H9030582   7.521   2.647   2.359  0.0459  2.3626  2.1552
  127MOL    H9130583   7.372   2.613   2.288 -0.2128  0.0034 -0.9874
  127MOL    H9230584   7.431   2.877   2.448 -0.3883  0.7388 -0.3142
  127MOL    H9330585   7.321   2.605   2.532  1.0526  0.0778  2.4388
  127MOL    H9430586   7.284   2.754   2.612 -0.3149  0.1193  0.9497
  127MOL    H9530587   7.581   2.666   2.591  0.4511 -0.1482  1.0909
  127MOL    H9630588   7.498   2.789   2.695  0.0873  0.0917  0.7466
  127MOL    H9730589   7.476   2.618   2.720  1.3337 -1.6026 -0.3649
  127MOL    C9830590   7.227   2.829   2.378  0.1992 -0.3603  0.0043
  127MOL    C9930591   7.153   2.932   2.464 -0.7341 -0.6199 -0.2080
  127MOL   C10030592   7.006   2.905   2.494 -0.0152  0.3349  0.5808
  127MOL   C10130593   6.897   2.913   2.381 -0.6624 -0.4437  0.3110
  127MOL   H10230594   7.164   2.741   2.367  1.2273 -0.8499 -2.1614
  127MOL   H10330595   7.235   2.856   2.273  0.2486 -1.6453 -0.3205
  127MOL   H10430596   7.176   2.928   2.571  0.5603 -0.6057 -0.4748
  127MOL   H10530597   6.978   2.977   2.571 -1.2350  0.8598 -0.3241
  127MOL   H10630598   6.999   2.807   2.541 -0.9671 -1.3933 -2.9750
  127MOL   H10730599   6.911   2.832   2.310 -1.1446 -1.7480  1.6798
  127MOL   H10830600   6.798   2.901   2.424 -0.4993 -0.3012  0.7363
  127MOL   H10930601   6.888   3.009   2.330 -0.7044  0.0821  1.2780
  127MOL   C11030602   7.173   3.079   2.427 -0.5899 -0.2692 -0.5065
  127MOL   C11130603   7.311   3.148   2.472 -0.0353 -0.1146  0.1980
  127MOL   C11230604   7.330   3.161   2.630 -0.5553  0.1925 -0.2063
  127MOL   C11330605   7.464   3.216   2.677  0.0775 -0.3257 -0.5301
  127MOL   H11430606   7.094   3.144   2.466 -0.5874 -0.6905  0.2062
  127MOL   H11530607   7.149   3.083   2.321  2.3892 -1.1670 -1.2681
  127MOL   H11630608   7.400   3.099   2.432  0.6876  0.5208  0.9954
  127MOL   H11730609   7.318   3.068   2.686  0.9706 -0.0694 -0.3087
  127MOL   H11830610   7.246   3.228   2.650  0.8560  1.6717  0.8663
  127MOL   H11930611   7.469   3.323   2.656  0.8015 -0.0982  0.7263
  127MOL   H12030612   7.465   3.218   2.786  1.7198  1.8890 -0.5458
  127MOL   H12130613   7.553   3.168   2.636  0.3628  1.1458 -1.6857
  127MOL   C12230614   7.331   3.285   2.404 -0.1148  0.0893  0.1170
  127MOL   C12330615   7.333   3.295   2.247  1.0449  0.7458  0.0239
  127MOL   C12430616   7.445   3.212   2.179  0.4952  0.0320 -0.0552
  127MOL   C12530617   7.584   3.270   2.184  0.1511  0.0452  0.2047
  127MOL   H12630618   7.415   3.340   2.444 -2.2133  1.6840  2.5002
  127MOL   H12730619   7.245   3.341   2.439 -0.8538 -0.4550 -0.7726
  127MOL   H12830620   7.239   3.253   2.212  0.7838  1.1113  0.2891
  127MOL   H12930621   7.423   3.188   2.075 -2.8170  0.8655  0.4056
  127MOL   H13030622   7.452   3.111   2.219  0.5899  0.4255  0.9345
  127MOL   H13130623   7.658   3.201   2.144 -2.5497 -0.6679 -3.8324
  127MOL   H13230624   7.580   3.347   2.107 -0.5147 -2.5207 -2.4070
  127MOL   H13330625   7.609   3.311   2.282  0.8297 -2.7948  1.2785
  127MOL   C13430626   7.329   3.440   2.194  0.1913  0.1376 -0.1775
  127MOL   C13530627   7.203   3.520   2.207  0.0078  0.6121  0.3069
  127MOL   C13630628   7.090   3.467   2.115 -0.3902 -0.0127 -0.1736
  127MOL   C13730629   7.107   3.465   1.966 -0.6063 -0.2422 -0.3638
  127MOL   H13830630   7.367   3.450   2.092  1.2645 -2.3871 -0.0608
  127MOL   H13930631   7.405   3.488   2.255  0.5442 -1.0438  0.3308
  127MOL   H14030632   7.157   3.509   2.305  0.5208  0.8736  0.5780
  127MOL   H14130633   7.001   3.526   2.140  1.6208  1.9690  2.5957
  127MOL   H14230634   7.050   3.369   2.140 -0.5470  0.0925 -0.0077
  127MOL   H14330635   7.012   3.459   1.913 -0.4134  1.3092 -0.8998
  127MOL   H14430636   7.150   3.564   1.952 -0.7628 -0.0179  0.6973
  127MOL   H14530637   7.171   3.383   1.935 -2.9502 -2.1719 -0.2806
  127MOL   C14630638   7.235   3.668   2.188  0.1661 -0.9042 -0.4686
  127MOL   C14730639   7.306   3.740   2.312 -0.1120 -0.0882 -0.7521
  127MOL   C14830640   7.195   3.756   2.420  0.1255  0.6849  0.3898
  127MOL   C14930641   7.240   3.784   2.562 -0.3501  0.3827 -0.3197
  127MOL   H15030642   7.147   3.724   2.156 -0.1245 -0.1249  1.5866
  127MOL   H15130643   7.300   3.677   2.101 -0.9327 -0.8608 -1.2883
  127MOL   H15230644   7.370   3.661   2.351  0.6008  1.8896  2.2094
  127MOL   H15330645   7.125   3.672   2.420  1.0598 -0.1034  0.3775
  127MOL   H15430646   7.130   3.834   2.381 -1.4543 -0.1854  1.2444
  127MOL   H15530647   7.299   3.875   2.566  0.5931 -0.2191 -0.3852
  127MOL   H15630648   7.151   3.817   2.615  0.8849  3.1192  0.1245
  127MOL   H15730649   7.282   3.696   2.611  2.2096  0.2615 -2.6135
  127MOL   C15830650   7.372   3.875   2.275 -0.6327 -0.0753  0.4048
  127MOL   C15930651   7.507   3.872   2.194  0.8815  0.5105  0.3269
  127MOL   C16030652   7.626   3.828   2.286  0.3192 -0.9903 -0.5750
  127MOL   C16130653   0.030   3.763   2.203 -0.5124 -0.1063  0.6686
  127MOL   H16230654   7.377   3.933   2.367 -1.0085 -0.7887  0.8749
  127MOL   H16330655   7.295   3.923   2.215 -0.3538  0.6093  0.5962
  127MOL   H16430656   7.495   3.788   2.126  1.8868  1.4940 -1.0881
  127MOL   H16530657   7.582   3.745   2.340 -1.5654 -0.2241 -0.9058
  127MOL   H16630658   7.660   3.914   2.344  2.7096 -1.5971 -0.9963
  127MOL   H16730659   0.115   3.735   2.266  0.3757  1.1137  0.0468
  127MOL   H16830660   7.701   3.672   2.153 -1.3369  0.4330  0.2495
  127MOL   H16930661   0.070   3.822   2.120  0.5382 -1.7295 -0.0276
  127MOL   C17030662   7.536   4.007   2.128 -0.5108  0.2163  0.1469
  127MOL   C17130663   7.452   4.050   2.007 -0.5362 -0.0330  0.9936
  127MOL   C17230664   7.474   3.949   1.889 -0.2018 -0.3832 -0.7123
  127MOL   C17330665   7.376   3.965   1.766  0.3654  0.1736  0.1920
  127MOL   H17430666   7.643   4.010   2.104 -0.6999 -0.2440 -0.7678
  127MOL   H17530667   7.530   4.076   2.212 -4.3138 -0.0266  0.1596
  127MOL   H17630668   7.352   4.040   2.048 -0.1550  1.3329  2.3085
  127MOL   H17730669   7.463   3.847   1.927 -1.4579  0.4688  1.3186
  127MOL   H17830670   7.572   3.956   1.842 -0.3766 -0.9239 -1.1557
  127MOL   H17930671   7.389   3.877   1.703  3.0986 -1.5070  2.9800
  127MOL   H18030672   7.273   3.966   1.801  0.7760  0.1892  1.4210
  127MOL   H18130673   7.393   4.057   1.709 -0.6440 -0.3567 -1.0001
  127MOL   C18230674   7.472   4.196   1.970 -0.4617  0.0222  0.7642
  127MOL   C18330675   7.430   4.291   2.087  0.4090  0.7709  0.2634
  127MOL   C18430676   7.281   4.258   2.133 -0.3326 -0.3404 -0.4714
  127MOL   C18530677   7.168   4.239   2.028  0.3118  0.1348 -0.1889
  127MOL   H18630678   7.416   4.230   1.883  0.4857 -1.2503 -0.3694
  127MOL   H18730679   7.578   4.213   1.948 -1.1891  2.5404 -1.0922
  127MOL   H18830680   7.513   4.287   2.157  1.4333  2.7063 -0.7749
  127MOL   H18930681   7.238   4.334   2.199 -1.6421 -0.3964 -1.2468
  127MOL   H19030682   7.278   4.173   2.202 -0.5181  1.5694  1.9325
  127MOL   H19130683   7.188   4.151   1.966 -0.3756 -0.5494  0.5329
  127MOL   H19230684   7.069   4.215   2.067  0.2126  0.7783 -0.0450
  127MOL   H19330685   7.160   4.329   1.969 -1.4123 -1.1235 -1.9368
  127MOL   C19430686   7.429   4.437   2.045  0.2179 -0.1276 -0.1833
  127MOL   C19530687   7.418   4.541   2.162 -0.5642  0.2559 -0.0144
  127MOL   C19630688   7.351   4.669   2.114 -0.5335 -0.0492 -0.1417
  127MOL   C19730689   7.336   4.752   2.240 -0.1397  0.8245  0.0982
  127MOL   H19830690   7.352   4.444   1.968 -0.5205  0.2263  0.5757
  127MOL   H19930691   7.523   4.449   1.992  1.3407 -2.4870  1.2512
  127MOL   H20030692   7.354   4.507   2.244  1.7771  0.2984  1.8792
  127MOL   H20130693   7.254   4.655   2.068 -1.4691  0.0643  1.7484
  127MOL   H20230694   7.414   4.729   2.049 -0.4053  0.7168  0.6845
  127MOL   H20330695   7.286   4.701   2.322  2.5903  0.1713  1.4130
  127MOL   H20430696   7.430   4.798   2.269 -0.4944  1.5954  0.0464
  127MOL   H20530697   7.278   4.840   2.212 -1.4414 -0.5109 -1.4587
  127MOL   C20630698   7.557   4.557   2.237  0.9370  0.2248  1.1606
  127MOL   C20730699   7.668   4.633   2.167  0.6234 -0.3130  0.4947
  127MOL   C20830700   0.066   4.537   2.103 -0.0314 -0.4482 -0.0470
  127MOL   C20930701   0.098   4.564   1.953 -0.2514 -1.0720 -0.5895
  127MOL   H21030702   7.583   4.456   2.267 -0.5381 -0.7502 -0.7361
  127MOL   H21130703   7.536   4.605   2.333  0.7747  1.7693  0.3758
  127MOL   H21230704   7.623   4.690   2.085 -1.2615  0.2933  1.8970
  127MOL   H21330705   0.035   4.433   2.107  1.5165 -0.8980  0.4254
  127MOL   H21430706   0.164   4.548   2.149  0.4683  2.1208 -1.6156
  127MOL   H21530707   0.012   4.557   1.886  1.1417  2.2342 -2.8839
  127MOL   H21630708   0.116   4.669   1.932  0.2310 -0.6296  1.8583
  127MOL   H21730709   0.174   4.492   1.920  1.9591  0.2173  1.5025
  127MOL   C21830710   0.028   4.742   2.249  0.0541 -0.0879  0.1340
  127MOL   C21930711   0.085   4.696   2.383  0.3238 -0.3715 -0.1241
  127MOL   C22030712   0.008   4.746   2.511  0.2597 -0.6005 -0.1761
  127MOL   C22130713   0.056   4.673   2.635  0.1812  0.5630 -1.0628
  127MOL   H22230714   7.676   4.834   2.259  1.4484  0.6680  1.4583
  127MOL   H22330715   0.108   4.778   2.183  0.2782  0.4412  0.6952
  127MOL   H22430716   0.089   4.587   2.384 -1.1298 -0.4349 -0.7849
  127MOL   H22530717   7.609   4.729   2.487  0.0304  1.4683 -0.6995
  127MOL   H22630718   0.025   4.852   2.529 -1.8142 -0.3381  0.4262
  127MOL   H22730719   0.164   4.681   2.641  0.2654 -0.5674 -0.9239
  127MOL   H22830720   0.010   4.715   2.725  0.7952  0.7029 -0.8166
  127MOL   H22930721   0.030   4.568   2.626  0.9918  0.2574  0.0387
  127MOL   C23030722   0.234   4.744   2.391  0.1976  0.5697  0.6925
  127MOL   C23130723   0.264   4.893   2.393  0.1721 -0.4386  0.3552
  127MOL   C23230724   0.416   4.918   2.367  0.9424  0.0433 -0.4391
  127MOL   C23330725   0.469   5.059   2.394  0.8362 -0.1767  0.1196
  127MOL   H23430726   0.291   4.700   2.309  0.4470 -0.9456  1.6555
  127MOL   H23530727   0.269   4.694   2.481 -0.6416 -1.3819 -0.0378
  127MOL   H23630728   0.195   4.952   2.333 -1.1506 -1.1650  1.1345
  127MOL   H23730729   0.430   4.893   2.262  0.8414  0.3246 -0.5217
  127MOL   H23830730   0.476   4.846   2.423 -0.5813 -2.7837 -2.3510
  127MOL   H23930731   0.576   5.070   2.410  0.6386  1.1606  0.5481
  127MOL   H24030732   0.431   5.131   2.322 -2.0048 -1.4190  0.3190
  127MOL   H24130733   0.422   5.093   2.486 -1.2782 -1.4816 -0.4298
  127MOL   H24230734   0.237   4.924   2.494  0.2511  0.1622  0.1877
  128MOL     C130735   6.362   1.811   7.149  0.4858 -0.1619  0.2778
  128MOL     C230736   6.338   1.665   7.205 -0.1238  0.2762 -0.2894
  128MOL     C330737   6.270   1.569   7.097  0.0710  0.2911 -0.1972
  128MOL     C430738   6.377   1.534   6.991 -0.5634 -0.0333  0.4636
  128MOL     H530739   6.406   1.783   7.053 -0.7443 -1.5320  0.1030
  128MOL     H630740   6.262   1.851   7.135  1.5014  2.1426 -0.6449
  128MOL     H730741   6.435   1.623   7.228 -0.2763 -0.2428 -0.5998
  128MOL     H830742   6.184   1.616   7.049  0.7505  1.7948  0.0292
  128MOL     H930743   6.236   1.473   7.135  0.0124  0.2066 -0.4596
  128MOL    H1030744   6.460   1.486   7.042  0.0395 -0.1332 -0.6020
  128MOL    H1130745   6.331   1.464   6.921 -2.9962  0.6981  1.2643
  128MOL    H1230746   6.410   1.621   6.933  0.2518 -1.4221 -1.1866
  128MOL    H1330747   6.429   1.873   7.209  1.6776 -1.4686  0.3403
  128MOL    C1430748   6.251   1.662   7.334  0.3230  0.0081  0.3848
  128MOL    C1530749   6.262   1.523   7.424  0.6224 -0.7499  0.6884
  128MOL    C1630750   6.163   1.542   7.543  0.0765  0.4809 -0.3236
  128MOL    C1730751   6.014   1.531   7.508  0.2214 -0.6964  1.0354
  128MOL    H1830752   6.146   1.678   7.309  0.5939  1.7752  0.2702
  128MOL    H1930753   6.270   1.749   7.398 -0.5764 -0.0015  0.6717
  128MOL    H2030754   6.225   1.453   7.349  0.9306 -0.6779  0.4675
  128MOL    H2130755   6.176   1.645   7.579  1.4629 -0.0688  0.8368
  128MOL    H2230756   6.184   1.465   7.618 -0.8739 -0.6699 -1.2195
  128MOL    H2330757   5.975   1.623   7.464 -1.0593 -1.1765  1.1494
  128MOL    H2430758   5.978   1.444   7.453  0.7337  0.0412 -0.4908
  128MOL    H2530759   5.971   1.522   7.608 -1.3605 -2.5645  0.2240
  128MOL    C2630760   6.402   1.484   7.464 -0.6632 -0.3046  0.3123
  128MOL    C2730761   6.412   1.338   7.512 -0.1017 -0.3779 -0.2182
  128MOL    C2830762   6.540   1.306   7.590  0.4336  0.1714  0.3274
  128MOL    C2930763   6.542   1.381   0.014 -0.5794 -0.7044 -0.3485
  128MOL    H3030764   6.436   1.546   7.547 -0.7623 -0.4106  0.4337
  128MOL    H3130765   6.473   1.497   7.383 -2.1638 -2.3057 -1.3821
  128MOL    H3230766   6.326   1.321   7.577  0.9725 -1.1561  1.0359
  128MOL    H3330767   6.617   1.335   7.519  0.2421  1.1997  0.5326
  128MOL    H3430768   6.546   1.200   7.614  1.6686 -0.4337 -2.4902
  128MOL    H3530769   6.536   1.490   0.017  1.2077 -0.6163  1.0331
  128MOL    H3630770   6.475   1.332   0.084 -0.6373 -1.5486 -0.9790
  128MOL    H3730771   6.634   1.370   0.071 -1.2853 -1.0777  0.7290
  128MOL    C3830772   6.408   1.239   7.395  0.0657 -0.2242 -0.2096
  128MOL    C3930773   6.334   1.110   7.442  0.1874 -0.2709  0.6871
  128MOL    C4030774   6.433   0.997   7.458 -0.1951 -0.5243 -0.3014
  128MOL    C4130775   6.531   0.975   7.336 -0.0653 -0.3154  0.2934
  128MOL    H4230776   6.508   1.233   7.354 -0.1455  0.4377 -0.8489
  128MOL    H4330777   6.344   1.286   7.320 -0.6477  3.2928  2.4838
  128MOL    H4430778   6.287   1.118   7.540 -2.1922  0.4833 -0.4722
  128MOL    H4530779   6.380   0.906   7.488 -0.6165  0.1216  0.9325
  128MOL    H4630780   6.493   1.018   7.546 -0.2292  2.1473 -0.8863
  128MOL    H4730781   6.620   1.037   7.338 -0.0344 -0.3737  0.6705
  128MOL    H4830782   6.563   0.871   7.341 -0.7174 -0.4679  1.2872
  128MOL    H4930783   6.486   0.981   7.237  1.4762  1.7526 -0.3147
  128MOL    C5030784   6.220   1.071   7.352 -0.2349 -0.6736  0.1253
  128MOL    C5130785   6.079   1.129   7.377  0.5534 -0.2087 -0.5893
  128MOL    C5230786   6.019   1.110   7.524 -0.6866  0.7616  0.3531
  128MOL    C5330787   6.007   0.965   7.568 -0.8744 -0.3630  0.2760
  128MOL    H5430788   6.209   0.963   7.360  1.1512 -0.7206  1.9189
  128MOL    H5530789   6.258   1.095   7.253 -3.3391  0.9790 -0.7184
  128MOL    H5630790   6.085   1.237   7.363 -0.5191  0.0580  0.8470
  128MOL    H5730791   5.925   1.163   7.536 -1.2526 -0.4203  1.2517
  128MOL    H5830792   6.089   1.157   7.593  0.2063 -0.7062  0.4753
  128MOL    H5930793   5.924   0.922   7.511 -0.5878  2.9721 -2.8631
  128MOL    H6030794   6.096   0.905   7.552 -2.2699 -2.9456  1.7924
  128MOL    H6130795   5.988   0.961   7.675 -0.0734  1.5738  0.5089
  128MOL    C6230796   5.974   1.077   7.276 -0.2717  0.2691  0.5145
  128MOL    C6330797   5.987   1.120   7.123  0.1242 -0.1816 -0.4942
  128MOL    C6430798   5.999   1.269   7.088 -0.4415  0.1638  0.4346
  128MOL    C6530799   5.869   1.353   7.119  0.4714  0.4214 -0.2341
  128MOL    H6630800   5.878   1.107   7.316 -0.1039 -0.2933  1.3731
  128MOL    H6730801   5.968   0.968   7.278  0.2162  0.2133 -0.7120
  128MOL    H6830802   6.081   1.066   7.111  1.5504  1.7417  1.7559
  128MOL    H6930803   6.027   1.278   6.983 -1.2327 -1.1031  0.1016
  128MOL    H7030804   6.081   1.301   7.152 -1.1885 -1.1302  2.0573
  128MOL    H7130805   5.833   1.348   7.222 -0.8877  1.9010 -0.6231
  128MOL    H7230806   5.896   1.457   7.101 -0.9326  0.8240 -0.0973
  128MOL    H7330807   5.782   1.339   7.054  0.2094  2.5226 -0.3688
  128MOL    C7430808   5.870   1.059   7.037 -0.3942 -0.9881 -0.3974
  128MOL    C7530809   5.891   0.910   6.997 -0.3800 -0.7731  0.0205
  128MOL    C7630810   6.015   0.886   6.901 -0.1549 -0.5104  0.1814
  128MOL    C7730811   5.998   0.943   6.762 -0.6045 -0.0783 -0.2619
  128MOL    H7830812   5.855   1.116   6.945 -0.0155 -0.5906 -0.2141
  128MOL    H7930813   5.775   1.072   7.088  0.6422  2.2880  0.7618
  128MOL    H8030814   5.916   0.866   7.094 -0.8403  1.6323  1.2780
  128MOL    H8130815   6.035   0.779   6.889 -1.3888 -0.3317 -4.2786
  128MOL    H8230816   6.107   0.930   6.939 -0.6822  2.9687 -2.3429
  128MOL    H8330817   5.965   1.047   6.762 -0.9995 -0.1209  3.1146
  128MOL    H8430818   6.097   0.952   6.720 -0.4988 -2.4234 -0.5664
  128MOL    H8530819   5.936   0.884   6.694  0.0734 -1.3070  0.1597
  128MOL    C8630820   5.761   0.852   6.936  0.2467  0.0011  0.1419
  128MOL    C8730821   5.759   0.705   6.900  0.5075  0.5494 -0.2041
  128MOL    C8830822   5.641   0.658   6.811  0.2036  0.6210  0.6814
  128MOL    C8930823   5.504   0.667   6.892  0.1180  0.1682  0.8281
  128MOL    H9030824   5.723   0.918   6.857  1.2707  0.0345 -0.3375
  128MOL    H9130825   5.683   0.871   7.009  1.7773  0.5211  1.6810
  128MOL    H9230826   5.839   0.709   6.826  0.0747  1.5085 -0.6316
  128MOL    H9330827   5.662   0.560   6.767  0.2716 -0.1871  2.4937
  128MOL    H9430828   5.644   0.720   6.721 -1.0615  0.0175  0.2128
  128MOL    H9530829   5.414   0.663   6.832  1.4326  2.5658 -1.4084
  128MOL    H9630830   5.495   0.580   6.957  1.2231 -1.1994 -0.8345
  128MOL    H9730831   5.502   0.754   6.959  0.2561  1.2394 -0.5431
  128MOL    C9830832   5.796   0.609   7.013 -0.0305  0.5265  0.1051
  128MOL    C9930833   5.841   0.468   6.967  0.4706 -0.6804  0.3845
  128MOL   C10030834   5.723   0.367   6.963 -0.3568 -0.0368  0.5370
  128MOL   C10130835   5.747   0.234   6.880 -0.4603 -0.1620 -0.0473
  128MOL   H10230836   5.716   0.606   7.088  0.7908  1.0385  1.0078
  128MOL   H10330837   5.879   0.648   7.071 -0.4228  0.3610  0.7837
  128MOL   H10430838   5.886   0.479   6.868 -0.8678 -1.1468 -0.2803
  128MOL   H10530839   5.636   0.411   6.915  0.4862  1.3738  0.2810
  128MOL   H10630840   5.686   0.342   7.063  0.0309  1.4975  1.0883
  128MOL   H10730841   5.786   0.255   6.781 -1.6358  2.1179 -0.0607
  128MOL   H10830842   5.820   0.168   6.928 -0.5371 -0.3209 -0.1489
  128MOL   H10930843   5.652   0.183   6.866 -0.9815  0.8085 -0.0663
  128MOL   C11030844   5.954   0.404   7.055  0.4206 -2.4980  0.6363
  128MOL   C11130845   6.098   0.433   7.029 -0.2440  0.8905  0.0537
  128MOL   C11230846   6.151   0.360   6.905  0.7585 -0.6684 -0.0635
  128MOL   C11330847   6.267   0.438   6.831 -0.8772  0.0515  0.8559
  128MOL   H11430848   5.950   0.295   7.063  3.0594 -2.7243 -0.8475
  128MOL   H11530849   5.930   0.434   7.157  1.7084  1.3552 -0.1116
  128MOL   H11630850   6.098   0.540   7.012  0.1746  1.2251  1.9783
  128MOL   H11730851   6.074   0.354   6.828  0.0580  0.7582  0.5006
  128MOL   H11830852   6.187   0.259   6.926  1.6189 -0.1968  0.7632
  128MOL   H11930853   6.297   0.375   6.747  1.0093  0.9359  0.8644
  128MOL   H12030854   6.230   0.532   6.792  0.9806  0.5294  0.2243
  128MOL   H12130855   6.358   0.452   6.889  0.2358 -0.0564 -0.8299
  128MOL   C12230856   6.177   0.394   7.151 -0.5288 -0.2189  0.4944
  128MOL   C12330857   6.182   0.517   7.258 -0.0513  0.4059  0.3622
  128MOL   C12430858   6.285   0.628   7.238 -0.2160  0.1117 -0.3776
  128MOL   C12530859   6.262   0.731   7.131 -0.0133  0.3062 -0.0376
  128MOL   H12630860   6.285   0.387   7.135 -0.6786  2.5938 -2.2905
  128MOL   H12730861   6.145   0.304   7.204 -1.2731 -1.3842 -1.8902
  128MOL   H12830862   6.088   0.571   7.255  0.2768  0.9338 -0.5379
  128MOL   H12930863   6.390   0.600   7.230 -0.0990  0.1702  0.9028
  128MOL   H13030864   6.292   0.683   7.331 -0.9421  0.9173 -0.7944
  128MOL   H13130865   6.325   0.817   7.155  1.7035 -0.8296 -0.4232
  128MOL   H13230866   6.306   0.699   7.037 -2.0067 -0.1728 -0.8353
  128MOL   H13330867   6.158   0.763   7.125 -0.5337 -1.5272 -1.1352
  128MOL   C13430868   6.190   0.463   7.402 -0.3549 -0.5641  0.2802
  128MOL   C13530869   6.060   0.408   7.473 -0.0252 -0.6411 -0.0904
  128MOL   C13630870   5.972   0.530   7.503 -0.6716 -0.0764 -0.5995
  128MOL   C13730871   5.829   0.513   7.464 -0.2372 -0.2298  0.6586
  128MOL   H13830872   6.241   0.527   7.474 -1.1032 -0.3701  0.6433
  128MOL   H13930873   6.262   0.382   7.394  0.2236  0.1396 -1.8003
  128MOL   H14030874   6.007   0.352   7.397 -0.1686 -0.8647  0.1762
  128MOL   H14130875   6.007   0.620   7.452 -0.9174  0.5425  0.3191
  128MOL   H14230876   5.985   0.556   7.608 -0.0104  3.3944 -1.4891
  128MOL   H14330877   5.801   0.408   7.477 -1.4060 -0.1074 -0.7482
  128MOL   H14430878   5.758   0.581   7.511 -0.1187 -0.2546  0.8719
  128MOL   H14530879   5.819   0.520   7.355  1.1142  1.1210  0.6129
  128MOL   C14630880   6.096   0.322   7.602 -0.1768  0.1957  0.8095
  128MOL   C14730881   6.161   0.185   7.570 -0.2805 -0.8281  0.4701
  128MOL   C14830882   6.082   0.111   7.460  0.0573 -0.6275  0.6696
  128MOL   C14930883   5.936   0.075   7.489  0.2752 -0.7542 -0.3275
  128MOL   H15030884   6.008   0.308   7.665 -0.0724  1.1192  1.1631
  128MOL   H15130885   6.149   0.387   7.671 -1.5365  1.8576  0.3387
  128MOL   H15230886   6.262   0.208   7.538 -0.6920  2.5027  1.3526
  128MOL   H15330887   6.143   0.020   7.450 -1.3283 -1.6718  1.5646
  128MOL   H15430888   6.092   0.151   7.359 -0.2500  0.5321  1.0951
  128MOL   H15530889   5.900   7.685   7.452  1.0939 -2.3761  2.9023
  128MOL   H15630890   5.909   0.109   7.589 -1.6800 -0.3051 -0.9785
  128MOL   H15730891   5.874   0.146   7.434  4.5944  1.6681 -2.3570
  128MOL   C15830892   6.168   0.092   7.695  0.0456  0.0222 -0.4936
  128MOL   C15930893   6.255   0.155   0.098 -0.3906 -0.3590  0.7291
  128MOL   C16030894   6.410   0.111   0.097  0.7548 -0.1944  0.7025
  128MOL   C16130895   6.499   0.187   0.195 -0.1546 -0.0951  0.0532
  128MOL   H16230896   6.205   7.703   7.659 -2.2946  0.1424 -3.3679
  128MOL   H16330897   6.069   0.072   0.031 -0.0815 -0.6533 -1.1292
  128MOL   H16430898   6.267   0.263   0.089  1.4032 -0.6584 -0.8435
  128MOL   H16530899   6.452   0.123   7.703  2.1656 -0.8324  1.2020
  128MOL   H16630900   6.418   0.010   0.138 -1.1135  0.4569  2.7836
  128MOL   H16730901   6.502   0.290   0.161  2.6684 -0.3742 -0.6589
  128MOL   H16830902   6.475   0.179   0.301  0.1485  0.3916  0.1555
  128MOL   H16930903   6.602   0.152   0.193  0.0827  0.6275 -3.4927
  128MOL   C17030904   6.195   0.128   0.242  0.3007 -0.3907  0.1330
  128MOL   C17130905   6.080   0.224   0.280  0.0462 -0.1332 -0.1920
  128MOL   C17230906   6.123   0.371   0.314  1.0796  0.5691  0.5508
  128MOL   C17330907   6.011   0.468   0.282 -0.1586  0.6735  0.0844
  128MOL   H17430908   6.272   0.145   0.318 -0.8689 -1.4314  1.5978
  128MOL   H17530909   6.167   0.022   0.246 -0.5749 -0.1581  0.0294
  128MOL   H17630910   6.016   0.224   0.192  1.4105 -1.7894 -1.2062
  128MOL   H17730911   6.206   0.397   0.248 -1.6708 -0.0285 -3.3367
  128MOL   H17830912   6.142   0.375   0.421 -3.0455 -2.3386  1.5333
  128MOL   H17930913   5.921   0.458   0.344 -1.1328 -1.3078 -1.5985
  128MOL   H18030914   6.038   0.573   0.297  0.0802  0.5665  0.3843
  128MOL   H18130915   5.981   0.461   0.177 -1.9344  0.6817  0.5678
  128MOL   C18230916   5.995   0.156   0.388  0.3813 -0.2346  0.4758
  128MOL   C18330917   5.904   0.030   0.350 -0.0105  0.1103  0.1926
  128MOL   C18430918   5.764   0.088   0.314 -0.3984 -0.6617  0.5143
  128MOL   C18530919   5.688   7.699   0.224  0.5382 -0.3926 -0.0802
  128MOL   H18630920   5.935   0.236   0.431  1.2476  1.9485 -2.2850
  128MOL   H18730921   6.064   0.132   0.469  0.0933 -0.3649  0.6856
  128MOL   H18830922   5.941   7.704   0.253  0.0101 -0.7192  0.4672
  128MOL   H18930923   5.776   0.190   0.280  3.6751 -1.4460 -0.6484
  128MOL   H19030924   5.703   0.093   0.404 -1.8090  0.3769 -0.4922
  128MOL   H19130925   5.667   7.600   0.264 -0.9413 -0.0590 -0.0106
  128MOL   H19230926   5.595   0.034   0.184  1.1223 -0.6121 -1.7324
  128MOL   H19330927   5.750   7.682   0.135 -0.3154  0.2907 -0.8114
  128MOL   C19430928   5.913   7.625   0.456  0.1587  0.4045 -0.1298
  128MOL   C19530929   6.050   7.544   0.464 -0.0638 -0.2163  0.6257
  128MOL   C19630930   6.058   7.449   0.342 -0.8650 -0.1819  0.1509
  128MOL   C19730931   6.205   7.403   0.303 -0.0739 -0.3986  0.1984
  128MOL   H19830932   5.842   7.542   0.455 -0.3945  0.8548  0.9103
  128MOL   H19930933   5.895   7.682   0.547  1.5495 -2.0158  1.7339
  128MOL   H20030934   6.139   7.607   0.468 -0.7880  1.1725 -2.8803
  128MOL   H20130935   6.011   7.490   0.254  0.1661  0.6481 -0.0192
  128MOL   H20230936   5.996   7.361   0.358 -2.1844  0.7305  0.0583
  128MOL   H20330937   6.244   7.340   0.382  2.8058 -0.8211 -1.4758
  128MOL   H20430938   6.203   7.342   0.212  0.5144 -0.1206 -0.0077
  128MOL   H20530939   6.278   7.482   0.282 -0.9698  0.2499 -0.5680
  128MOL   C20630940   6.050   7.462   0.589  0.2317  0.1577 -0.0095
  128MOL   C20730941   6.057   7.534   0.725 -0.0968  0.4152  0.1801
  128MOL   C20830942   6.186   7.610   0.739  0.1229 -0.4020 -0.2022
  128MOL   C20930943   6.187   0.001   0.860 -0.0055 -0.3390 -0.7635
  128MOL   H21030944   6.129   7.387   0.592  0.0499 -0.1042 -1.4155
  128MOL   H21130945   5.949   7.419   0.589  0.2408  0.1035  1.2048
  128MOL   H21230946   5.976   7.607   0.731 -1.7168 -1.2300 -1.1769
  128MOL   H21330947   6.193   7.682   0.658 -1.5461  1.2445  1.0912
  128MOL   H21430948   6.268   7.538   0.738  1.2266  0.8218  0.3985
  128MOL   H21530949   6.281   0.052   0.880  1.2549 -2.4559 -1.1784
  128MOL   H21630950   6.112   0.079   0.844  0.2941  0.6650  2.3647
  128MOL   H21730951   6.157   7.667   0.957  1.7592 -1.8601 -0.8143
  128MOL   C21830952   6.049   7.445   0.846 -0.5760 -0.1733  0.0265
  128MOL   C21930953   5.944   7.328   0.831  0.3455 -0.3653 -0.9298
  128MOL   C22030954   5.797   7.386   0.818  0.2804  0.1831 -0.5436
  128MOL   C22130955   5.694   7.282   0.781  0.2298  0.6640  0.0589
  128MOL   H22230956   6.018   7.503   0.933  1.1724 -1.3099  1.4519
  128MOL   H22330957   6.152   7.415   0.861 -0.0274  0.5817 -2.0235
  128MOL   H22430958   5.969   7.283   0.736 -0.5453 -0.3960 -1.1545
  128MOL   H22530959   5.806   7.469   0.748  0.9790 -0.2080 -0.9330
  128MOL   H22630960   5.775   7.436   0.912  2.0546 -1.6491  0.9131
  128MOL   H22730961   5.735   7.212   0.708 -0.7342  0.2133 -0.0671
  128MOL   H22830962   5.669   7.224   0.870 -1.6892  0.7155 -0.4142
  128MOL   H22930963   5.602   7.331   0.749  0.6656  0.9657 -0.7291
  128MOL   C23030964   5.951   7.230   0.945 -0.9759  0.3707 -0.5957
  128MOL   C23130965   6.083   7.159   0.971 -0.8287 -0.3889 -0.2451
  128MOL   C23230966   6.082   7.063   1.094 -0.3400 -0.3874  0.5116
  128MOL   C23330967   6.204   7.099   1.181  0.5396  0.1155  0.2003
  128MOL   H23430968   5.873   7.156   0.928 -1.7067  0.9060  0.3692
  128MOL   H23530969   5.933   7.285   1.038  0.9931  2.7747 -1.5741
  128MOL   H23630970   6.117   7.109   0.880 -0.0776 -1.5804  0.6719
  128MOL   H23730971   6.104   6.961   1.062 -0.3773 -0.0907 -0.4792
  128MOL   H23830972   5.986   7.075   1.144 -0.2978  0.5947  0.3843
  128MOL   H23930973   6.293   7.127   1.125  1.4011 -0.2022  1.3678
  128MOL   H24030974   6.172   7.192   1.228  2.5284  1.1759 -0.4526
  128MOL   H24130975   6.236   7.018   1.248 -0.5349  0.3760  1.0377
  128MOL   H24230976   6.152   7.240   0.993 -0.4906 -0.7176 -0.0756
  129MOL     C130977   5.573   2.463   0.517  1.0449 -0.4550  0.0048
  129MOL     C230978   5.714   2.500   0.521 -0.1787 -0.2586  0.4651
  129MOL     C330979   5.756   2.509   0.670 -0.2685 -0.1617 -0.0405
  129MOL     C430980   5.889   2.568   0.710  0.0611  0.0801  0.0667
  129MOL     H530981   5.550   2.373   0.575  0.1331 -0.1005  0.1947
  129MOL     H630982   5.508   2.541   0.556  1.6223  1.1065 -2.0772
  129MOL     H730983   5.780   2.423   0.480 -0.7016  0.6344 -2.1407
  129MOL     H830984   5.749   2.406   0.704 -4.4495 -0.6150 -2.0470
  129MOL     H930985   5.676   2.564   0.720 -1.4492 -0.1017 -1.9377
  129MOL    H1030986   5.969   2.529   0.646  0.2574 -0.3912  0.5901
  129MOL    H1130987   5.894   2.673   0.684  0.9248 -0.3018 -1.4037
  129MOL    H1230988   5.906   2.548   0.816 -2.8777 -0.8301  0.3961
  129MOL    H1330989   5.546   2.432   0.416 -2.3337 -0.4464  0.8474
  129MOL    C1430990   5.747   2.629   0.443 -0.1755 -0.3379 -0.0329
  129MOL    C1530991   5.699   2.648   0.296 -0.0930 -0.3222  0.0090
  129MOL    C1630992   5.765   2.553   0.194  0.0908 -0.1514 -0.4492
  129MOL    C1730993   5.903   2.598   0.160 -0.5477  0.8089 -0.6706
  129MOL    H1830994   5.855   2.639   0.453 -0.1374  0.7558 -1.4058
  129MOL    H1930995   5.713   2.713   0.505 -0.2003 -0.3458 -0.0359
  129MOL    H2030996   5.593   2.624   0.297  0.0775 -1.2530 -1.6230
  129MOL    H2130997   5.710   2.549   0.101  1.3053 -0.2029 -1.1806
  129MOL    H2230998   5.774   2.456   0.242  0.4807 -0.5353 -1.3010
  129MOL    H2330999   5.894   2.673   0.081  1.2935  1.1918 -0.5329
  129MOL    H2431000   5.953   2.649   0.242 -2.9392  1.6433  0.2971
  129MOL    H2531001   5.965   2.514   0.128 -2.2419 -0.7269  0.0356
  129MOL    C2631002   5.711   2.798   0.258  0.2184 -0.0731  0.0011
  129MOL    C2731003   5.598   2.891   0.304 -0.2116  0.5004 -0.3650
  129MOL    C2831004   5.502   2.911   0.186 -0.2948 -0.3426 -0.5177
  129MOL    C2931005   5.559   2.995   0.067  0.4560 -0.1723  0.4555
  129MOL    H3031006   5.721   2.797   0.149  1.1459  0.0449  0.0733
  129MOL    H3131007   5.810   2.826   0.295  0.3933  1.2385 -1.3763
  129MOL    H3231008   5.547   2.834   0.381 -2.5865  1.4695 -1.1735
  129MOL    H3331009   5.403   2.942   0.219 -0.6218  0.8923 -2.5652
  129MOL    H3431010   5.488   2.811   0.146 -1.4595  0.0726 -1.1511
  129MOL    H3531011   5.577   3.099   0.096 -3.6015  0.6319  0.3723
  129MOL    H3631012   5.637   2.952   0.004 -0.6669 -0.4948 -0.7301
  129MOL    H3731013   5.474   3.008   7.706 -0.8084  1.6769  2.3277
  129MOL    C3831014   5.648   3.032   0.366  0.8114 -0.3041 -0.1348
  129MOL    C3931015   5.538   3.124   0.425  1.0018 -0.7833  0.0194
  129MOL    C4031016   5.558   3.265   0.376  0.2118 -0.2728  0.0219
  129MOL    C4131017   5.451   3.373   0.388  0.0740 -0.0229 -0.1174
  129MOL    H4231018   5.704   3.094   0.296 -0.9755  1.4923 -0.0218
  129MOL    H4331019   5.718   3.008   0.446  1.5079 -0.4175 -0.7679
  129MOL    H4431020   5.442   3.085   0.391 -1.5424  1.8498  3.7805
  129MOL    H4531021   5.571   3.244   0.269  2.6689  0.3073  0.1981
  129MOL    H4631022   5.657   3.306   0.389 -0.1760  2.1137 -3.6670
  129MOL    H4731023   5.440   3.419   0.486 -2.1091 -0.2383 -0.2274
  129MOL    H4831024   5.471   3.452   0.315 -1.0496  1.9936  1.6925
  129MOL    H4931025   5.349   3.347   0.359  0.0432  0.5634 -0.5528
  129MOL    C5031026   5.533   3.124   0.581 -0.2460 -0.2627 -0.3553
  129MOL    C5131027   5.501   2.988   0.659  0.1838  0.6625  0.4640
  129MOL    C5231028   5.366   2.925   0.616 -0.1728 -0.5598  0.1192
  129MOL    C5331029   5.245   3.019   0.621 -0.5806 -0.1202 -0.5230
  129MOL    H5431030   5.454   3.193   0.609 -0.5748 -0.2848 -1.2041
  129MOL    H5531031   5.628   3.164   0.616 -0.8636 -0.6386  1.7731
  129MOL    H5631032   5.578   2.913   0.639  1.0772  1.6326  0.1467
  129MOL    H5731033   5.355   2.834   0.675 -0.2260 -0.5668  0.0985
  129MOL    H5831034   5.379   2.890   0.513 -0.2424  0.0833 -0.1124
  129MOL    H5931035   5.218   3.043   0.724  2.1880  2.9146 -0.3838
  129MOL    H6031036   5.251   3.111   0.562  1.8071  1.2917  1.8053
  129MOL    H6131037   5.158   2.969   0.579  1.3680 -2.4739 -1.9128
  129MOL    C6231038   5.504   3.002   0.815  0.2253  0.3496  0.0179
  129MOL    C6331039   5.641   3.042   0.879  0.3941  0.2849  0.2216
  129MOL    C6431040   5.729   2.909   0.902  0.2002 -0.0870  0.3849
  129MOL    C6531041   5.674   2.804   1.002  0.3506  0.3486  0.1245
  129MOL    H6631042   5.469   2.910   0.860 -0.3639  1.0365  0.9968
  129MOL    H6731043   5.431   3.079   0.842  0.7839  0.5554  0.9659
  129MOL    H6831044   5.697   3.103   0.809 -0.3917  0.1337 -0.5476
  129MOL    H6931045   5.836   2.925   0.918  0.3513 -0.6595 -0.0305
  129MOL    H7031046   5.749   2.864   0.804 -0.0509 -1.5690  0.9921
  129MOL    H7131047   5.748   2.724   1.011  0.6488  0.7814  1.5586
  129MOL    H7231048   5.645   2.844   1.099  1.1353 -0.5262  0.7423
  129MOL    H7331049   5.587   2.753   0.960 -1.0406  3.1848 -0.5017
  129MOL    C7431050   5.632   3.126   1.004  0.2291 -0.3699 -0.0745
  129MOL    C7531051   5.768   3.206   1.051 -0.0611  0.2471 -0.2004
  129MOL    C7631052   5.792   3.198   1.200  0.6456  0.6692  0.0029
  129MOL    C7731053   5.825   3.058   1.256  0.3338  0.3291 -1.1544
  129MOL    H7831054   5.578   3.058   1.071 -1.9201 -0.1703 -1.5757
  129MOL    H7931055   5.558   3.204   0.988 -0.7096 -1.2190  0.0951
  129MOL    H8031056   5.861   3.163   1.013 -0.0643 -1.4208  1.5696
  129MOL    H8131057   5.703   3.237   1.249  0.1212  0.4150 -0.7368
  129MOL    H8231058   5.880   3.253   1.231  0.9402 -1.7279  3.7868
  129MOL    H8331059   5.861   3.077   1.357  0.9769  0.1383 -1.3465
  129MOL    H8431060   5.732   3.001   1.268  0.8705 -0.2573  0.3767
  129MOL    H8531061   5.890   2.991   1.199 -0.8856 -0.9750 -1.0456
  129MOL    C8631062   5.760   3.358   1.007  0.4007  0.2102  0.1305
  129MOL    C8731063   5.764   3.394   0.854  0.0803 -0.8612  0.3657
  129MOL    C8831064   5.883   3.327   0.775 -1.2043 -0.9936  0.4987
  129MOL    C8931065   6.023   3.344   0.836 -0.3393  0.3087 -0.1934
  129MOL    H9031066   5.844   3.411   1.051  1.2309 -2.0452  1.3766
  129MOL    H9131067   5.668   3.406   1.041  1.2951  1.6438  0.5308
  129MOL    H9231068   5.669   3.358   0.814  1.5151 -2.0493 -2.0953
  129MOL    H9331069   5.881   3.357   0.670 -0.9911 -1.3621  0.3868
  129MOL    H9431070   5.860   3.220   0.781 -3.4150 -0.4502  2.0921
  129MOL    H9531071   6.021   3.317   0.942 -1.1168 -0.0710 -0.2996
  129MOL    H9631072   6.102   3.289   0.786  0.7758  0.0034  1.8556
  129MOL    H9731073   6.058   3.447   0.826 -1.9671  0.8403 -0.5799
  129MOL    C9831074   5.776   3.550   0.835 -0.0673 -0.0428  0.4319
  129MOL    C9931075   5.685   3.623   0.733 -0.8951 -0.5495 -0.0739
  129MOL   C10031076   5.701   3.578   0.577  1.0631  0.2887 -0.0001
  129MOL   C10131077   5.822   3.629   0.497  0.0336  0.0151 -0.1554
  129MOL   H10231078   5.875   3.585   0.804 -0.5082  0.9134  0.1104
  129MOL   H10331079   5.759   3.606   0.926  0.2688  0.2903  0.2899
  129MOL   H10431080   5.586   3.591   0.766 -1.5983  2.0670  0.4344
  129MOL   H10531081   5.609   3.612   0.528  0.9271  0.6902  0.5380
  129MOL   H10631082   5.689   3.469   0.577 -1.7412  0.5526  1.2140
  129MOL   H10731083   5.813   3.585   0.398 -1.1439 -2.6361  1.0661
  129MOL   H10831084   5.841   3.736   0.495 -0.8625  0.2029  0.8606
  129MOL   H10931085   5.915   3.588   0.537 -1.5746 -0.6965  3.0008
  129MOL   C11031086   5.704   3.777   0.754  0.5916  0.6926 -0.6187
  129MOL   C11131087   5.587   3.870   0.709 -0.2187  0.1121 -0.0886
  129MOL   C11231088   5.639   4.008   0.702  0.4724  0.2145  0.0006
  129MOL   C11331089   5.558   4.092   0.593 -0.5841  0.2552 -1.1890
  129MOL   H11431090   5.795   3.802   0.700  1.6553 -0.5282  0.5644
  129MOL   H11531091   5.730   3.802   0.857  2.4885 -0.8009 -0.7061
  129MOL   H11631092   5.555   3.834   0.612  1.8674 -0.3734 -0.6292
  129MOL   H11731093   5.743   4.008   0.668  0.6136  0.7053  0.4324
  129MOL   H11831094   5.634   4.049   0.803 -1.4965 -2.3381  0.9866
  129MOL   H11931095   5.523   4.036   0.507 -0.2834 -0.5777 -0.7764
  129MOL   H12031096   5.471   4.135   0.642  0.4812  1.1261 -0.0089
  129MOL   H12131097   5.627   4.173   0.568  0.5096 -0.1195  0.4915
  129MOL   C12231098   5.470   3.873   0.813  0.2611 -1.1348  0.2263
  129MOL   C12331099   5.357   3.776   0.781 -0.0802  0.1556 -0.9690
  129MOL   C12431100   5.272   3.821   0.664  0.0953  0.0733 -0.0940
  129MOL   C12531101   5.169   3.712   0.622  0.0535  0.1614  0.0213
  129MOL   H12631102   5.420   3.970   0.818  0.8393 -0.7279 -1.4642
  129MOL   H12731103   5.520   3.884   0.910  0.7901  0.0153 -0.1626
  129MOL   H12831104   5.404   3.681   0.755 -1.1403 -0.9861  1.1620
  129MOL   H12931105   5.343   3.840   0.583 -1.0242  1.2109 -0.8233
  129MOL   H13031106   5.226   3.917   0.687 -1.1159 -0.6402  0.5006
  129MOL   H13131107   5.100   3.697   0.705 -1.4825  1.5477 -0.9805
  129MOL   H13231108   5.104   3.740   0.539  1.6324  1.6022 -0.7549
  129MOL   H13331109   5.226   3.625   0.588  0.1941  0.5961 -0.8758
  129MOL   C13431110   5.281   3.753   0.907  0.1898 -0.3679 -0.1662
  129MOL   C13531111   5.353   3.648   1.001 -0.0582 -0.3333 -0.2894
  129MOL   C13631112   5.288   3.503   0.973  0.7135  0.3413 -0.0205
  129MOL   C13731113   5.315   3.449   0.828  0.2565  0.2515  0.0914
  129MOL   H13831114   5.176   3.727   0.891  0.1973 -0.3959 -0.1709
  129MOL   H13931115   5.280   3.849   0.958 -1.4668  0.1872 -1.1807
  129MOL   H14031116   5.459   3.647   0.974  0.1489  1.4066  0.4148
  129MOL   H14131117   5.180   3.505   0.992  0.7939  4.3898  0.4458
  129MOL   H14231118   5.321   3.425   1.042 -1.4998  0.3365  1.0677
  129MOL   H14331119   5.259   3.511   0.759  1.7310  2.5916  0.9397
  129MOL   H14431120   5.420   3.454   0.800  0.4369  0.7588  0.8626
  129MOL   H14531121   5.292   3.342   0.820 -0.5002  0.4420 -0.2958
  129MOL   C14631122   5.345   3.694   1.154  0.2331  0.2757 -0.1462
  129MOL   C14731123   5.450   3.788   1.223 -1.3280  0.1708 -0.8273
  129MOL   C14831124   5.597   3.745   1.199 -0.1631 -0.0248  0.1763
  129MOL   C14931125   5.635   3.605   1.236 -0.2969 -0.3739 -0.8308
  129MOL   H15031126   5.350   3.606   1.218 -0.5218 -0.6934 -1.4033
  129MOL   H15131127   5.243   3.729   1.171 -0.1561 -0.4975 -0.9008
  129MOL   H15231128   5.443   3.890   1.185 -0.3116 -0.1841 -1.9786
  129MOL   H15331129   5.664   3.810   1.255 -1.8449  1.2989  0.6681
  129MOL   H15431130   5.629   3.759   1.095  1.7384 -1.1008  0.5968
  129MOL   H15531131   5.551   3.540   1.214 -1.1698  0.0920  0.9725
  129MOL   H15631132   5.718   3.565   1.178 -0.3891 -1.9593  0.1113
  129MOL   H15731133   5.664   3.592   1.341 -0.3175  1.5915 -0.5608
  129MOL   C15831134   5.430   3.796   1.373  0.3983  0.3804  0.7008
  129MOL   C15931135   5.291   3.843   1.425  0.0739  0.2227 -0.7525
  129MOL   C16031136   5.216   3.965   1.357  0.8907 -0.4060  0.9246
  129MOL   C16131137   5.301   4.090   1.344  0.4872 -0.0782 -0.1956
  129MOL   H16231138   5.495   3.876   1.409 -0.5132  1.5194 -0.1551
  129MOL   H16331139   5.460   3.700   1.416 -1.3183 -1.0457 -1.1503
  129MOL   H16431140   5.227   3.756   1.415 -0.6189  0.7916 -1.3797
  129MOL   H16531141   5.123   3.980   1.411  0.0480  0.5051 -0.7301
  129MOL   H16631142   5.183   3.937   1.256 -2.1309  2.6045  0.9815
  129MOL   H16731143   5.336   4.126   1.441 -1.4559  0.3950  0.3620
  129MOL   H16831144   5.388   4.078   1.280  1.0113 -0.5119  0.5880
  129MOL   H16931145   5.241   4.161   1.288  0.6230  0.0668 -0.1575
  129MOL   C17031146   5.292   3.869   1.581 -0.4550 -0.1916 -0.3105
  129MOL   C17131147   5.355   3.747   1.662  0.3763 -0.0615  0.2027
  129MOL   C17231148   5.261   3.624   1.654 -0.2068  0.2857 -0.3639
  129MOL   C17331149   5.113   3.643   1.673 -0.4296 -0.0165 -0.2824
  129MOL   H17431150   5.193   3.889   1.621  0.2362  2.1301  0.3573
  129MOL   H17531151   5.360   3.952   1.603 -0.7968  0.7523 -2.6791
  129MOL   H17631152   5.448   3.719   1.613  0.6927 -1.4804  1.5913
  129MOL   H17731153   5.305   3.545   1.714  1.5322  1.2457 -0.3419
  129MOL   H17831154   5.264   3.587   1.552 -1.4993 -0.6541 -0.0657
  129MOL   H17931155   5.068   3.719   1.608  0.4438  0.8497  0.1112
  129MOL   H18031156   5.058   3.552   1.650  0.3169 -0.2667 -1.1426
  129MOL   H18131157   5.086   3.676   1.773  0.3998 -1.5113  0.4453
  129MOL   C18231158   5.387   3.774   1.806  0.1921 -0.1922  0.1684
  129MOL   C18331159   5.525   3.728   1.868 -0.3969 -0.0237  0.9143
  129MOL   C18431160   5.517   3.688   2.015  0.5492  0.6925  0.5647
  129MOL   C18531161   5.458   3.551   2.045 -0.0846  0.4575 -0.8939
  129MOL   H18631162   5.306   3.733   1.867  0.0324 -1.1898 -0.7211
  129MOL   H18731163   5.371   3.880   1.825  2.6744  0.5256 -1.4895
  129MOL   H18831164   5.571   3.647   1.811  3.0779  3.2187 -1.1434
  129MOL   H18931165   5.465   3.761   2.077 -0.9671  1.2125 -1.2541
  129MOL   H19031166   5.616   3.677   2.058  0.0414  0.3210  1.6568
  129MOL   H19131167   5.350   3.564   2.031  0.0726  1.9752 -0.7743
  129MOL   H19231168   5.492   3.474   1.976  0.1020 -1.6442  1.4914
  129MOL   H19331169   5.491   3.512   2.141  0.7883  2.3211 -0.4111
  129MOL   C19431170   5.628   3.840   1.856  0.2006 -0.2312  0.4574
  129MOL   C19531171   5.675   3.886   1.713 -0.4635  0.0341  0.0807
  129MOL   C19631172   5.738   3.771   1.621  0.5575 -0.1904 -0.1515
  129MOL   C19731173   5.875   3.723   1.669  0.6226 -0.0754 -0.4040
  129MOL   H19831174   5.707   3.813   1.926 -0.7793 -0.8415  1.3456
  129MOL   H19931175   5.576   3.925   1.901  0.1194  0.0725 -0.2061
  129MOL   H20031176   5.585   3.931   1.672 -2.1927 -4.0429 -0.9120
  129MOL   H20131177   5.736   3.813   1.520 -0.1250  0.5479  0.1682
  129MOL   H20231178   5.673   3.683   1.612 -0.3403  0.4570 -0.0055
  129MOL   H20331179   5.879   3.718   1.778 -0.4914  3.9515 -0.0689
  129MOL   H20431180   5.915   3.635   1.619  1.3755 -1.0596  1.8534
  129MOL   H20531181   5.938   3.810   1.647  0.6559 -0.7664 -3.0839
  129MOL   C20631182   5.777   4.006   1.727  0.4887  0.0064 -0.4701
  129MOL   C20731183   5.824   4.079   1.600  0.0391  0.0474 -0.0903
  129MOL   C20831184   5.932   4.185   1.644 -0.2951  0.8413  0.4563
  129MOL   C20931185   6.049   4.136   1.726  0.7973  0.2176 -0.4905
  129MOL   H21031186   5.856   3.966   1.791  0.7612  0.9280 -0.2234
  129MOL   H21131187   5.742   4.077   1.802  0.1686 -1.7175  1.0548
  129MOL   H21231188   5.882   4.009   1.541  0.8539  0.2225  0.4890
  129MOL   H21331189   5.892   4.278   1.685 -0.3651  1.2261 -0.4637
  129MOL   H21431190   5.984   4.222   1.555 -0.3980  0.1367  0.1013
  129MOL   H21531191   6.094   4.053   1.671 -0.3400 -0.9809  0.3667
  129MOL   H21631192   6.124   4.213   1.743  1.5627 -0.3488 -1.2233
  129MOL   H21731193   6.020   4.098   1.824 -2.3655  0.7929 -1.1600
  129MOL   C21831194   5.713   4.145   1.508 -0.5660  0.5188  0.1799
  129MOL   C21931195   5.768   4.197   1.374 -0.2638  0.4027 -0.2379
  129MOL   C22031196   5.657   4.293   1.317  0.7370 -0.0247  0.0506
  129MOL   C22131197   5.604   4.411   1.396 -0.1014  0.4979  1.1760
  129MOL   H22231198   5.675   4.220   1.577 -1.9872  2.6643 -2.8475
  129MOL   H22331199   5.639   4.072   1.474  0.4777 -0.7482  0.5550
  129MOL   H22431200   5.859   4.257   1.381  1.2271 -1.9626  1.5882
  129MOL   H22531201   5.572   4.226   1.299  0.4426  0.1078  0.9380
  129MOL   H22631202   5.675   4.332   1.217  0.1608 -0.0132 -0.0491
  129MOL   H22731203   5.571   4.394   1.499  0.2888 -0.3224  1.1688
  129MOL   H22831204   5.685   4.483   1.391  2.2312 -2.1423 -0.5054
  129MOL   H22931205   5.515   4.448   1.345  0.2678  0.1313  0.2565
  129MOL   C23031206   5.791   4.080   1.283  0.0820  0.3351  1.0572
  129MOL   C23131207   5.871   4.120   1.156 -0.0049 -0.5337  0.6576
  129MOL   C23231208   6.023   4.114   1.166 -0.2916 -0.1171  1.2773
  129MOL   C23331209   6.082   4.139   1.023  0.3753 -0.5962 -0.0370
  129MOL   H23431210   5.694   4.048   1.245 -0.6650  1.0104  2.3707
  129MOL   H23531211   5.831   3.990   1.329 -0.5092  0.8719  2.6612
  129MOL   H23631212   5.848   4.041   1.084  1.7212 -1.4442  1.0792
  129MOL   H23731213   6.057   4.021   1.213 -0.5973 -0.3434  1.0502
  129MOL   H23831214   6.057   4.198   1.226  0.9748  0.5158 -0.2942
  129MOL   H23931215   6.029   4.074   0.952 -0.1088 -1.3308  0.9935
  129MOL   H24031216   6.071   4.241   0.987 -0.8862 -0.5923  0.3433
  129MOL   H24131217   6.188   4.115   1.021  0.3775 -0.5644 -2.0505
  129MOL   H24231218   5.835   4.212   1.110  1.4982  0.8797  2.2829
  130MOL     C131219   1.576   6.272   3.110 -0.2330  0.6429  0.1478
  130MOL     C231220   1.492   6.149   3.049 -0.0649  0.1515  0.1616
  130MOL     C331221   1.394   6.208   2.938  0.5179  1.0493  0.2211
  130MOL     C431222   1.277   6.293   2.994 -0.5831  0.4515  0.7480
  130MOL     H531223   1.640   6.324   3.039  0.2557 -0.3903 -0.1898
  130MOL     H631224   1.514   6.351   3.153 -0.0700  0.4037  0.8288
  130MOL     H731225   1.565   6.084   3.001 -0.8299  0.4739 -1.4598
  130MOL     H831226   1.348   6.123   2.887  1.1449  0.1241  1.1799
  130MOL     H931227   1.446   6.268   2.864  1.7124  0.3780  0.5102
  130MOL    H1031228   1.228   6.337   2.907 -0.6865 -1.3325 -0.1073
  130MOL    H1131229   1.198   6.237   3.046 -1.1021 -0.5951 -1.1197
  130MOL    H1231230   1.308   6.377   3.055 -0.0499  0.3128  0.6643
  130MOL    H1331231   1.647   6.243   3.187  0.5172  0.5143 -0.5913
  130MOL    C1431232   1.425   6.066   3.163 -0.1846  0.0402  0.8494
  130MOL    C1531233   1.351   5.939   3.112 -0.5689  0.3311 -0.1696
  130MOL    C1631234   1.231   5.896   3.196  0.5600 -0.2995 -0.5839
  130MOL    C1731235   1.104   5.978   3.161 -0.2370 -0.2849  0.1743
  130MOL    H1831236   1.349   6.127   3.212  1.3063  2.9236 -0.3203
  130MOL    H1931237   1.487   6.038   3.247 -0.6297 -1.4569  0.6905
  130MOL    H2031238   1.303   5.987   3.026 -0.9977  1.2354  0.5688
  130MOL    H2131239   1.251   5.903   3.303  1.2218 -2.9984 -0.4876
  130MOL    H2231240   1.209   5.791   3.176  0.2812 -0.8233  2.2907
  130MOL    H2331241   1.128   6.084   3.169 -1.4516  0.1592 -1.7122
  130MOL    H2431242   1.068   5.955   3.061 -0.1457 -1.0315  0.3097
  130MOL    H2531243   1.023   5.948   3.228 -0.5025 -0.7929 -0.3805
  130MOL    C2631244   1.443   5.816   3.081  0.2933  0.5019 -0.0963
  130MOL    C2731245   1.456   5.779   2.938 -0.5174 -0.2075 -0.7399
  130MOL    C2831246   1.314   5.736   2.892 -0.9635 -0.3459 -0.0070
  130MOL    C2931247   1.293   5.707   2.745 -0.2519  0.0026 -0.3499
  130MOL    H3031248   1.412   5.735   3.147  1.4977 -1.3505 -1.7627
  130MOL    H3131249   1.540   5.845   3.121  0.7824  0.4788 -1.2764
  130MOL    H3231250   1.468   5.864   2.871 -1.2945  0.8264  0.3924
  130MOL    H3331251   1.239   5.808   2.925 -0.6071 -0.2790  0.6497
  130MOL    H3431252   1.281   5.643   2.938  1.8804 -1.4161 -0.0490
  130MOL    H3531253   1.353   5.621   2.715 -0.0567 -0.6676  1.8169
  130MOL    H3631254   1.189   5.684   2.726 -0.7152  2.1441 -0.5572
  130MOL    H3731255   1.313   5.799   2.690 -1.4793  0.3056 -0.2962
  130MOL    C3831256   1.569   5.668   2.918  0.4379  0.0169  0.2984
  130MOL    C3931257   1.718   5.715   2.931  0.3136 -0.1384  0.5391
  130MOL    C4031258   1.778   5.742   2.790  0.1656 -0.3437  0.7233
  130MOL    C4131259   1.708   5.862   2.722  0.0577  0.0867 -0.2794
  130MOL    H4231260   1.548   5.617   2.823 -0.3426 -1.6869  1.3567
  130MOL    H4331261   1.547   5.593   2.994  0.5049  1.2522  1.5494
  130MOL    H4431262   1.726   5.805   2.991  1.5641  0.9466 -1.2027
  130MOL    H4531263   1.769   5.652   2.730  0.9933 -0.8556  1.3577
  130MOL    H4631264   1.881   5.776   2.796 -0.2279  0.7582  1.4512
  130MOL    H4731265   1.602   5.842   2.704  0.3686  0.2441 -2.3734
  130MOL    H4831266   1.720   5.953   2.780  2.3840  0.6332 -1.5850
  130MOL    H4931267   1.751   5.877   2.623  0.5049  0.0898 -0.0829
  130MOL    C5031268   1.808   5.603   2.989 -0.2448 -0.0288 -0.8509
  130MOL    C5131269   1.793   5.561   3.143 -0.2228 -0.0335 -0.8727
  130MOL    C5231270   1.798   5.677   3.245  0.2953 -0.0102 -0.3026
  130MOL    C5331271   1.934   5.750   3.259  0.0784 -0.3804 -0.2338
  130MOL    H5431272   1.915   5.620   2.977  0.4225 -1.3930  2.4369
  130MOL    H5531273   1.789   5.516   2.927 -1.7210 -1.2988  1.3062
  130MOL    H5631274   1.696   5.511   3.152 -0.2273 -0.1171 -1.4102
  130MOL    H5731275   1.759   5.656   3.345 -2.2211  2.9024 -0.6075
  130MOL    H5831276   1.729   5.749   3.201  0.6749  0.1484 -0.6431
  130MOL    H5931277   1.931   5.855   3.291 -0.5192 -0.4711  0.0094
  130MOL    H6031278   2.008   5.701   3.322  0.0939  0.0757  0.1115
  130MOL    H6131279   1.984   5.743   3.162 -3.3103 -0.2550 -2.0593
  130MOL    C6231280   1.899   5.452   3.171  0.6056 -0.7145  1.0111
  130MOL    C6331281   1.908   5.380   3.307 -0.3594  0.0943  0.5557
  130MOL    C6431282   2.046   5.310   3.317  0.4019  0.2763  0.3900
  130MOL    C6531283   2.092   5.215   3.211  0.3938  0.1951 -0.4556
  130MOL    H6631284   1.994   5.506   3.170 -0.3869  1.0625  1.1532
  130MOL    H6731285   1.907   5.375   3.094 -0.2976  0.3600 -0.1774
  130MOL    H6831286   1.886   5.456   3.382  0.0541  1.6131 -0.8401
  130MOL    H6931287   2.043   5.250   3.408  0.5476  0.5252  0.5590
  130MOL    H7031288   2.123   5.380   3.349  2.0833 -1.7249  0.8423
  130MOL    H7131289   2.025   5.129   3.200 -1.7048  1.8163 -0.7264
  130MOL    H7231290   2.103   5.262   3.114 -0.5892  0.6432 -0.3517
  130MOL    H7331291   2.192   5.179   3.233  1.2977  1.0300 -3.0765
  130MOL    C7431292   1.793   5.280   3.316 -0.2896 -0.3607 -0.3238
  130MOL    C7531293   1.775   5.214   3.454 -0.0600 -0.2517 -0.6539
  130MOL    C7631294   1.816   5.067   3.457  0.4220 -0.5405  0.6647
  130MOL    C7731295   1.832   4.997   3.595  0.6059 -0.0737  0.0580
  130MOL    H7831296   1.810   5.199   3.245  0.5190 -0.0417 -0.5057
  130MOL    H7931297   1.702   5.331   3.286  1.1311  0.4808 -3.3439
  130MOL    H8031298   1.834   5.269   3.527  0.5190  1.0297 -2.0459
  130MOL    H8131299   1.917   5.071   3.415  1.0410  1.7111  2.2616
  130MOL    H8231300   1.753   5.012   3.387 -1.6515  0.6958  1.5265
  130MOL    H8331301   1.924   5.033   3.642  0.9490 -1.5678  0.5292
  130MOL    H8431302   1.743   5.000   3.657  0.0529 -0.1585 -0.7247
  130MOL    H8531303   1.847   4.891   3.576 -0.4143 -0.0081 -1.1803
  130MOL    C8631304   1.624   5.233   3.488  0.2936 -0.3862  0.1520
  130MOL    C8731305   1.591   5.333   3.601 -0.0406 -0.3444 -0.1282
  130MOL    C8831306   1.642   5.284   3.739 -0.0908 -0.2976  0.3925
  130MOL    C8931307   1.661   5.396   3.839  0.3022 -0.1806  0.2111
  130MOL    H9031308   1.584   5.138   3.525  1.0343  0.0455  2.1466
  130MOL    H9131309   1.561   5.257   3.403 -0.0617  1.0513  0.8150
  130MOL    H9231310   1.661   5.414   3.579  1.0375 -1.2398 -0.0871
  130MOL    H9331311   1.741   5.240   3.731 -0.5057 -1.1066 -0.4339
  130MOL    H9431312   1.575   5.204   3.771 -0.1927 -0.1021  0.6615
  130MOL    H9531313   1.565   5.443   3.862 -0.4939 -1.1100 -1.1536
  130MOL    H9631314   1.689   5.353   3.935  1.7727 -0.4234 -0.3167
  130MOL    H9731315   1.738   5.460   3.797 -2.6848  2.0326 -2.1263
  130MOL    C9831316   1.437   5.368   3.606  0.3643  0.9604 -0.0506
  130MOL    C9931317   1.394   5.468   3.505 -0.4123  0.5023 -0.4712
  130MOL   C10031318   1.447   5.613   3.551 -0.1019 -0.3481  0.5469
  130MOL   C10131319   1.438   5.722   3.438 -0.9807  0.8457 -0.0751
  130MOL   H10231320   1.411   5.407   3.704 -0.8918  3.5720 -1.3709
  130MOL   H10331321   1.369   5.284   3.609  2.5932 -0.9638 -1.6199
  130MOL   H10431322   1.450   5.435   3.418 -0.1201 -0.1043 -0.0534
  130MOL   H10531323   1.550   5.605   3.588 -0.0405 -0.8718  0.2662
  130MOL   H10631324   1.397   5.649   3.641 -1.0250  0.2499 -0.2024
  130MOL   H10731325   1.334   5.750   3.427 -1.9583 -2.0573  1.2329
  130MOL   H10831326   1.498   5.807   3.471  0.1358 -1.1363  3.2574
  130MOL   H10931327   1.480   5.682   3.346 -0.2655  2.2317 -0.3703
  130MOL   C11031328   1.236   5.468   3.489 -0.1236 -0.7159 -0.1094
  130MOL   C11131329   1.182   5.348   3.399 -0.2540  0.3952  0.1789
  130MOL   C11231330   1.117   5.400   3.268 -0.2298  0.1171  0.1120
  130MOL   C11331331   1.214   5.470   3.166  0.3267  0.0875  0.3364
  130MOL   H11431332   1.199   5.560   3.445  0.7525 -0.0671  0.4727
  130MOL   H11531333   1.188   5.464   3.587 -0.4203  1.2480 -0.1573
  130MOL   H11631334   1.268   5.287   3.371 -0.6052 -0.6539  1.3187
  130MOL   H11731335   1.058   5.488   3.295 -0.6515 -0.2711  0.4670
  130MOL   H11831336   1.060   5.329   3.208  0.0405  0.8897 -1.0844
  130MOL   H11931337   1.294   5.409   3.123 -2.5508 -1.6384 -2.7244
  130MOL   H12031338   1.163   5.519   3.084  1.2866 -2.7414 -2.0490
  130MOL   H12131339   1.261   5.546   3.228  1.2611 -0.7978  0.7446
  130MOL   C12231340   1.097   5.249   3.478  0.2069 -0.1669 -0.2746
  130MOL   C12331341   1.081   5.109   3.417  0.3519 -0.3772  0.0003
  130MOL   C12431342   0.953   5.043   3.470  0.5587 -0.4582  0.0939
  130MOL   C12531343   0.823   5.097   3.405  0.0992  0.3275  0.3404
  130MOL   H12631344   1.010   5.304   3.512 -0.6321 -0.8351 -1.2737
  130MOL   H12731345   1.151   5.231   3.571  0.3234 -0.3853 -0.3839
  130MOL   H12831346   1.077   5.115   3.308  0.0395 -0.0503  0.0294
  130MOL   H12931347   0.944   5.043   3.579 -0.4273  0.1847  0.0143
  130MOL   H13031348   0.947   4.936   3.448 -3.0329 -0.2324 -0.2113
  130MOL   H13131349   0.741   5.035   3.444  1.5024 -1.8254 -0.0455
  130MOL   H13231350   0.807   5.192   3.455  2.0360  1.1943 -0.6666
  130MOL   H13331351   0.813   5.098   3.297 -1.6660  1.2556  0.4920
  130MOL   C13431352   1.207   5.035   3.461 -0.1918 -0.9207 -0.1157
  130MOL   C13531353   1.263   4.936   3.359 -0.4136 -0.5631 -0.1937
  130MOL   C13631354   1.363   4.836   3.422  0.0361  0.5140 -0.0965
  130MOL   C13731355   1.299   4.744   3.525 -0.0600 -0.1709 -0.2765
  130MOL   H13831356   1.180   4.985   3.554  1.0536 -0.1691  0.6682
  130MOL   H13931357   1.292   5.102   3.471  0.3380 -1.4018 -1.3635
  130MOL   H14031358   1.179   4.874   3.328 -1.1047 -0.5436  1.5717
  130MOL   H14131359   1.438   4.892   3.478 -2.2483  2.8893  0.6524
  130MOL   H14231360   1.411   4.773   3.347 -1.8652 -0.5066 -0.5007
  130MOL   H14331361   1.281   4.795   3.619  2.2612 -1.1800  0.7598
  130MOL   H14431362   1.204   4.697   3.500 -0.0984  0.1847 -0.8129
  130MOL   H14531363   1.373   4.674   3.565 -0.3475  0.2689  1.0413
  130MOL   C14631364   1.325   4.995   3.224  0.5619  0.5832 -0.1039
  130MOL   C14731365   1.278   4.935   3.092 -0.5278 -0.0956 -0.4175
  130MOL   C14831366   1.381   4.969   2.969  0.5360  0.8194 -0.8471
  130MOL   C14931367   1.398   5.115   2.916  0.7379  0.1435  0.3576
  130MOL   H15031368   1.434   4.987   3.232  0.3137 -1.5564  1.9006
  130MOL   H15131369   1.303   5.101   3.221  0.0524  0.4704 -0.4224
  130MOL   H15231370   1.281   4.826   3.093  0.4950 -0.0666  0.0170
  130MOL   H15331371   1.354   4.893   2.895  1.1650 -2.3011  1.9687
  130MOL   H15431372   1.480   4.936   3.000 -0.0178 -1.6344 -1.5089
  130MOL   H15531373   1.474   5.132   2.840  2.3721 -0.4715  1.8109
  130MOL   H15631374   1.296   5.146   2.893  0.4035 -1.2682 -0.1441
  130MOL   H15731375   1.428   5.176   3.001  0.8778  1.6527 -0.7620
  130MOL   C15831376   1.132   4.987   3.065  0.1089 -0.2346  0.8776
  130MOL   C15931377   1.053   4.934   2.937 -0.1706  0.0166 -0.3189
  130MOL   C16031378   0.917   5.011   2.912 -0.5283  0.1522 -0.0547
  130MOL   C16131379   0.839   4.995   2.782 -0.1523 -0.0402  0.9756
  130MOL   H16231380   1.143   5.094   3.048 -0.4028  0.0570  2.3253
  130MOL   H16331381   1.061   4.980   3.147 -0.1024 -1.0088  0.6387
  130MOL   H16431382   1.115   4.964   2.853  1.8773 -1.3370  0.6503
  130MOL   H16531383   0.939   5.117   2.919  0.6020 -0.1421  1.0710
  130MOL   H16631384   0.855   4.995   3.000  0.3596 -1.2525  0.3384
  130MOL   H16731385   0.887   5.040   2.696  0.3399 -0.1543  1.1903
  130MOL   H16831386   0.818   4.891   2.757 -3.6789  1.4994 -3.1750
  130MOL   H16931387   0.738   5.037   2.783 -1.7517 -3.4183 -2.3407
  130MOL   C17031388   1.031   4.781   2.946  0.0677 -0.1463 -0.0827
  130MOL   C17131389   1.126   4.693   2.869  0.3748 -0.0690  0.5169
  130MOL   C17231390   1.113   4.718   2.717 -0.1309 -0.5671  0.0962
  130MOL   C17331391   1.019   4.618   2.638  0.5756  0.0437 -0.4669
  130MOL   H17431392   0.927   4.754   2.928  0.2727 -1.4583  0.7226
  130MOL   H17531393   1.034   4.754   3.051 -0.6077  0.2573  0.0431
  130MOL   H17631394   1.224   4.740   2.883  0.5026 -0.3236  0.4917
  130MOL   H17731395   1.209   4.692   2.673  0.1061 -0.6401  0.6563
  130MOL   H17831396   1.092   4.820   2.684  1.3818 -0.6568 -1.2044
  130MOL   H17931397   1.024   4.518   2.682  1.6133  1.6470  3.2502
  130MOL   H18031398   0.911   4.636   2.641 -0.0296 -3.3529  0.2342
  130MOL   H18131399   1.052   4.606   2.535  0.7876 -2.3131 -0.1433
  130MOL   C18231400   1.124   4.548   2.914 -0.1189  0.5013 -0.4437
  130MOL   C18331401   1.198   4.509   3.047  0.0410  0.2641 -0.0080
  130MOL   C18431402   1.342   4.457   3.036 -0.4139 -0.2668  0.2890
  130MOL   C18531403   1.420   4.473   3.167 -0.1511 -0.2084  0.6160
  130MOL   H18631404   1.170   4.491   2.834 -2.4320  0.7746 -2.0328
  130MOL   H18731405   1.020   4.515   2.922 -0.0855  0.0492 -1.7628
  130MOL   H18831406   1.186   4.607   3.094  1.9463  0.3245  0.3861
  130MOL   H18931407   1.384   4.536   2.973  0.1449 -0.2378  0.7009
  130MOL   H19031408   1.349   4.357   2.993  0.4060 -0.7924  1.6161
  130MOL   H19131409   1.419   4.578   3.197  1.3400  0.3532 -1.2156
  130MOL   H19231410   1.387   4.412   3.251 -3.2206 -0.3060 -0.6245
  130MOL   H19331411   1.526   4.454   3.149 -0.2763 -1.2892  0.9844
  130MOL   C19431412   1.117   4.407   3.123 -0.8595  0.3992  0.7544
  130MOL   C19531413   0.992   4.464   3.185  0.1635 -0.6907 -0.4603
  130MOL   C19631414   1.017   4.504   3.331  0.6250 -0.3530  0.0705
  130MOL   C19731415   0.925   4.611   3.386 -0.2761  0.5648  0.0192
  130MOL   H19831416   1.174   4.353   3.198 -3.0042 -2.4506  0.4422
  130MOL   H19931417   1.092   4.328   3.052  2.9253  1.5469 -2.0366
  130MOL   H20031418   0.964   4.554   3.130 -0.6339 -1.3932 -1.2306
  130MOL   H20131419   1.123   4.531   3.342  0.8174  0.9457 -4.2662
  130MOL   H20231420   1.001   4.411   3.386 -1.6389  0.0367  0.0797
  130MOL   H20331421   0.833   4.569   3.425  0.0933  0.4564  0.7876
  130MOL   H20431422   0.972   4.661   3.471 -1.0879  0.9880  0.2187
  130MOL   H20531423   0.903   4.682   3.307 -1.2696 -1.6946 -1.8054
  130MOL   C20631424   0.862   4.375   3.174  0.2916 -0.4121  0.0906
  130MOL   C20731425   0.781   4.391   3.042 -1.1194 -0.5045 -0.2356
  130MOL   C20831426   0.700   4.523   3.047 -0.4723  0.9938 -0.6143
  130MOL   C20931427   0.674   4.577   2.906 -0.7190  0.5579 -0.2162
  130MOL   H21031428   0.794   4.381   3.259 -1.5489 -2.0791 -1.2269
  130MOL   H21131429   0.904   4.275   3.180  1.0412 -0.2187 -1.6553
  130MOL   H21231430   0.859   4.393   2.966  0.2562  0.3911  1.1766
  130MOL   H21331431   0.744   4.602   3.108 -2.2535 -0.2932  2.4091
  130MOL   H21431432   0.604   4.508   3.096  0.4023 -0.6213  0.6386
  130MOL   H21531433   0.645   4.678   2.935 -1.9166  0.2820 -0.4176
  130MOL   H21631434   0.765   4.603   2.852  0.0768 -0.1795  0.7506
  130MOL   H21731435   0.601   4.518   2.850 -0.3223  0.9402 -1.1518
  130MOL   C21831436   0.690   4.263   3.021 -0.1534  0.2696  0.5354
  130MOL   C21931437   0.762   4.152   2.933  0.0265 -0.0944  0.0045
  130MOL   C22031438   0.818   4.202   2.793 -0.6676  0.3614 -0.5956
  130MOL   C22131439   0.973   4.203   2.781 -0.0749  0.0675  0.5899
  130MOL   H22231440   0.601   4.294   2.966 -1.0099  1.2241  2.3801
  130MOL   H22331441   0.643   4.231   3.114 -2.2158 -0.5345 -0.7395
  130MOL   H22431442   0.855   4.136   2.986  0.3854 -0.9050 -0.8549
  130MOL   H22531443   0.788   4.305   2.777  0.1616  0.8666  1.0365
  130MOL   H22631444   0.767   4.166   2.704  1.7764  1.1696 -2.3628
  130MOL   H22731445   1.032   4.254   2.858  1.2265  0.3500 -0.5586
  130MOL   H22831446   1.008   4.100   2.786 -1.3187 -0.4214 -0.6323
  130MOL   H22931447   0.995   4.230   2.678  0.1895 -1.3591  0.2688
  130MOL   C23031448   0.679   4.025   2.921 -0.1538 -0.5953 -0.4482
  130MOL   C23131449   0.769   3.908   2.866  0.2520  0.0032 -0.1138
  130MOL   C23231450   0.702   3.773   2.870 -0.2384 -0.5997 -0.3804
  130MOL   C23331451   0.698   3.711   3.010  0.2410 -0.2590  0.7592
  130MOL   H23431452   0.594   4.039   2.855  0.0635 -1.3830 -0.8998
  130MOL   H23531453   0.634   4.000   3.017  0.4182 -2.7403 -0.7054
  130MOL   H23631454   0.782   3.933   2.761 -2.5938  0.2977 -0.4186
  130MOL   H23731455   0.753   3.698   2.808  0.8408  1.6702 -2.3079
  130MOL   H23831456   0.605   3.784   2.821 -0.4221 -1.8645 -0.3174
  130MOL   H23931457   0.655   3.784   3.079  2.1440  1.5854  0.0285
  130MOL   H24031458   0.640   3.618   3.009  1.4840 -1.0474  0.5876
  130MOL   H24131459   0.798   3.687   3.046  0.4775  0.6831  0.7288
  130MOL   H24231460   0.871   3.904   2.905  1.1062 -1.1016 -2.3990
  131MOL     C131461   5.744   4.741   1.652 -0.3516  0.4785  0.4053
  131MOL     C231462   5.790   4.733   1.794 -0.2586 -0.7406 -0.5125
  131MOL     C331463   5.675   4.791   1.889 -0.3670 -0.1911  0.2583
  131MOL     C431464   5.540   4.720   1.887 -0.2415 -0.2080  0.3041
  131MOL     H531465   5.648   4.692   1.638 -0.0975  0.4743 -1.5337
  131MOL     H631466   5.734   4.846   1.621 -0.8586  0.4255  0.3879
  131MOL     H731467   5.813   4.627   1.806 -1.7739 -1.1420 -1.0016
  131MOL     H831468   5.647   4.893   1.866 -2.9861 -0.6360  1.2311
  131MOL     H931469   5.708   4.799   1.993  1.3455  0.1487 -0.3051
  131MOL    H1031470   5.519   4.668   1.980  2.5146  1.3620  1.8685
  131MOL    H1131471   5.463   4.797   1.895  0.3264  0.5526 -1.2780
  131MOL    H1231472   5.521   4.646   1.808 -1.3822 -1.5960  1.8410
  131MOL    H1331473   5.819   4.693   1.589  0.6838  0.7372  1.4283
  131MOL    C1431474   5.921   4.796   1.816 -0.6816 -0.6626 -0.5574
  131MOL    C1531475   6.049   4.744   1.754 -0.4225  0.5826  0.5402
  131MOL    C1631476   6.075   4.591   1.778 -0.0091 -0.2437  1.0880
  131MOL    C1731477   6.086   4.551   1.923 -0.1307  0.7564 -0.1795
  131MOL    H1831478   5.940   4.783   1.923  0.4483 -3.1711 -1.0357
  131MOL    H1931479   5.920   4.900   1.785  0.4297 -0.6361 -0.5313
  131MOL    H2031480   6.036   4.766   1.648  0.0386 -1.0396  0.1416
  131MOL    H2131481   6.163   4.559   1.722 -1.3022 -1.3509 -0.3460
  131MOL    H2231482   5.995   4.529   1.738  0.3407 -2.2737  3.4504
  131MOL    H2331483   6.080   4.443   1.923  1.0290  0.6900 -0.7385
  131MOL    H2431484   6.185   4.583   1.956 -0.0555  0.0798  0.2485
  131MOL    H2531485   5.997   4.578   1.981  0.2027  2.3439 -0.3634
  131MOL    C2631486   6.173   4.831   1.795  0.0149 -0.3226  0.0768
  131MOL    C2731487   6.187   4.979   1.737  0.2796  0.5019  0.8994
  131MOL    C2831488   6.171   4.984   1.581 -0.1403  0.5026 -0.2017
  131MOL    C2931489   6.196   5.114   1.510 -0.3603  0.6791  0.0134
  131MOL    H3031490   6.258   4.770   1.765 -0.0228 -0.4478  0.2239
  131MOL    H3131491   6.170   4.839   1.903 -2.2189  0.1563 -0.0031
  131MOL    H3231492   6.111   5.044   1.779 -0.1660 -0.1297  1.0852
  131MOL    H3331493   6.072   4.950   1.552  0.7071 -1.4485 -0.9002
  131MOL    H3431494   6.252   4.917   1.551  1.9131  1.4879  2.9245
  131MOL    H3531495   6.144   5.199   1.555 -0.4743  0.5710  0.0896
  131MOL    H3631496   6.301   5.134   1.492 -0.6780  3.3011  0.7727
  131MOL    H3731497   6.152   5.114   1.410  3.4240 -2.2522 -1.7861
  131MOL    C3831498   6.330   5.038   1.764 -0.7144  0.2437 -0.3318
  131MOL    C3931499   6.386   5.051   1.912  0.0287 -0.2803  0.1527
  131MOL    C4031500   6.298   5.122   2.015  0.6362  0.0950 -0.0811
  131MOL    C4131501   6.250   5.266   1.973  0.0370 -0.7120 -0.7309
  131MOL    H4231502   6.323   5.139   1.725  0.1279 -0.1522 -1.5546
  131MOL    H4331503   6.411   4.983   1.715 -0.0498  2.0112 -1.2416
  131MOL    H4431504   6.392   4.951   1.954 -1.3785 -0.2208  0.5207
  131MOL    H4531505   6.348   5.127   2.111 -1.3519  1.9117  0.8947
  131MOL    H4631506   6.203   5.081   2.049  0.0649 -0.6697 -2.5284
  131MOL    H4731507   6.336   5.332   1.964  1.9956 -2.8872  1.2803
  131MOL    H4831508   6.189   5.272   1.883 -0.2628 -0.2045 -0.4963
  131MOL    H4931509   6.198   5.298   2.063 -2.3104 -2.7803 -1.2863
  131MOL    C5031510   6.537   5.103   1.909  0.1993  0.2627  0.6234
  131MOL    C5131511   6.654   5.015   1.853  0.2477  0.4478  0.0891
  131MOL    C5231512   6.662   4.877   1.931 -0.0108  0.2357  0.2447
  131MOL    C5331513   6.703   4.887   2.081 -0.3816 -0.0518 -0.4380
  131MOL    H5431514   6.565   5.137   2.009  0.6902  1.7618 -0.0198
  131MOL    H5531515   6.522   5.189   1.845  0.4190  0.3373  0.6737
  131MOL    H5631516   6.633   4.987   1.750  0.7076 -3.7324  1.0330
  131MOL    H5731517   6.719   4.808   1.869 -1.7034  0.6911 -1.8780
  131MOL    H5831518   6.563   4.832   1.931  0.2090 -0.2751  1.4658
  131MOL    H5931519   6.722   4.788   2.123 -2.0035 -0.2367 -0.0879
  131MOL    H6031520   6.794   4.946   2.091 -0.5352  0.2776 -0.9773
  131MOL    H6131521   6.626   4.940   2.137  1.3198  2.0175  0.0292
  131MOL    C6231522   6.799   5.078   1.852 -1.0020 -0.4952  0.6451
  131MOL    C6331523   6.837   5.173   1.737  0.3593  0.0006  0.3867
  131MOL    C6431524   6.844   5.091   1.599 -0.0105  0.1068 -1.0203
  131MOL    C6531525   6.732   5.138   1.508 -0.0003  0.3936 -0.3589
  131MOL    H6631526   6.873   4.998   1.853  0.9297  1.2581 -0.0660
  131MOL    H6731527   6.807   5.135   1.944  0.1198 -0.1335  0.3287
  131MOL    H6831528   6.761   5.251   1.734 -1.1272 -1.4468 -0.6837
  131MOL    H6931529   6.824   4.985   1.616 -0.1101  0.3267  0.3152
  131MOL    H7031530   6.936   5.089   1.541 -0.2323 -3.6580 -1.3843
  131MOL    H7131531   6.737   5.247   1.501 -1.9662  0.5653  0.5883
  131MOL    H7231532   6.741   5.096   1.408 -2.2115  0.3187 -0.5641
  131MOL    H7331533   6.629   5.122   1.540 -1.1713  2.2834 -2.8954
  131MOL    C7431534   6.970   5.238   1.759 -0.5217  0.1027 -0.3602
  131MOL    C7531535   6.989   5.390   1.721 -0.0735  0.3163  0.4031
  131MOL    C7631536   7.132   5.416   1.675  0.2487  0.6218  0.1438
  131MOL    C7731537   7.178   5.324   1.562  0.0915  0.2939  0.0635
  131MOL    H7831538   7.041   5.175   1.707  0.3115  0.1487  0.7001
  131MOL    H7931539   7.006   5.220   1.861  1.4127  2.6625 -0.5570
  131MOL    H8031540   6.924   5.419   1.639 -0.3537 -0.8794  0.1948
  131MOL    H8131541   7.205   5.410   1.756  2.0184 -0.3974 -1.4924
  131MOL    H8231542   7.128   5.517   1.637  0.1807  0.6349  0.1853
  131MOL    H8331543   7.108   5.302   1.482 -0.5122 -2.1938  1.2241
  131MOL    H8431544   7.266   5.365   1.512  1.4575 -0.9845  1.3228
  131MOL    H8531545   7.218   5.231   1.602 -1.3670 -0.5258 -0.3857
  131MOL    C8631546   6.942   5.473   1.839  0.3928 -0.2997 -0.2915
  131MOL    C8731547   6.793   5.478   1.872 -0.8002  0.3668 -0.1159
  131MOL    C8831548   6.700   5.525   1.768  0.2076 -0.0183  0.4405
  131MOL    C8931549   6.557   5.492   1.799 -0.9745  0.2500 -0.1575
  131MOL    H9031550   6.980   5.573   1.819 -0.4125 -0.0599 -0.6324
  131MOL    H9131551   6.994   5.446   1.932  1.0802  1.0484 -0.2683
  131MOL    H9231552   6.769   5.375   1.896  2.7747 -0.0668  1.9979
  131MOL    H9331553   6.709   5.470   1.675  0.3533  1.2098 -0.2831
  131MOL    H9431554   6.711   5.632   1.747 -1.3603  0.0360 -0.2554
  131MOL    H9531555   6.553   5.387   1.827  0.0480  0.0207 -0.8251
  131MOL    H9631556   6.514   5.551   1.881  0.7644  0.9091  0.3010
  131MOL    H9731557   6.494   5.492   1.710  0.6457 -1.6707 -1.3381
  131MOL    C9831558   6.772   5.560   2.009 -0.8999 -0.3310  0.9979
  131MOL    C9931559   6.810   5.473   2.137  0.4200  0.4822 -0.0665
  131MOL   C10031560   6.689   5.383   2.167  0.3046  0.1904 -0.7751
  131MOL   C10131561   6.715   5.264   2.252  0.1267 -0.9433 -0.0188
  131MOL   H10231562   6.673   5.607   2.015 -2.2521 -2.9966  0.2294
  131MOL   H10331563   6.839   5.644   1.994  1.3156 -2.0933  0.8678
  131MOL   H10431564   6.883   5.402   2.099  2.3268  2.0315  0.5976
  131MOL   H10531565   6.643   5.352   2.073  0.4353 -2.0076 -0.1571
  131MOL   H10631566   6.600   5.436   2.201  0.2180 -0.3822 -0.0815
  131MOL   H10731567   6.674   5.168   2.220 -0.2551  0.3568 -3.7255
  131MOL   H10831568   6.823   5.252   2.253  0.3816  0.9220 -0.9427
  131MOL   H10931569   6.680   5.294   2.350 -0.8685  2.0403 -1.2094
  131MOL   C11031570   6.858   5.554   2.254 -0.2607 -0.1211 -0.3012
  131MOL   C11131571   6.986   5.640   2.254 -0.2649 -0.5242  0.2480
  131MOL   C11231572   7.111   5.563   2.212 -0.2736  0.3036 -0.0041
  131MOL   C11331573   7.172   5.454   2.301  0.1053  1.3746 -0.2355
  131MOL   H11431574   6.882   5.483   2.333 -0.4580  0.2994  0.1358
  131MOL   H11531575   6.778   5.620   2.286 -0.1800  1.3939 -3.0884
  131MOL   H11631576   6.977   5.726   2.187  1.4587  0.1964  0.9190
  131MOL   H11731577   7.177   5.648   2.197 -1.7456  1.3612 -0.5897
  131MOL   H11831578   7.084   5.528   2.112 -0.0393  0.2985 -0.0653
  131MOL   H11931579   7.128   5.359   2.270  1.2451  0.3195  1.3101
  131MOL   H12031580   7.276   5.442   2.269  0.6990  1.2221  1.7127
  131MOL   H12131581   7.179   5.468   2.409  3.5161  0.5360 -0.2813
  131MOL   C12231582   7.007   5.695   2.398 -0.0309  0.4272 -0.1783
  131MOL   C12331583   7.113   5.797   2.429 -0.3337  0.5959  0.5225
  131MOL   C12431584   7.170   5.779   2.575 -0.5241  0.5650 -0.8806
  131MOL   C12531585   7.282   5.671   2.583  0.1979 -0.0796 -0.3987
  131MOL   H12631586   7.031   5.610   2.463  1.3110 -1.2630 -2.8005
  131MOL   H12731587   6.919   5.739   2.445  1.6002  3.2019  0.4211
  131MOL   H12831588   7.192   5.776   2.357 -1.5766 -0.4843 -0.5457
  131MOL   H12931589   7.090   5.745   2.641  1.4179  0.7364  1.6018
  131MOL   H13031590   7.223   5.869   2.607 -1.6673  0.1422  2.3006
  131MOL   H13131591   7.316   5.638   2.485 -0.6758 -1.2485 -0.3182
  131MOL   H13231592   7.367   5.700   2.645 -1.0954  0.1796  1.2611
  131MOL   H13331593   7.237   5.579   2.621  1.1761 -0.0721  0.7953
  131MOL   C13431594   7.064   5.940   2.405  0.2126  0.3747  0.4628
  131MOL   C13531595   7.163   6.056   2.421  0.1148  0.0188 -0.1257
  131MOL   C13631596   7.089   6.196   2.401 -0.2571 -0.4803  0.4758
  131MOL   C13731597   6.999   6.245   2.512 -0.5571  0.4566  0.0724
  131MOL   H13831598   6.975   5.961   2.466  0.4349 -0.8676  1.2483
  131MOL   H13931599   7.028   5.940   2.303 -0.5676 -1.4747  0.7012
  131MOL   H14031600   7.198   6.058   2.525 -2.3639  2.0644  0.7289
  131MOL   H14131601   7.024   6.189   2.314  1.4767  0.2244 -0.9288
  131MOL   H14231602   7.160   6.275   2.375  1.1993 -2.2692 -1.1246
  131MOL   H14331603   7.041   6.217   2.609  1.7720 -0.1756 -1.0729
  131MOL   H14431604   6.992   6.354   2.513  3.4525  0.7980  3.0117
  131MOL   H14531605   6.897   6.208   2.500 -0.8147 -0.0908  3.5353
  131MOL   C14631606   7.275   6.047   2.317 -0.4632  1.3431  0.3737
  131MOL   C14731607   7.414   6.073   2.360  0.3435  0.4535  0.2037
  131MOL   C14831608   7.445   6.220   2.396  0.1425 -0.4904  0.4127
  131MOL   C14931609   7.458   6.310   2.270  0.8935 -0.1405 -0.1647
  131MOL   H15031610   7.263   6.122   2.238  1.5552  0.5672 -0.7208
  131MOL   H15131611   7.269   5.957   2.256 -0.2742  0.9830  0.8882
  131MOL   H15231612   7.408   6.017   2.453 -0.8922 -2.1309 -1.3590
  131MOL   H15331613   7.542   6.236   2.444 -0.2068  0.2197  0.8837
  131MOL   H15431614   7.374   6.256   2.470 -0.3000  1.8432 -1.1016
  131MOL   H15531615   7.480   6.412   2.303 -1.4912  0.5232 -0.5738
  131MOL   H15631616   7.545   6.281   2.209  2.4810  1.7569  1.1377
  131MOL   H15731617   7.366   6.326   2.214  0.6074 -1.3074 -0.0361
  131MOL   C15831618   7.520   6.000   2.272 -0.1452 -0.3673 -0.2039
  131MOL   C15931619   7.646   5.950   2.349  0.2264  0.4808 -0.2096
  131MOL   C16031620   0.050   6.053   2.376 -0.4184 -0.0597 -0.2569
  131MOL   C16131621   0.101   6.137   2.250  0.0714 -0.2428  0.0945
  131MOL   H16231622   7.543   6.063   2.187  0.8853 -2.0753 -1.2202
  131MOL   H16331623   7.478   5.916   2.217  1.3520  0.0493 -2.0128
  131MOL   H16431624   7.618   5.929   2.452 -1.2729  1.0953 -0.4719
  131MOL   H16531625   0.142   6.019   2.423  0.0897  1.2972 -0.2360
  131MOL   H16631626   0.019   6.125   2.452  0.0888  1.1653 -1.1776
  131MOL   H16731627   0.032   6.222   2.250  0.9383  0.4644 -0.4486
  131MOL   H16831628   0.206   6.160   2.267 -0.0570  1.3125 -1.0691
  131MOL   H16931629   0.089   6.092   2.151  0.1479  0.5931 -0.2994
  131MOL   C17031630   7.704   5.816   2.288 -0.3568 -0.3271 -0.2551
  131MOL   C17131631   7.607   5.694   2.314  0.2408  0.0884  0.3808
  131MOL   C17231632   7.602   5.654   2.460  0.3913  0.1445 -0.5003
  131MOL   C17331633   0.035   5.628   2.535  0.5487 -0.4673 -0.3124
  131MOL   H17431634   0.099   5.805   2.328  0.5236  0.3671 -2.2190
  131MOL   H17531635   0.014   5.827   2.181  1.0555 -0.7063 -0.0877
  131MOL   H17631636   7.504   5.714   2.287  0.5570  1.1752 -0.0350
  131MOL   H17731637   7.530   5.574   2.477 -0.7175  0.9146 -1.4872
  131MOL   H17831638   7.545   5.731   2.512  1.7107  1.5277 -1.0517
  131MOL   H17931639   0.103   5.713   2.537 -1.7479  1.3931  2.1875
  131MOL   H18031640   0.003   5.610   2.637  0.6046 -0.1388 -0.2353
  131MOL   H18131641   0.083   5.541   2.490 -0.1622 -0.1196 -1.7936
  131MOL   C18231642   7.649   5.571   2.225  0.0459  0.0529  0.1955
  131MOL   C18331643   7.672   5.591   2.070  0.4465  0.4153 -0.1278
  131MOL   C18431644   7.543   5.639   1.994 -0.4581 -0.3994  0.9952
  131MOL   C18531645   7.422   5.555   2.016  0.0427  0.0536 -0.6569
  131MOL   H18631646   7.579   5.491   2.249  0.5877  0.2809  2.7128
  131MOL   H18731647   0.033   5.530   2.270  0.7911  1.9124  0.4478
  131MOL   H18831648   0.044   5.668   2.062 -0.7313  1.6047 -0.2804
  131MOL   H18931649   7.573   5.635   1.890 -2.7894  0.1505  0.2902
  131MOL   H19031650   7.526   5.743   2.025 -0.3571  0.2213 -1.0029
  131MOL   H19131651   7.431   5.446   2.012 -0.4106  0.0697 -2.8285
  131MOL   H19231652   7.383   5.575   2.116 -1.3890 -0.5242 -1.0870
  131MOL   H19331653   7.341   5.584   1.950 -0.1986 -0.7232 -0.7096
  131MOL   C19431654   0.014   5.455   2.008 -0.2068 -0.3644 -0.4590
  131MOL   C19531655   0.159   5.397   2.022  0.1373  0.4370  0.1800
  131MOL   C19631656   0.272   5.506   2.001 -0.5406  1.0627  0.4160
  131MOL   C19731657   0.405   5.442   2.033  0.5561 -0.3071 -0.0323
  131MOL   H19831658   7.704   5.446   1.901  0.2954 -0.9718 -0.4895
  131MOL   H19931659   7.659   5.375   2.052  1.2222 -1.0076  0.4038
  131MOL   H20031660   0.168   5.375   2.129 -0.2549 -2.0252 -0.2694
  131MOL   H20131661   0.258   5.596   2.061 -1.3754  0.1531  1.6215
  131MOL   H20231662   0.265   5.552   1.902 -0.6604  0.5062  0.1641
  131MOL   H20331663   0.407   5.374   2.119  1.2937  0.2190  0.3683
  131MOL   H20431664   0.438   5.383   1.948  0.2414 -1.5991  0.7135
  131MOL   H20531665   0.475   5.519   2.064  0.4970  0.6087 -2.0820
  131MOL   C20631666   0.190   5.266   1.941 -0.7406  0.3977 -0.2043
  131MOL   C20731667   0.070   5.169   1.925  0.3160  0.3909  0.5386
  131MOL   C20831668   0.059   5.110   2.070 -0.8517 -0.6967  0.8235
  131MOL   C20931669   7.629   5.043   2.100  0.1091 -0.1737 -0.3329
  131MOL   H21031670   0.267   5.213   1.998  0.7583  0.8221 -1.7897
  131MOL   H21131671   0.229   5.291   1.843  0.3130 -0.8291 -0.1124
  131MOL   H21231672   7.689   5.229   1.898  0.2472 -0.7112 -1.7993
  131MOL   H21331673   0.065   5.191   2.143 -1.4619  0.8213 -0.7676
  131MOL   H21431674   0.130   5.033   2.099 -0.2235 -0.1751  0.6814
  131MOL   H21531675   7.555   5.115   2.065  1.2530  0.8782 -0.5964
  131MOL   H21631676   7.630   4.945   2.053  1.3147 -1.3032  1.9571
  131MOL   H21731677   7.631   5.032   2.209  0.5552  1.1270 -0.1954
  131MOL   C21831678   0.086   5.063   1.818 -0.0681  0.4821  0.2629
  131MOL   C21931679   0.091   5.112   1.673  0.9410 -0.6109  0.4937
  131MOL   C22031680   7.697   5.223   1.634  0.2894 -0.3716  0.2373
  131MOL   C22131681   7.546   5.178   1.640 -0.5445  0.0656 -0.6451
  131MOL   H22231682   0.004   4.993   1.835 -0.8043  1.2566 -0.1099
  131MOL   H22331683   0.174   5.002   1.842 -0.6101 -1.1381 -1.6654
  131MOL   H22431684   0.190   5.156   1.658  0.9246 -0.9184 -0.5692
  131MOL   H22531685   0.015   5.257   1.534  1.9319 -0.7410  0.4992
  131MOL   H22631686   7.702   5.320   1.684 -0.0337  0.2628 -0.9491
  131MOL   H22731687   7.519   5.137   1.737 -2.9159  1.0534 -0.8436
  131MOL   H22831688   7.483   5.267   1.629 -1.3316 -0.3026  0.7078
  131MOL   H22931689   7.515   5.105   1.565 -0.2276 -1.1600  0.4053
  131MOL   C23031690   0.076   4.991   1.579  0.0598 -0.2365  0.2493
  131MOL   C23131691   0.200   4.901   1.584 -0.5858 -0.3838 -0.9229
  131MOL   C23231692   0.175   4.777   1.494 -0.4896  0.5329  0.5862
  131MOL   C23331693   0.091   4.664   1.563 -0.3604 -0.0913  0.7197
  131MOL   H23431694   0.057   5.025   1.477  2.7753  1.5691  0.3020
  131MOL   H23531695   7.694   4.932   1.605  0.1687 -0.8079 -0.6860
  131MOL   H23631696   0.292   4.958   1.569 -0.9685  0.7768  0.9931
  131MOL   H23731697   0.267   4.741   1.449 -1.1233  0.7899 -0.9501
  131MOL   H23831698   0.131   4.818   1.403 -1.4656  2.1801  1.7711
  131MOL   H23931699   7.692   4.694   1.567 -0.2702  0.4465 -0.6772
  131MOL   H24031700   0.096   4.578   1.497  1.5549  1.1989 -0.8850
  131MOL   H24131701   0.134   4.637   1.659  0.8146 -0.0746  0.2053
  131MOL   H24231702   0.207   4.857   1.684  2.0974  0.8667 -0.5000
  132MOL     C131703   0.014   3.888   4.911 -0.4365  0.2181 -0.7347
  132MOL     C231704   7.659   4.018   4.971  0.4320 -0.3206  1.1249
  132MOL     C331705   7.596   4.095   4.852  0.3469  0.9472 -0.3732
  132MOL     C431706   7.468   4.031   4.800 -0.5638 -0.4123 -0.1573
  132MOL     H531707   7.643   3.827   4.864  0.3088 -1.1108 -0.2371
  132MOL     H631708   0.097   3.907   4.844 -0.9962  2.3677 -0.8641
  132MOL     H731709   7.580   3.983   5.037 -1.4471 -0.9726 -1.3655
  132MOL     H831710   7.664   4.100   4.767  1.4680  1.6729  0.5389
  132MOL     H931711   7.567   4.197   4.878 -0.7567  1.1694 -2.4042
  132MOL    H1031712   7.397   4.099   4.752 -1.4442 -0.2263  1.3865
  132MOL    H1131713   7.485   3.943   4.738  2.2919 -0.0002  0.0054
  132MOL    H1231714   7.413   3.990   4.884 -0.6820 -1.0339 -0.5326
  132MOL    H1331715   0.054   3.821   4.987 -0.1805 -0.1193 -1.1686
  132MOL    C1431716   0.051   4.095   5.061 -0.3448 -0.1523 -0.1268
  132MOL    C1531717   7.703   4.222   5.139  0.3484  0.5233  0.1213
  132MOL    C1631718   0.095   4.277   5.250 -0.4605 -0.1260  0.0195
  132MOL    C1731719   0.245   4.279   5.210  0.2674  0.4166 -0.3835
  132MOL    H1831720   0.138   4.136   5.008  0.7643 -0.6246  1.2914
  132MOL    H1931721   0.096   4.026   5.132  0.9643 -2.2126 -2.8328
  132MOL    H2031722   7.698   4.295   5.059  2.7594  0.1534 -0.3870
  132MOL    H2131723   0.086   4.198   5.325  0.6622  1.8750  2.3648
  132MOL    H2231724   0.048   4.361   5.301 -0.2895  1.7350 -2.8075
  132MOL    H2331725   0.272   4.181   5.170 -0.8030 -0.7405  1.6423
  132MOL    H2431726   0.270   4.350   5.131  0.5621 -0.3900 -1.0269
  132MOL    H2531727   0.309   4.290   5.297 -2.1045 -0.6762  1.5551
  132MOL    C2631728   7.562   4.226   5.194  0.1933  0.0939 -0.5772
  132MOL    C2731729   7.495   4.367   5.211 -0.0428 -0.1958 -0.3779
  132MOL    C2831730   7.351   4.355   5.235 -0.7015  0.1421 -0.3534
  132MOL    C2931731   7.256   4.300   5.123 -0.4892  0.8869 -0.0433
  132MOL    H3031732   7.555   4.166   5.285 -1.5435  0.7018 -0.2906
  132MOL    H3131733   7.492   4.169   5.133  0.2440 -0.4544 -0.1336
  132MOL    H3231734   7.539   4.406   5.304  0.6334 -0.8189 -0.4320
  132MOL    H3331735   7.313   4.453   5.262 -0.9190 -0.1818  0.5292
  132MOL    H3431736   7.340   4.302   5.330  0.4709 -0.1994 -0.3968
  132MOL    H3531737   7.263   4.363   5.033 -0.6720  0.8028 -0.1135
  132MOL    H3631738   7.286   4.199   5.096 -1.2234  0.9801 -1.2419
  132MOL    H3731739   7.154   4.301   5.159 -0.7572 -1.2209 -0.7143
  132MOL    C3831740   7.507   4.478   5.091  0.4569 -0.5529 -0.6687
  132MOL    C3931741   7.640   4.556   5.096 -0.7270 -0.7488  0.2628
  132MOL    C4031742   7.662   4.646   5.217 -0.4699 -0.3084 -0.7062
  132MOL    C4131743   0.107   4.676   5.258  0.2525 -0.0527  0.4328
  132MOL    H4231744   7.419   4.542   5.084  0.9646  0.1144 -0.9276
  132MOL    H4331745   7.501   4.432   4.992 -2.0131  2.0508 -1.8195
  132MOL    H4431746   0.014   4.484   5.114  0.9974  1.1260  0.2700
  132MOL    H4531747   7.612   4.601   5.302  0.1076  1.4379  0.5988
  132MOL    H4631748   7.623   4.746   5.201 -0.7077 -0.1006  1.0949
  132MOL    H4731749   0.171   4.589   5.266  0.2838  0.1195  2.3768
  132MOL    H4831750   0.152   4.747   5.188 -0.2838 -0.9991 -0.8819
  132MOL    H4931751   0.114   4.727   5.354 -2.5913  1.3193 -0.0245
  132MOL    C5031752   7.657   4.633   4.965  0.9833  0.6897  0.2318
  132MOL    C5131753   0.000   4.551   4.844 -0.1176 -0.3953  0.1301
  132MOL    C5231754   0.158   4.531   4.852 -0.1722  0.3338 -0.2976
  132MOL    C5331755   0.216   4.409   4.777 -0.6009 -0.1541 -0.3640
  132MOL    H5431756   0.011   4.723   4.977  1.5825  0.3424 -0.1107
  132MOL    H5531757   7.562   4.684   4.954  1.0719  0.8336  0.1296
  132MOL    H5631758   7.674   4.448   4.856  2.1646 -1.3722 -1.6673
  132MOL    H5731759   0.188   4.533   4.957  1.0447  1.1250 -0.6469
  132MOL    H5831760   0.223   4.608   4.810 -0.4334  0.3141 -0.7355
  132MOL    H5931761   0.325   4.403   4.784 -0.5715  1.2318  0.4944
  132MOL    H6031762   0.179   4.316   4.821  0.5358  0.3669  1.7655
  132MOL    H6131763   0.193   4.403   4.671 -1.7514 -0.8494 -0.0846
  132MOL    C6231764   7.663   4.607   4.706 -0.1657  0.2062 -0.6271
  132MOL    C6331765   7.518   4.629   4.670  1.0120  0.3622 -0.2819
  132MOL    C6431766   7.433   4.504   4.689 -0.2008  0.4689 -0.5114
  132MOL    C6531767   7.445   4.394   4.583  0.5087  0.3880  0.2484
  132MOL    H6631768   0.007   4.547   4.629  3.5383  0.1082  1.7639
  132MOL    H6731769   0.016   4.698   4.705  1.1297 -0.6191 -2.1289
  132MOL    H6831770   7.486   4.701   4.745 -2.0611 -0.8225 -0.4151
  132MOL    H6931771   7.329   4.537   4.691  0.2004  1.8192 -1.2601
  132MOL    H7031772   7.450   4.465   4.789 -1.9202  1.5070  0.2262
  132MOL    H7131773   7.543   4.394   4.537 -0.7336 -1.8063 -2.6052
  132MOL    H7231774   7.427   4.297   4.630  1.4179  0.3840  0.5949
  132MOL    H7331775   7.360   4.416   4.518  2.2220 -0.2678 -2.2611
  132MOL    C7431776   7.500   4.699   4.529  0.0968 -0.7466  0.2003
  132MOL    C7531777   7.549   4.841   4.520  0.0565 -1.0017  0.9358
  132MOL    C7631778   7.447   4.951   4.570  0.2048 -0.1091 -0.4950
  132MOL    C7731779   7.325   4.974   4.479 -0.0047  0.2519  0.3462
  132MOL    H7831780   7.394   4.708   4.506  0.0860 -0.2440  0.4548
  132MOL    H7931781   7.529   4.631   4.448 -0.3743  0.9098 -1.3801
  132MOL    H8031782   7.638   4.857   4.581  0.8172  1.2465 -0.7181
  132MOL    H8131783   7.503   5.044   4.581  2.1546 -1.2399 -0.5544
  132MOL    H8231784   7.417   4.922   4.671  0.6827  4.1372  0.9760
  132MOL    H8331785   7.266   5.057   4.516 -0.7412  0.4329 -1.1663
  132MOL    H8431786   7.351   4.976   4.373 -0.8463  0.4715  0.1412
  132MOL    H8531787   7.261   4.886   4.492  0.5829 -0.0900  0.9804
  132MOL    C8631788   7.595   4.873   4.371 -0.2050  0.4089  0.3894
  132MOL    C8731789   0.038   4.831   4.335 -0.6143 -0.3833 -0.0068
  132MOL    C8831790   0.129   4.952   4.377 -0.5143 -0.6695  0.0027
  132MOL    C8931791   0.275   4.921   4.369 -0.0487 -0.0758  0.5894
  132MOL    H9031792   7.578   4.980   4.356  0.0795  0.3914 -0.0597
  132MOL    H9131793   7.518   4.820   4.315 -0.2609 -0.3145  1.1455
  132MOL    H9231794   0.056   4.748   4.404  0.0879 -2.1705 -2.2990
  132MOL    H9331795   0.105   4.988   4.477  0.2532 -1.9219  0.6582
  132MOL    H9431796   0.120   5.028   4.299  0.8752  0.0578  0.5450
  132MOL    H9531797   0.301   4.842   4.440 -0.7228 -0.6956  0.1628
  132MOL    H9631798   0.308   4.885   4.271 -0.4459 -0.6551  0.6665
  132MOL    H9731799   0.334   5.009   4.394  1.7783 -1.5540  1.6388
  132MOL    C9831800   0.050   4.787   4.191  0.3808  0.4190 -0.3542
  132MOL    C9931801   0.011   4.641   4.162 -0.1713  0.2979 -0.3203
  132MOL   C10031802   0.124   4.531   4.168  0.4248 -0.2483 -0.1393
  132MOL   C10131803   0.174   4.508   4.309 -0.2183  0.1084 -0.5604
  132MOL   H10231804   0.149   4.804   4.150  0.5331 -2.5230 -1.3378
  132MOL   H10331805   7.689   4.850   4.131  2.2697  1.3112 -1.5537
  132MOL   H10431806   7.637   4.620   4.232 -0.9448 -1.5572 -1.7148
  132MOL   H10531807   0.208   4.554   4.102  1.9079  1.1644  2.1564
  132MOL   H10631808   0.081   4.432   4.155 -2.1610  0.3332  3.1267
  132MOL   H10731809   0.255   4.434   4.309  0.1865  0.5439 -1.4519
  132MOL   H10831810   0.225   4.592   4.355 -1.4275 -0.3519  1.6463
  132MOL   H10931811   0.100   4.465   4.376  0.3020  2.8177  1.8185
  132MOL   C11031812   7.644   4.627   4.024 -0.2558 -0.1322 -0.1567
  132MOL   C11131813   7.566   4.492   3.990 -0.4259 -0.6043  0.5031
  132MOL   C11231814   7.499   4.499   3.856  0.2862  0.7207 -0.8692
  132MOL   C11331815   7.389   4.606   3.833 -0.7312 -0.1202 -0.3531
  132MOL   H11431816   0.001   4.665   3.943  0.7550 -0.7901  0.3110
  132MOL   H11531817   7.569   4.706   4.020  1.1613  1.2737  0.2142
  132MOL   H11631818   7.637   4.409   3.986  0.2589  0.0425 -1.6180
  132MOL   H11731819   7.445   4.405   3.842  0.0775  0.7130 -0.0526
  132MOL   H11831820   7.572   4.513   3.777  0.3606 -0.0951 -0.9492
  132MOL   H11931821   7.421   4.709   3.846  0.8338 -0.5995 -0.2824
  132MOL   H12031822   7.349   4.583   3.735 -1.0847 -3.7410  0.5709
  132MOL   H12131823   7.306   4.581   3.899  1.0600 -0.4039  1.8446
  132MOL   C12231824   7.461   4.449   4.097  0.4213  0.2236 -0.4373
  132MOL   C12331825   7.437   4.291   4.111  0.3564 -0.2160 -0.6331
  132MOL   C12431826   7.299   4.263   4.177  0.1938  0.0774  0.1774
  132MOL   C12531827   7.268   4.114   4.192 -0.4226  0.5635 -0.5720
  132MOL   H12631828   7.365   4.498   4.081  0.5056 -0.0063 -1.6462
  132MOL   H12731829   7.486   4.477   4.199 -0.8983 -0.2160  0.0247
  132MOL   H12831830   7.435   4.251   4.009 -1.3902  1.8687 -1.4441
  132MOL   H12931831   7.224   4.305   4.111 -0.6637 -0.0280  1.0729
  132MOL   H13031832   7.300   4.320   4.270  2.8728  0.5464 -0.0898
  132MOL   H13131833   7.284   4.044   4.110  0.5226  0.3934 -0.2496
  132MOL   H13231834   7.319   4.071   4.278 -0.6920 -0.5925 -0.9830
  132MOL   H13331835   7.165   4.097   4.222 -0.0260 -0.6490  0.1386
  132MOL   C13431836   7.551   4.218   4.187  0.0468  0.0776 -0.7128
  132MOL   C13531837   7.595   4.080   4.135 -0.4958  0.5326  0.6018
  132MOL   C13631838   7.679   4.003   4.235  0.2795  0.0462 -0.1583
  132MOL   C13731839   7.590   3.929   4.338 -0.4297  0.1536  0.2471
  132MOL   H13831840   7.532   4.219   4.294 -0.3177  1.2420 -0.7720
  132MOL   H13931841   7.644   4.274   4.194  0.9352 -1.5347  0.5138
  132MOL   H14031842   7.506   4.024   4.106  0.7435 -0.1055 -2.0449
  132MOL   H14131843   0.028   4.076   4.294 -0.2251  0.5301 -0.2964
  132MOL   H14231844   0.050   3.943   4.185  0.4657 -0.6102  0.8933
  132MOL   H14331845   7.549   3.845   4.282  0.9767  0.6704 -1.5833
  132MOL   H14431846   7.648   3.894   4.423  2.6284  1.8391 -1.0784
  132MOL   H14531847   7.509   3.993   4.375  0.6174  2.1485 -0.8244
  132MOL   C14631848   7.677   4.083   3.998  0.1335  0.1287  0.3034
  132MOL   C14731849   7.685   3.947   3.918  0.3345  0.2236 -0.4870
  132MOL   C14831850   0.086   3.958   3.802  0.6392  0.5359  0.1934
  132MOL   C14931851   0.112   3.831   3.729  0.3017  0.1870 -0.3122
  132MOL   H15031852   0.070   4.127   4.010  0.2031  0.2869 -0.8635
  132MOL   H15131853   7.627   4.152   3.930  2.5249  1.1720 -0.4518
  132MOL   H15231854   0.022   3.870   3.981 -0.7276 -1.0280 -1.2648
  132MOL   H15331855   0.186   3.990   3.832  0.2557  0.6632  1.3731
  132MOL   H15431856   0.058   4.032   3.727  2.0149  1.2047  0.3319
  132MOL   H15531857   0.200   3.838   3.664  1.0546  0.2490  0.6883
  132MOL   H15631858   0.130   3.745   3.793  0.8325  0.3174 -0.2825
  132MOL   H15731859   0.023   3.802   3.674  1.4174 -1.5553 -1.2191
  132MOL   C15831860   7.539   3.916   3.862  0.4091 -0.0036  0.4122
  132MOL   C15931861   7.496   3.766   3.873 -0.6443  0.0928  0.7943
  132MOL   C16031862   7.358   3.750   3.817  0.6945  0.3087  0.9131
  132MOL   C16131863   7.354   3.772   3.662 -0.4995  0.0336  0.7329
  132MOL   H16231864   7.530   3.949   3.758 -1.6360  0.2951  0.6783
  132MOL   H16331865   7.459   3.975   3.907 -0.7379  0.0420 -1.5955
  132MOL   H16431866   7.557   3.692   3.820 -0.5189  1.8320 -1.5556
  132MOL   H16531867   7.288   3.822   3.859 -3.0040 -2.2507 -0.5007
  132MOL   H16631868   7.315   3.650   3.827  2.9008 -0.7794 -0.3052
  132MOL   H16731869   7.370   3.873   3.626 -0.2007  0.0976  1.0383
  132MOL   H16831870   7.439   3.711   3.630 -0.9969 -0.6408  0.6931
  132MOL   H16931871   7.259   3.738   3.621 -1.1559  2.1014  0.5008
  132MOL   C17031872   7.482   3.738   4.031  0.5285 -0.4639  0.5569
  132MOL   C17131873   7.461   3.592   4.072 -0.2531  0.1799 -0.6644
  132MOL   C17231874   7.375   3.578   4.205 -0.8031  0.4346  1.2541
  132MOL   C17331875   7.232   3.621   4.191  0.6551 -0.7720  1.0021
  132MOL   H17431876   7.407   3.807   4.069  1.2835 -0.1919  1.5978
  132MOL   H17531877   7.569   3.781   4.080  1.2048 -0.0367 -0.9888
  132MOL   H17631878   7.407   3.542   3.992  0.0331 -0.4659 -0.4532
  132MOL   H17731879   7.418   3.626   4.292 -0.0688  1.3236  0.4126
  132MOL   H17831880   7.373   3.469   4.216 -2.0389  0.2182 -0.7331
  132MOL   H17931881   7.195   3.614   4.294 -1.9831  0.3440  0.1664
  132MOL   H18031882   7.220   3.726   4.163  3.6889 -1.0246 -1.4619
  132MOL   H18131883   7.185   3.567   4.110  2.2142 -0.7081  0.0301
  132MOL   C18231884   7.595   3.521   4.076 -0.0646 -1.0018  0.5039
  132MOL   C18331885   7.685   3.550   4.204  0.4781 -1.0236  0.3726
  132MOL   C18431886   0.127   3.516   4.171 -0.3378 -0.6066  0.4889
  132MOL   C18531887   0.164   3.389   4.100 -0.2843 -0.5534 -0.6690
  132MOL   H18631888   7.651   3.551   3.988 -2.2302 -1.4544 -1.0680
  132MOL   H18731889   7.586   3.413   4.071  0.6373 -0.9752 -1.9855
  132MOL   H18831890   7.680   3.654   4.235  2.5340 -0.9116  0.3794
  132MOL   H18931891   0.186   3.523   4.263 -1.9851 -1.3317  1.6391
  132MOL   H19031892   0.161   3.593   4.102 -2.4674  0.6388  0.7603
  132MOL   H19131893   0.147   3.298   4.158  0.5602  0.1897  0.7717
  132MOL   H19231894   0.108   3.374   4.008 -1.2726 -0.2021 -0.1375
  132MOL   H19331895   0.270   3.385   4.075  0.1430 -0.9091  1.1136
  132MOL   C19431896   7.647   3.463   4.334 -0.8651 -0.4999 -0.4027
  132MOL   C19531897   7.651   3.532   4.475  1.2107 -0.4684 -0.1199
  132MOL   C19631898   0.082   3.589   4.511  0.0990  0.1381 -0.0263
  132MOL   C19731899   0.083   3.678   4.634 -0.8049 -0.2228 -0.3200
  132MOL   H19831900   0.006   3.375   4.342  0.1537  0.3833  1.1846
  132MOL   H19931901   7.552   3.410   4.325 -1.8427  0.5872  2.8834
  132MOL   H20031902   7.578   3.612   4.463  0.7408 -1.1046 -1.5812
  132MOL   H20131903   0.109   3.660   4.433  1.8886  0.1655  0.5916
  132MOL   H20231904   0.155   3.509   4.525  0.6047 -0.0036 -3.1062
  132MOL   H20331905   0.179   3.728   4.622 -0.1965 -1.1028  0.7676
  132MOL   H20431906   0.010   3.756   4.655  0.9587  1.5258 -0.4995
  132MOL   H20531907   0.100   3.606   4.715 -2.3510 -2.3385 -1.8208
  132MOL   C20631908   7.592   3.442   4.587  0.2312 -0.1294 -0.3097
  132MOL   C20731909   7.439   3.421   4.575  0.1900 -0.2318 -0.0510
  132MOL   C20831910   7.369   3.505   4.681  0.1233 -0.1987 -0.5388
  132MOL   C20931911   7.391   3.663   4.673  0.2318  0.6267  0.2965
  132MOL   H21031912   7.620   3.464   4.690  0.4414 -1.5936 -0.0542
  132MOL   H21131913   7.641   3.345   4.578 -3.4427 -2.1853  0.7324
  132MOL   H21231914   7.401   3.462   4.481  1.7618 -0.4381 -0.7812
  132MOL   H21331915   7.395   3.475   4.783  1.1927  3.4788  0.3400
  132MOL   H21431916   7.262   3.490   4.667 -0.2895  0.4636  1.6783
  132MOL   H21531917   7.495   3.696   4.682  0.7434 -1.0877  0.8725
  132MOL   H21631918   7.349   3.705   4.582 -1.3559 -1.3981  0.0537
  132MOL   H21731919   7.338   3.719   4.750  0.3817 -1.8296  2.2437
  132MOL   C21831920   7.405   3.269   4.574  0.1768 -0.1369  0.2532
  132MOL   C21931921   7.265   3.229   4.530 -0.8102  0.2883 -0.1446
  132MOL   C22031922   7.257   3.068   4.547  0.4485  0.1806  0.4187
  132MOL   C22131923   7.322   2.985   4.434  0.2228 -0.0977  0.1377
  132MOL   H22231924   7.424   3.228   4.673  3.2282  1.4925  0.3943
  132MOL   H22331925   7.469   3.221   4.500 -0.1016  0.1881 -0.2020
  132MOL   H22431926   7.190   3.262   4.602 -2.1520 -0.9139 -0.9802
  132MOL   H22531927   7.153   3.037   4.547  0.4563  0.1184 -0.9345
  132MOL   H22631928   7.295   3.031   4.642  1.6791  2.1025  0.7042
  132MOL   H22731929   7.314   3.034   4.337 -2.5243 -1.5032 -0.4059
  132MOL   H22831930   7.428   2.972   4.459  0.0796  0.1868  0.9138
  132MOL   H22931931   7.274   2.887   4.431  0.1203 -0.0263 -0.7214
  132MOL   C23031932   7.223   3.282   4.393  0.6186 -0.6662 -0.3313
  132MOL   C23131933   7.087   3.220   4.348  0.5400  0.3672 -0.1634
  132MOL   C23231934   7.034   3.263   4.213  0.0652  0.2941  0.1341
  132MOL   C23331935   6.886   3.223   4.197 -0.8355 -0.9101  0.4572
  132MOL   H23431936   7.301   3.269   4.318  1.4978  1.0280  0.2661
  132MOL   H23531937   7.205   3.388   4.410  0.4594 -0.8331  0.5448
  132MOL   H23631938   7.089   3.111   4.351  0.2806  0.3282 -1.2257
  132MOL   H23731939   7.096   3.210   4.141  0.3411 -1.3836  1.5760
  132MOL   H23831940   7.042   3.371   4.194  0.8577  0.3759  0.9385
  132MOL   H23931941   6.815   3.283   4.254  1.2897  2.0166  0.1846
  132MOL   H24031942   6.879   3.256   4.093  2.1318  0.9859  0.7754
  132MOL   H24131943   6.867   3.116   4.199 -1.2087 -0.8362  0.9498
  132MOL   H24231944   7.015   3.253   4.422 -1.3743 -0.9688 -1.4052
  133MOL     C131945   5.061   1.994   6.531 -0.9124  0.1651  0.1290
  133MOL     C231946   5.057   1.868   6.615  0.5240 -0.1379  0.0939
  133MOL     C331947   5.079   1.907   6.765 -0.8450 -0.0514  0.4739
  133MOL     C431948   4.949   1.961   6.828 -0.2371 -1.0657  0.5106
  133MOL     H531949   5.032   1.973   6.428  0.2041 -0.5985 -0.0422
  133MOL     H631950   4.996   2.078   6.556 -0.2465  0.7860 -0.2495
  133MOL     H731951   4.958   1.821   6.611  0.7530 -0.7868  1.5315
  133MOL     H831952   5.153   1.987   6.777 -2.6309  1.3729  2.3717
  133MOL     H931953   5.122   1.818   6.810 -1.5084 -1.4770 -1.6792
  133MOL    H1031954   4.982   2.017   6.915  1.3152 -0.0818 -0.6850
  133MOL    H1131955   4.887   2.019   6.759  0.1925 -0.0989  0.9224
  133MOL    H1231956   4.891   1.875   6.862  0.6785 -1.9779 -0.2001
  133MOL    H1331957   5.159   2.040   6.540 -0.3462 -1.3236  1.8013
  133MOL    C1431958   5.155   1.762   6.563 -0.3345  0.5429 -0.3349
  133MOL    C1531959   5.109   1.610   6.584  1.0580 -0.3906  0.1203
  133MOL    C1631960   5.049   1.568   6.722 -0.2643  0.4846  0.0322
  133MOL    C1731961   4.957   1.446   6.702 -0.1044  0.1031 -0.5520
  133MOL    H1831962   5.249   1.765   6.619 -0.2670 -0.7995 -0.3707
  133MOL    H1931963   5.186   1.777   6.459  1.4045 -1.8119 -0.2012
  133MOL    H2031964   5.035   1.608   6.505  1.2389  0.8883 -0.1046
  133MOL    H2131965   4.972   1.637   6.756  0.0232  0.4963  0.6684
  133MOL    H2231966   5.128   1.553   6.795  0.9786  1.6718 -1.0429
  133MOL    H2331967   4.945   1.414   6.805  2.6925  0.5769 -0.0308
  133MOL    H2431968   4.859   1.470   6.662 -0.4779  1.2315  1.0288
  133MOL    H2531969   5.000   1.363   6.645 -1.1329 -0.5465 -0.3832
  133MOL    C2631970   5.220   1.515   6.540  0.0875  0.5509 -0.4904
  133MOL    C2731971   5.238   1.475   6.389 -0.2027 -0.6784  0.5418
  133MOL    C2831972   5.112   1.391   6.343  0.4439  0.6691 -0.3562
  133MOL    C2931973   5.107   1.387   6.185  0.0463 -0.3191 -0.8301
  133MOL    H3031974   5.206   1.424   6.598 -1.5799  0.8150 -0.4491
  133MOL    H3131975   5.313   1.563   6.573 -1.4591  1.1702  3.1877
  133MOL    H3231976   5.245   1.567   6.330 -0.4481 -0.4408  0.8836
  133MOL    H3331977   5.021   1.444   6.373 -0.7607 -1.0230 -0.9553
  133MOL    H3431978   5.111   1.292   6.388 -3.0256  0.4013 -0.8843
  133MOL    H3531979   5.137   1.485   6.147 -0.0693  0.1431  0.2449
  133MOL    H3631980   5.179   1.323   6.135  0.4469  0.6316 -1.4810
  133MOL    H3731981   5.006   1.361   6.153 -0.1803 -0.0672 -0.3407
  133MOL    C3831982   5.374   1.395   6.370  1.1432  0.6340  0.1579
  133MOL    C3931983   5.500   1.476   6.326 -0.8304 -0.1151  0.0657
  133MOL    C4031984   5.630   1.389   6.315 -0.1642 -0.8061  0.0867
  133MOL    C4131985   5.625   1.253   6.237 -0.2127  0.5756  0.0513
  133MOL    H4231986   5.357   1.309   6.306  1.1360 -0.7098  1.9333
  133MOL    H4331987   5.400   1.350   6.465 -0.0627  0.3907  0.3873
  133MOL    H4431988   5.474   1.518   6.229  0.2795  0.9164  0.2011
  133MOL    H4531989   5.683   1.370   6.408  1.2708 -0.2496 -0.6063
  133MOL    H4631990   5.706   1.443   6.259 -1.4056  1.2704  0.3824
  133MOL    H4731991   5.556   1.176   6.272 -0.6300 -0.3417 -2.6593
  133MOL    H4831992   5.586   1.283   6.140 -0.0359  2.1932  0.4578
  133MOL    H4931993   5.723   1.206   6.229 -1.1495 -0.9482 -3.4420
  133MOL    C5031994   5.529   1.596   6.428 -0.5789  0.2003  0.3843
  133MOL    C5131995   5.636   1.707   6.396  0.5888  0.1400 -0.1872
  133MOL    C5231996   5.637   1.816   6.504 -0.4242 -0.2872  0.3420
  133MOL    C5331997   5.705   1.786   6.642  0.0049  1.0356  0.0953
  133MOL    H5431998   5.542   1.548   6.526  4.2577 -2.9586 -1.6211
  133MOL    H5531999   5.438   1.651   6.452 -0.7544 -0.4071  1.1602
  133MOL    H5632000   5.731   1.656   6.408  0.3132 -0.3096  0.0738
  133MOL    H5732001   5.538   1.859   6.523  0.3289  0.7135  2.1547
  133MOL    H5832002   5.692   1.904   6.473  1.3752 -2.0448 -1.5905
  133MOL    H5932003   5.812   1.774   6.622 -0.0992 -0.1697  0.2224
  133MOL    H6032004   5.695   1.869   6.711  0.8933  1.4188 -0.2199
  133MOL    H6132005   5.657   1.703   6.693  0.1161  1.6358  1.1852
  133MOL    C6232006   5.624   1.759   6.254  0.5157 -0.1420 -0.2153
  133MOL    C6332007   5.748   1.825   6.192 -0.8088  0.2640 -0.4554
  133MOL    C6432008   5.715   1.961   6.122 -0.1455  1.1434  0.3306
  133MOL    C6532009   5.603   1.951   6.019 -0.0454 -0.4863  0.7349
  133MOL    H6632010   5.550   1.837   6.272  0.8639  0.0054  0.6255
  133MOL    H6732011   5.574   1.700   6.179  0.3380  0.9604 -0.9803
  133MOL    H6832012   5.814   1.858   6.271 -1.8962 -0.8202  0.9309
  133MOL    H6932013   5.804   2.012   6.085  2.3925 -1.7380  2.2783
  133MOL    H7032014   5.693   2.041   6.192  1.2401  3.1134 -1.4260
  133MOL    H7132015   5.570   2.044   5.973 -1.1437 -1.0655  0.3249
  133MOL    H7232016   5.639   1.888   5.938 -0.0955  2.0155 -1.2882
  133MOL    H7332017   5.509   1.913   6.057 -1.2530  1.3599 -0.3228
  133MOL    C7432018   5.835   1.726   6.117 -0.5636  0.4655 -0.5732
  133MOL    C7532019   5.968   1.774   6.056 -0.6719 -0.0350  0.3964
  133MOL    C7632020   5.980   1.717   5.918  0.4403  0.0562 -0.1886
  133MOL    C7732021   5.903   1.801   5.817 -0.1875  0.0891  0.4232
  133MOL    H7832022   5.761   1.704   6.040 -0.6330  0.0172 -0.3804
  133MOL    H7932023   5.854   1.631   6.167 -1.1240  0.5270 -0.2332
  133MOL    H8032024   5.983   1.881   6.049  0.5553 -0.2682 -0.7825
  133MOL    H8132025   5.943   1.615   5.909 -0.3072  0.3762 -0.7604
  133MOL    H8232026   6.087   1.710   5.896  0.8715  2.4510  0.9353
  133MOL    H8332027   5.943   1.774   5.720  1.0648  0.0518  0.9352
  133MOL    H8432028   5.794   1.802   5.821 -0.1939  1.1428 -0.0566
  133MOL    H8532029   5.936   1.902   5.842 -0.5855  0.2255  0.3955
  133MOL    C8632030   6.087   1.727   6.153 -0.2465  0.1172 -0.9615
  133MOL    C8732031   6.096   1.778   6.303  0.1122 -0.1353  0.0949
  133MOL    C8832032   6.099   1.930   6.329 -0.1595 -0.2392  0.4045
  133MOL    C8932033   6.232   1.995   6.278 -0.3717 -0.1780  0.0650
  133MOL    H9032034   6.183   1.735   6.101  0.9883  1.1323  1.3763
  133MOL    H9132035   6.078   1.618   6.159 -2.0363  0.4062  2.4448
  133MOL    H9232036   6.002   1.748   6.350  0.1922 -0.6169 -0.0491
  133MOL    H9332037   6.085   1.950   6.435 -1.7676 -0.1243  0.1770
  133MOL    H9432038   6.009   1.977   6.290 -0.4417 -0.4235  0.8321
  133MOL    H9532039   6.251   1.964   6.175 -0.1316 -0.9101  0.3267
  133MOL    H9632040   6.218   2.102   6.294 -0.6133  0.0365 -1.4699
  133MOL    H9732041   6.312   1.959   6.343 -0.4779 -2.6821 -1.1089
  133MOL    C9832042   6.209   1.698   6.388  0.2613  0.4851 -0.1944
  133MOL    C9932043   6.197   1.703   6.542  0.3543  0.0124 -0.8780
  133MOL   C10032044   6.294   1.812   6.596  0.0370  0.3591  0.2493
  133MOL   C10132045   6.262   1.848   6.744  0.1180 -0.4285  0.3729
  133MOL   H10232046   6.313   1.720   6.362 -0.0161  1.3779 -0.5555
  133MOL   H10332047   6.212   1.594   6.354  1.2408  1.6756 -4.0444
  133MOL   H10432048   6.095   1.728   6.571  0.9398  0.2353  1.0777
  133MOL   H10532049   6.287   1.905   6.540 -0.7978  0.6428  0.8099
  133MOL   H10632050   6.398   1.785   6.583 -0.1815  1.1040 -3.4766
  133MOL   H10732051   6.252   1.755   6.801 -0.8190 -0.0604  0.8206
  133MOL   H10832052   6.333   1.919   6.786 -1.4387  1.6477 -0.4128
  133MOL   H10932053   6.164   1.894   6.754  1.3513  2.8915 -1.9748
  133MOL   C11032054   6.220   1.561   6.604 -0.5027 -0.1360  0.2845
  133MOL   C11132055   6.093   1.467   6.597 -0.3967  0.0511  0.3878
  133MOL   C11232056   5.995   1.499   6.722 -0.6981  0.0643 -0.1624
  133MOL   C11332057   5.868   1.407   6.734 -0.2712  0.3479 -0.1575
  133MOL   H11432058   6.258   1.574   6.705  0.4756  0.8635 -0.2008
  133MOL   H11532059   6.303   1.511   6.554  1.7851  1.9666  1.8630
  133MOL   H11632060   6.035   1.493   6.508  3.7355 -0.9186 -2.7129
  133MOL   H11732061   5.960   1.598   6.693  1.1926  0.9746  0.5884
  133MOL   H11832062   6.045   1.503   6.818  0.5128  0.2546 -0.7856
  133MOL   H11932063   5.887   1.304   6.765  0.5970  0.3781 -0.5608
  133MOL   H12032064   5.812   1.439   6.822 -1.2055  3.8851 -1.9141
  133MOL   H12132065   5.815   1.388   6.641  1.2359  0.9922 -1.1660
  133MOL   C12232066   6.130   1.313   6.589  0.1950  0.6205 -0.3975
  133MOL   C12332067   6.202   1.280   6.448  0.3222 -0.1063  0.8793
  133MOL   C12432068   6.094   1.229   6.357  0.6183  0.2363 -0.0945
  133MOL   C12532069   6.037   1.091   6.393 -0.8072 -0.5111  0.5511
  133MOL   H12632070   6.048   1.245   6.609 -0.0585  1.1968  0.5529
  133MOL   H12732071   6.189   1.283   6.676  0.4036 -0.7938 -1.0266
  133MOL   H12832072   6.239   1.370   6.400  0.5764 -1.3272 -1.2534
  133MOL   H12932073   6.134   1.216   6.257 -0.9451 -1.9186 -0.4979
  133MOL   H13032074   6.011   1.296   6.334  0.3813 -0.0778 -0.1723
  133MOL   H13132075   6.113   1.023   6.430  0.2321  1.1577  1.5550
  133MOL   H13232076   5.955   1.079   6.464 -0.9215 -1.4140  0.2715
  133MOL   H13332077   5.998   1.045   6.302  1.7237  1.2895 -1.5267
  133MOL   C13432078   6.318   1.181   6.478  0.8816 -0.0178  0.0963
  133MOL   C13532079   6.446   1.231   6.549 -0.3320 -0.3296  0.5506
  133MOL   C13632080   6.534   1.294   6.449 -0.2203  0.2875 -0.9419
  133MOL   C13732081   6.667   1.362   6.495 -0.1579 -0.6647 -0.4677
  133MOL   H13832082   6.358   1.124   6.395 -0.9036 -0.2738 -0.6004
  133MOL   H13932083   6.265   1.104   6.534 -0.5434  0.8808  0.0164
  133MOL   H14032084   6.416   1.307   6.621 -0.3294  1.3475 -1.1772
  133MOL   H14132085   6.486   1.372   6.391 -1.3143  0.2692 -0.0929
  133MOL   H14232086   6.559   1.223   6.371 -0.1115  0.3223 -0.9386
  133MOL   H14332087   6.715   1.420   6.415 -1.7024  1.8513  0.3771
  133MOL   H14432088   6.649   1.419   6.586 -0.8766 -0.9844 -0.4047
  133MOL   H14532089   6.741   1.284   6.508  0.3193  0.1676  2.0401
  133MOL   C14632090   6.520   1.112   6.626  0.3968 -0.4483  0.0083
  133MOL   C14732091   6.455   1.054   6.756  0.4011 -0.2019 -0.1940
  133MOL   C14832092   6.455   1.152   6.873  0.5201 -0.1144  0.0263
  133MOL   C14932093   6.332   1.134   6.957 -0.2798  0.3162 -0.2443
  133MOL   H15032094   6.617   1.151   6.658  0.4127 -0.7237  0.2907
  133MOL   H15132095   6.530   1.030   6.555  0.9361 -1.2399  0.9931
  133MOL   H15232096   6.351   1.036   6.730 -0.1891  2.6059 -0.0017
  133MOL   H15332097   6.456   1.255   6.837  0.9269 -0.3200 -0.5711
  133MOL   H15432098   6.534   1.134   6.946  0.1117 -0.3464  0.4138
  133MOL   H15532099   6.333   1.033   6.999  1.6034  0.9611  1.3476
  133MOL   H15632100   6.337   1.196   7.047 -1.9751  1.0342 -0.6222
  133MOL   H15732101   6.239   1.141   6.901 -1.6458 -0.7254  1.8079
  133MOL   C15832102   6.521   0.915   6.804 -0.1254  0.5576  0.2085
  133MOL   C15932103   6.526   0.803   6.690 -0.0518  0.5143 -0.0173
  133MOL   C16032104   6.394   0.777   6.619  0.8814  0.0362  0.1702
  133MOL   C16132105   6.386   0.689   6.497  0.4442  0.1215 -0.4887
  133MOL   H16232106   6.467   0.876   6.890  1.6722 -1.8347  0.2972
  133MOL   H16332107   6.625   0.926   6.834  0.3529 -0.3885 -1.0737
  133MOL   H16432108   6.594   0.841   6.613 -1.6820  2.6736 -0.4365
  133MOL   H16532109   6.360   0.871   6.576  0.8840  0.6377  1.4573
  133MOL   H16632110   6.327   0.742   6.698 -1.2804  0.4127 -1.4601
  133MOL   H16732111   6.464   0.696   6.421 -0.3950  1.5747 -1.2337
  133MOL   H16832112   6.370   0.584   6.524  0.8251 -0.0134 -0.7839
  133MOL   H16932113   6.298   0.729   6.447  0.0247  1.9623  1.6359
  133MOL   C17032114   6.581   0.671   6.742 -0.5917  0.1283 -0.4499
  133MOL   C17132115   6.733   0.663   6.785  0.7141 -0.2080 -0.2748
  133MOL   C17232116   6.827   0.705   6.668 -0.1700  1.6529 -0.4851
  133MOL   C17332117   6.969   0.696   6.710 -0.0427  0.0472  0.5023
  133MOL   H17432118   6.567   0.598   6.662 -0.7128  2.4754 -2.6385
  133MOL   H17532119   6.518   0.637   6.824 -0.2415  1.9451  0.6005
  133MOL   H17632120   6.753   0.731   6.867  1.0373 -0.4180 -0.1782
  133MOL   H17732121   6.797   0.808   6.649  0.0006  1.5924 -1.0961
  133MOL   H17832122   6.803   0.655   6.574 -1.3428 -0.2085  0.7689
  133MOL   H17932123   7.031   0.722   6.624  0.7452 -0.3140  0.9483
  133MOL   H18032124   6.987   0.765   6.792  1.7930 -3.1481  2.9474
  133MOL   H18132125   7.000   0.596   6.742 -2.9167 -1.5705 -1.6090
  133MOL   C18232126   6.766   0.516   6.836 -0.3858 -0.2899 -0.2121
  133MOL   C18332127   6.695   0.458   6.957 -0.4003  0.3195  0.0838
  133MOL   C18432128   6.707   0.557   7.074  0.6645  0.1471 -0.1419
  133MOL   C18532129   6.848   0.598   7.124 -0.1779 -0.1474  0.8895
  133MOL   H18632130   6.870   0.505   6.869  0.0576  1.3136 -1.0041
  133MOL   H18732131   6.744   0.445   6.756  0.1438 -0.2128 -0.4284
  133MOL   H18832132   6.589   0.456   6.934 -0.6286  4.0099  0.4904
  133MOL   H18932133   6.650   0.527   7.162  0.6394 -0.5985 -0.4082
  133MOL   H19032134   6.666   0.655   7.049 -2.7052 -0.8686  1.1138
  133MOL   H19132135   6.860   0.662   7.211  1.5011 -1.8266  1.9167
  133MOL   H19232136   6.900   0.506   7.151 -3.0075 -2.5908 -1.6369
  133MOL   H19332137   6.900   0.658   7.050 -1.0731 -0.1999  0.2088
  133MOL   C19432138   6.732   0.315   6.997  0.7790  0.9098 -0.0885
  133MOL   C19532139   6.710   0.193   6.904 -0.2549  0.0576 -0.5054
  133MOL   C19632140   6.560   0.169   6.865 -0.0598 -0.1227 -0.1780
  133MOL   C19732141   6.465   0.151   6.994 -0.3424  0.0254  0.5121
  133MOL   H19832142   6.675   0.288   7.086 -1.6695  1.5128 -1.4357
  133MOL   H19932143   6.834   0.329   7.030  0.1684  2.8829  1.0248
  133MOL   H20032144   6.773   0.209   6.817  3.7714 -1.7781  1.9427
  133MOL   H20132145   6.549   0.085   6.797 -0.4970  0.5200 -0.9083
  133MOL   H20232146   6.538   0.265   6.817  2.2995 -0.6047 -2.3508
  133MOL   H20332147   6.363   0.132   6.961 -0.4604  1.2520  0.1721
  133MOL   H20432148   6.499   0.077   7.067 -3.0117 -2.1819 -0.4015
  133MOL   H20532149   6.462   0.245   7.049  0.5581  0.0021  0.6065
  133MOL   C20632150   6.768   0.067   6.973 -0.1651  0.1462 -0.3841
  133MOL   C20732151   6.915   0.055   7.014 -0.9256 -0.1005  0.3510
  133MOL   C20832152   7.008   0.093   6.894 -0.0498 -0.0874 -0.0612
  133MOL   C20932153   7.148   0.132   6.941 -0.0631  0.4029  0.7033
  133MOL   H21032154   6.755   7.689   6.905  0.0301  0.3296 -0.6477
  133MOL   H21132155   6.698   0.043   7.054 -1.0140 -0.0743 -1.1693
  133MOL   H21232156   6.936   0.126   7.094  0.6976 -0.6753  0.4469
  133MOL   H21332157   6.985   0.186   6.841 -2.8273 -0.9544 -0.4413
  133MOL   H21432158   7.018   0.015   6.819 -0.7241 -0.2830  0.0486
  133MOL   H21532159   7.199   0.160   6.849  0.1267  1.9081  1.2654
  133MOL   H21632160   7.142   0.218   7.007 -0.6895 -0.0398  1.2268
  133MOL   H21732161   7.194   0.048   6.994 -3.0357 -1.7222  0.0325
  133MOL   C21832162   6.955   7.628   7.067 -0.2908 -0.2050 -0.0624
  133MOL   C21932163   6.985   7.616   7.220  0.0828  0.6459 -0.1630
  133MOL   C22032164   7.088   7.507   7.254 -0.0092  0.4413 -0.5786
  133MOL   C22132165   7.036   7.364   7.259 -1.2582  0.1450 -0.6001
  133MOL   H22232166   7.042   7.589   7.014  0.5864  1.6852 -0.0441
  133MOL   H22332167   6.872   7.560   7.049  0.0169 -0.0417 -2.1474
  133MOL   H22432168   7.048   7.701   7.247 -4.1335  3.1765  2.1802
  133MOL   H22532169   7.132   7.523   7.353 -0.3335 -0.9554 -0.1964
  133MOL   H22632170   7.175   7.511   7.189 -0.2993 -0.8640 -1.0501
  133MOL   H22732171   7.000   7.342   7.159 -4.6114  1.8486  0.1902
  133MOL   H22832172   7.118   7.302   7.298 -2.0990  0.5953  2.0195
  133MOL   H22932173   6.959   7.360   7.336 -0.4618  2.6808  0.3888
  133MOL   C23032174   6.855   7.603   7.306  0.1459  0.3243 -0.0880
  133MOL   C23132175   6.877   7.611   7.456 -0.3123  0.2810  0.3045
  133MOL   C23232176   6.753   7.618   7.537  0.0992  0.1843 -0.3180
  133MOL   C23332177   6.787   7.602   7.687 -0.2114  0.0077  0.3642
  133MOL   H23432178   6.803   7.510   7.285  0.3646 -0.0840  1.1101
  133MOL   H23532179   6.785   7.683   7.280 -0.6490 -0.4635 -0.3954
  133MOL   H23632180   6.949   7.534   7.482  0.3588  0.2146 -1.6111
  133MOL   H23732181   6.681   7.544   7.501  0.0901  0.5852 -1.1397
  133MOL   H23832182   6.701   0.007   7.525 -0.9355 -0.5952 -2.2306
  133MOL   H23932183   6.823   7.503   0.012  2.4276  0.4871 -1.0420
  133MOL   H24032184   6.854   7.677   0.023  0.3212 -0.5383  0.4940
  133MOL   H24132185   6.696   7.602   0.042 -1.6179 -2.3806 -1.6451
  133MOL   H24232186   6.915   0.004   7.481 -2.7674  0.8190  2.0965
  134MOL     C132187   0.491   6.731   6.819  0.2932 -0.1191 -0.0229
  134MOL     C232188   0.480   6.637   6.695  0.0566  0.7935  0.2659
  134MOL     C332189   0.621   6.587   6.653  0.5868  0.3441 -0.2602
  134MOL     C432190   0.671   6.480   6.747  0.1252 -0.2300  0.0632
  134MOL     H532191   0.542   6.826   6.800  2.9281 -1.2110  1.2570
  134MOL     H632192   0.398   6.758   6.869  0.2665 -1.6540  0.8114
  134MOL     H732193   0.414   6.557   6.729  1.1694  0.4195  1.5770
  134MOL     H832194   0.685   6.675   6.659  0.5969  0.5086 -2.5496
  134MOL     H932195   0.625   6.569   6.545 -0.2673 -3.4577  0.2471
  134MOL    H1032196   0.586   6.424   6.784 -0.6559 -0.4602 -2.0015
  134MOL    H1132197   0.750   6.418   6.704  0.4083 -0.4077  0.8255
  134MOL    H1232198   0.718   6.532   6.831 -2.3953 -1.6367  2.3907
  134MOL    H1332199   0.551   6.673   6.890 -1.1980 -0.9175  0.6077
  134MOL    C1432200   0.400   6.705   6.585  0.1538 -0.1506 -0.1077
  134MOL    C1532201   0.344   6.619   6.467  0.1115 -0.4103  1.2661
  134MOL    C1632202   0.382   6.676   6.334  0.1244 -0.8855 -0.6269
  134MOL    C1732203   0.304   6.807   6.297  0.4108 -0.0910 -0.2501
  134MOL    H1832204   0.476   6.767   6.537  0.1550  0.8051  1.0819
  134MOL    H1932205   0.329   6.777   6.628  0.5332 -0.8532  1.7380
  134MOL    H2032206   0.393   6.522   6.476  0.1917 -0.4052  0.8910
  134MOL    H2132207   0.376   6.605   6.252  2.4146  0.2185 -1.8178
  134MOL    H2232208   0.490   6.686   6.345  0.0851 -1.9579  0.7950
  134MOL    H2332209   0.300   6.876   6.381 -2.2546  3.4417 -3.1277
  134MOL    H2432210   0.347   6.861   6.213 -0.8471  0.7079 -0.4047
  134MOL    H2532211   0.201   6.779   6.272  1.3252 -3.0004 -0.8987
  134MOL    C2632212   0.199   6.576   6.472  0.4274 -0.0928  0.2968
  134MOL    C2732213   0.156   6.492   6.597  0.0970 -0.1703 -0.0622
  134MOL    C2832214   0.227   6.350   6.605 -0.3751  0.0142  0.4326
  134MOL    C2932215   0.209   6.278   6.741 -0.5482 -0.0329 -0.2120
  134MOL    H3032216   0.171   6.511   6.389 -0.5436  1.0426 -0.2735
  134MOL    H3132217   0.129   6.659   6.472  1.1765  0.5531 -0.3597
  134MOL    H3232218   0.191   6.545   6.686 -3.2853  0.6288  0.8647
  134MOL    H3332219   0.334   6.354   6.585 -0.3136  0.3977  0.8258
  134MOL    H3432220   0.185   6.291   6.524 -0.4933 -0.1523  0.6155
  134MOL    H3532221   0.278   6.194   6.741 -1.6609 -0.9626 -0.8035
  134MOL    H3632222   0.232   6.335   6.831  1.7870  0.4853 -1.1020
  134MOL    H3732223   0.112   6.230   6.752 -0.6368  0.3448  0.7156
  134MOL    C3832224   0.007   6.485   6.607  0.2477 -0.2728  0.3789
  134MOL    C3932225   7.659   6.503   6.756  0.1331  0.5155  0.2311
  134MOL    C4032226   7.520   6.440   6.795  0.5127 -0.2337 -0.3145
  134MOL    C4132227   7.523   6.290   6.802 -0.2856 -0.3009  0.3875
  134MOL    H4232228   7.676   6.390   6.569  0.0988 -0.0310 -0.0891
  134MOL    H4332229   7.661   6.551   6.537  1.6958  0.7290  0.2089
  134MOL    H4432230   0.022   6.457   6.827 -0.3616  3.2150  2.5329
  134MOL    H4532231   7.444   6.474   6.725  0.1745  1.9388  1.0675
  134MOL    H4632232   7.489   6.467   6.896 -1.5878 -1.3317 -0.6318
  134MOL    H4732233   7.564   6.250   6.709 -1.6412  0.6580 -0.6308
  134MOL    H4832234   7.577   6.259   6.892 -0.7465 -0.4128  0.6240
  134MOL    H4932235   7.424   6.251   6.821  0.2613 -0.4341  3.1451
  134MOL    C5032236   7.651   6.653   6.793  0.0355  0.5650  0.2707
  134MOL    C5132237   7.644   6.687   6.947  0.2804  0.0642  0.5835
  134MOL    C5232238   7.529   6.788   6.980  0.0084 -0.2231  0.1739
  134MOL    C5332239   7.391   6.731   6.968 -0.5441 -0.3420  0.4128
  134MOL    H5432240   7.564   6.696   6.743 -0.1971 -1.0466 -0.7427
  134MOL    H5532241   0.036   6.700   6.753  1.3732  0.3203  2.9098
  134MOL    H5632242   7.627   6.598   7.006 -0.9959 -0.4289 -0.5194
  134MOL    H5732243   7.540   6.877   6.919 -0.5876  0.3631  0.9143
  134MOL    H5832244   7.538   6.826   7.082  1.7732  0.0030 -0.0445
  134MOL    H5932245   7.362   6.696   6.869 -2.9662 -2.2847  1.7555
  134MOL    H6032246   7.381   6.650   7.040  0.0733 -1.6252 -0.9159
  134MOL    H6132247   7.309   6.797   6.997 -1.3735 -0.6711 -1.1121
  134MOL    C6232248   0.084   6.719   6.997  0.1653 -0.2836 -0.3591
  134MOL    C6332249   0.097   6.758   7.154  0.6682  0.0986  0.2616
  134MOL    C6432250   0.203   6.868   7.172  0.2617 -0.0813  0.0732
  134MOL    C6532251   0.212   6.926   7.316 -0.2061 -0.1727  0.0438
  134MOL    H6632252   0.118   6.805   6.940  0.4437 -1.8269 -2.5753
  134MOL    H6732253   0.142   6.631   6.969 -1.0914 -2.4309  3.4769
  134MOL    H6832254   0.002   6.791   7.196  0.7883 -0.8778  1.3247
  134MOL    H6932255   0.156   6.941   7.105 -0.0306 -1.8149 -1.6397
  134MOL    H7032256   0.299   6.836   7.132  1.5471  2.8376  0.6479
  134MOL    H7132257   0.267   7.018   7.300 -0.2569  0.0150  0.9194
  134MOL    H7232258   0.119   6.954   7.365  0.5194  1.4235  0.5420
  134MOL    H7332259   0.272   6.852   7.369  2.4597  2.7297  1.1833
  134MOL    C7432260   0.149   6.638   7.241 -0.1354  0.0340 -0.0159
  134MOL    C7532261   0.060   6.512   7.235  0.2557  0.1541  0.0064
  134MOL    C7632262   7.616   6.532   7.285 -0.0035 -1.0657  0.0977
  134MOL    C7732263   7.611   6.586   7.427  0.4368 -0.4066 -1.0647
  134MOL    H7832264   0.153   6.663   7.347  0.8220 -1.2325  0.2539
  134MOL    H7932265   0.252   6.615   7.214  0.2557 -0.0895  1.5646
  134MOL    H8032266   0.040   6.473   7.135 -1.7490  0.3184  0.3171
  134MOL    H8132267   7.567   6.436   7.267  2.8036 -2.5691  0.2884
  134MOL    H8232268   7.571   6.602   7.215  2.4699  0.5796  0.0978
  134MOL    H8332269   7.679   6.529   7.491 -2.8428 -0.6634  2.3272
  134MOL    H8432270   7.642   6.690   7.435 -2.2499  0.2206  1.6805
  134MOL    H8532271   7.517   6.570   7.479  0.9364 -1.9350 -0.6104
  134MOL    C8632272   0.140   6.410   7.316  0.1670 -0.0637 -0.8445
  134MOL    C8732273   0.077   6.268   7.342  0.9160  0.2780 -0.0870
  134MOL    C8832274   0.148   6.198   7.460 -0.0343 -0.0690 -0.8594
  134MOL    C8932275   0.079   6.205   7.601  0.2758  0.3728  0.1643
  134MOL    H9032276   0.161   6.441   7.419  1.0980 -1.7253 -0.5155
  134MOL    H9132277   0.233   6.380   7.268 -0.4898 -2.0328 -0.9300
  134MOL    H9232278   7.678   6.290   7.361  0.6249 -2.6427  2.1137
  134MOL    H9332279   0.254   6.214   7.481  0.0929 -1.5195 -0.2944
  134MOL    H9432280   0.177   6.099   7.424  1.7497  0.2994 -0.4603
  134MOL    H9532281   7.684   6.165   7.591 -0.2449  1.7606 -0.2143
  134MOL    H9632282   0.134   6.145   7.675 -1.5826 -0.3811  0.9695
  134MOL    H9732283   0.067   6.309   7.630 -0.2542  0.2438  0.4160
  134MOL    C9832284   0.089   6.180   7.204  0.4024  0.6557  0.1116
  134MOL    C9932285   0.015   6.044   7.198  0.4113 -0.6645 -0.2390
  134MOL   C10032286   0.074   5.947   7.097  0.0914 -0.0502  0.3092
  134MOL   C10132287   0.081   5.990   6.950 -0.5668 -0.6100  0.2674
  134MOL   H10232288   0.195   6.158   7.188 -0.0026  0.6422 -2.7193
  134MOL   H10332289   0.057   6.243   7.121 -1.3414 -1.6314 -0.9980
  134MOL   H10432290   0.033   5.995   7.294 -0.8288  0.2850  0.4953
  134MOL   H10532291   0.019   5.854   7.089  1.4704 -1.1022  2.7471
  134MOL   H10632292   0.175   5.921   7.128  0.1057 -0.7353 -0.2936
  134MOL   H10732293   7.704   6.056   6.926 -1.9544 -1.8801  1.4267
  134MOL   H10832294   0.169   6.053   6.939  0.5375 -2.0462  0.6794
  134MOL   H10932295   0.093   5.907   6.880 -1.8167 -1.9884  1.6295
  134MOL   C11032296   7.566   6.062   7.173 -0.0938  0.6744 -0.1332
  134MOL   C11132297   7.476   6.021   7.284  0.0176  0.1823 -0.8032
  134MOL   C11232298   7.502   5.874   7.331  0.2368  0.3843 -0.1544
  134MOL   C11332299   7.469   5.865   7.484  0.1097  0.5840  0.3339
  134MOL   H11432300   7.539   6.003   7.086  3.0563 -1.7160  0.4421
  134MOL   H11532301   7.557   6.161   7.129  0.8774  0.6026 -0.4905
  134MOL   H11632302   7.487   6.093   7.365  2.1195 -1.4609  0.4156
  134MOL   H11732303   7.605   5.845   7.312 -0.3241 -2.6009  0.9954
  134MOL   H11832304   7.453   5.804   7.263  1.1495 -2.2433  1.7902
  134MOL   H11932305   7.363   5.880   7.501  0.0064 -0.9657  1.1620
  134MOL   H12032306   7.485   5.767   7.529 -0.7892  1.1125  1.8400
  134MOL   H12132307   7.519   5.939   7.547  1.6205 -0.3607  0.2680
  134MOL   C12232308   7.324   6.034   7.251 -0.5612 -0.1939  0.0594
  134MOL   C12332309   7.279   6.175   7.282  0.0339  0.5943  0.5997
  134MOL   C12432310   7.260   6.186   7.433 -0.3042 -0.3397 -0.8015
  134MOL   C12532311   7.269   6.334   7.487  0.9349 -0.5230 -0.1495
  134MOL   H12632312   7.266   5.970   7.317 -0.4955  1.8088  2.1448
  134MOL   H12732313   7.315   6.000   7.148 -0.5423 -0.5627  0.1782
  134MOL   H12832314   7.351   6.249   7.248 -0.6501  1.8020  1.7460
  134MOL   H12932315   7.327   6.135   7.503 -2.3006  0.7810  2.0300
  134MOL   H13032316   7.160   6.146   7.453  0.3862 -1.3539  0.6952
  134MOL   H13132317   7.244   6.358   7.591 -1.3333 -1.7213 -0.4063
  134MOL   H13232318   7.369   6.373   7.468 -0.6118  2.2970 -2.9900
  134MOL   H13332319   7.199   6.395   7.430  1.8794  0.8496  0.1156
  134MOL   C13432320   7.137   6.197   7.213 -0.5563 -0.3385  0.5089
  134MOL   C13532321   7.135   6.217   7.060 -0.4873 -1.0565  0.1833
  134MOL   C13632322   7.209   6.358   7.019 -0.4062 -0.0642 -0.3439
  134MOL   C13732323   7.134   6.483   7.047 -0.1309 -0.2399 -0.1700
  134MOL   H13832324   7.089   6.282   7.263 -0.5675 -0.6175  0.9682
  134MOL   H13932325   7.064   6.119   7.236 -1.5136  1.3738  3.6024
  134MOL   H14032326   7.196   6.133   7.027 -0.2993 -0.3862 -1.1877
  134MOL   H14132327   7.204   6.350   6.910 -1.1138  2.0859 -0.4803
  134MOL   H14232328   7.314   6.358   7.047 -0.2960 -0.4203 -0.7533
  134MOL   H14332329   7.136   6.489   7.155  1.5273 -0.1314 -0.1913
  134MOL   H14432330   7.175   6.576   7.008  1.2292 -1.2983 -1.3809
  134MOL   H14532331   7.029   6.479   7.017 -0.5608  0.3035  1.2357
  134MOL   C14632332   6.993   6.209   7.008 -0.3496  0.6214  0.4108
  134MOL   C14732333   6.971   6.211   6.860 -0.7419 -0.7069 -0.1770
  134MOL   C14832334   6.821   6.237   6.818 -0.0500  0.4608 -0.2267
  134MOL   C14932335   6.718   6.166   6.918  0.1901 -0.0238 -0.1243
  134MOL   H15032336   6.935   6.285   7.061  0.3904  2.0405 -0.7667
  134MOL   H15132337   6.943   6.121   7.049 -1.3356  0.6409 -0.7324
  134MOL   H15232338   7.038   6.285   6.814 -0.0838 -1.6702 -0.7875
  134MOL   H15332339   6.798   6.197   6.720 -1.1526 -0.4463  0.3828
  134MOL   H15432340   6.782   6.339   6.821 -2.9544 -0.6219  2.3308
  134MOL   H15532341   6.718   6.057   6.910  1.0683  0.0329 -0.9134
  134MOL   H15632342   6.733   6.204   7.019  1.1062 -0.3543 -0.1321
  134MOL   H15732343   6.615   6.197   6.897  0.0820 -0.5636 -0.3960
  134MOL   C15832344   7.034   6.079   6.793  0.2186  0.1513 -0.3770
  134MOL   C15932345   7.057   6.093   6.641 -0.6282 -0.2087 -0.1140
  134MOL   C16032346   7.061   5.953   6.582 -0.9026  0.3611  0.3439
  134MOL   C16132347   6.922   5.894   6.569  0.1691  0.8810 -0.2941
  134MOL   H16232348   6.962   5.999   6.807 -1.5525  1.0814 -3.7050
  134MOL   H16332349   7.128   6.047   6.838 -0.6446  0.5226  1.7562
  134MOL   H16432350   6.985   6.160   6.592  0.6375  0.6272 -0.8723
  134MOL   H16532351   7.120   5.884   6.642  1.5847  2.3460  0.2731
  134MOL   H16632352   7.120   5.966   6.491 -1.1832  0.2642  0.1473
  134MOL   H16732353   6.855   5.907   6.654 -1.0222 -1.7232 -0.7683
  134MOL   H16832354   6.875   5.957   6.494  0.7317  1.6370 -0.0218
  134MOL   H16932355   6.919   5.788   6.545 -0.5791  0.9977 -0.7235
  134MOL   C17032356   7.195   6.158   6.621  0.2695 -0.1511 -0.2912
  134MOL   C17132357   7.224   6.230   6.483 -0.1160 -0.0934 -0.6759
  134MOL   C17232358   7.374   6.271   6.482 -0.1517  0.1267 -0.1665
  134MOL   C17332359   7.431   6.343   6.355  0.4310  0.9429 -0.4974
  134MOL   H17432360   7.272   6.085   6.643  0.3381  0.1037  0.3242
  134MOL   H17532361   7.210   6.238   6.694  1.3452 -1.9201  1.4754
  134MOL   H17632362   7.202   6.164   6.399 -0.2243 -0.7529 -0.1350
  134MOL   H17732363   7.423   6.174   6.480 -2.5044 -1.0664 -2.4167
  134MOL   H17832364   7.403   6.336   6.565  0.8872  0.2670 -0.6316
  134MOL   H17932365   7.538   6.330   6.366  0.2533 -1.3303 -1.0478
  134MOL   H18032366   7.394   6.295   6.264 -1.3003  0.6659  0.3238
  134MOL   H18132367   7.406   6.449   6.353 -0.8617  0.7405  2.0361
  134MOL   C18232368   7.139   6.354   6.454  0.3537  0.9587  0.1714
  134MOL   C18332369   7.015   6.343   6.363 -0.4067 -0.0748 -0.0724
  134MOL   C18432370   7.069   6.369   6.219 -0.2268  0.2391  0.0733
  134MOL   C18532371   6.967   6.385   6.107  0.0763 -0.1463  0.4309
  134MOL   H18632372   7.194   6.444   6.426  2.2512 -0.6496 -1.4053
  134MOL   H18732373   7.102   6.389   6.550 -0.3995 -0.1029  0.2776
  134MOL   H18832374   6.978   6.241   6.367  1.0033 -0.6397 -1.0604
  134MOL   H18932375   7.141   6.290   6.194  0.9912  1.3751 -0.0786
  134MOL   H19032376   7.128   6.461   6.211  0.7039 -0.4584 -1.3261
  134MOL   H19132377   6.888   6.457   6.128 -1.2253 -1.6214  0.6609
  134MOL   H19232378   7.011   6.394   6.007 -0.0129 -2.5818  0.1527
  134MOL   H19332379   6.920   6.288   6.093  0.4670 -0.3991  0.8608
  134MOL   C19432380   6.896   6.434   6.406 -0.3143 -0.1145 -0.6255
  134MOL   C19532381   6.752   6.395   6.359  1.0497  0.5443 -0.0644
  134MOL   C19632382   6.651   6.501   6.395  0.0862 -0.2441 -0.3989
  134MOL   C19732383   6.662   6.622   6.297 -0.2668  0.9223 -0.2463
  134MOL   H19832384   6.925   6.537   6.382 -0.9663 -0.2562 -2.0544
  134MOL   H19932385   6.888   6.432   6.515  0.9667 -3.4356 -0.5436
  134MOL   H20032386   6.745   6.379   6.251  0.7128 -2.7264  0.3945
  134MOL   H20132387   6.667   6.538   6.496  1.0231 -2.3254  0.2254
  134MOL   H20232388   6.548   6.465   6.396 -0.5419  1.4933  0.7345
  134MOL   H20332389   6.587   6.694   6.333 -0.9444 -0.5691  1.4244
  134MOL   H20432390   6.759   6.672   6.301  0.0715  0.1340  2.1958
  134MOL   H20532391   6.642   6.586   6.197  1.4722 -1.0470  0.0784
  134MOL   C20632392   6.716   6.256   6.426  0.5991 -0.6868  0.2832
  134MOL   C20732393   6.615   6.168   6.353  0.0437 -0.0925  0.0866
  134MOL   C20832394   6.492   6.126   6.438  0.6812  0.9642  0.0605
  134MOL   C20932395   6.528   6.053   6.567  0.0340  0.5278 -0.5590
  134MOL   H21032396   6.678   6.273   6.527  0.8407 -0.1039  0.2771
  134MOL   H21132397   6.802   6.194   6.451 -0.9365 -2.1802  1.9489
  134MOL   H21232398   6.569   6.224   6.272 -0.0686  2.0018  1.5659
  134MOL   H21332399   6.418   6.066   6.384  1.4531 -0.8172  0.9489
  134MOL   H21432400   6.432   6.215   6.460 -0.1238  0.7833 -1.3100
  134MOL   H21532401   6.446   5.989   6.599  0.5375  0.1122 -0.0872
  134MOL   H21632402   6.621   5.995   6.571  0.3864  1.2425  2.0118
  134MOL   H21732403   6.543   6.121   6.651 -1.3312  1.2626 -0.9071
  134MOL   C21832404   6.685   6.048   6.283  0.0627 -0.1288 -0.3327
  134MOL   C21932405   6.613   5.974   6.169  0.3016 -0.0583  0.3822
  134MOL   C22032406   6.636   5.819   6.184 -0.2487 -0.6660 -0.0305
  134MOL   C22132407   6.565   5.748   6.305  0.4035  0.2874 -0.5678
  134MOL   H22232408   6.719   5.980   6.361 -0.6167 -0.0726  0.0206
  134MOL   H22332409   6.782   6.085   6.251  0.4165  0.3391  1.2140
  134MOL   H22432410   6.506   5.981   6.187  0.4571  2.7570  0.4316
  134MOL   H22532411   6.738   5.783   6.189 -0.1392 -0.4534 -0.6909
  134MOL   H22632412   6.585   5.773   6.099  0.1044  0.6503 -0.9613
  134MOL   H22732413   6.622   5.773   6.395  0.0103 -0.5721 -0.0723
  134MOL   H22832414   6.464   5.784   6.325  0.9786  1.0857  0.9485
  134MOL   H22932415   6.557   5.640   6.293  0.6914 -0.0746  2.1293
  134MOL   C23032416   6.662   6.024   6.033  0.0216 -0.4484 -0.0921
  134MOL   C23132417   6.613   6.167   5.989 -0.2994 -0.7667 -0.0542
  134MOL   C23232418   6.633   6.198   5.843  0.1150  0.1957 -0.7452
  134MOL   C23332419   6.568   6.325   5.794  0.2654 -0.9765 -0.2510
  134MOL   H23432420   6.631   5.965   5.946 -1.0798  0.6578 -0.4645
  134MOL   H23532421   6.771   6.020   6.035  0.0053 -1.1322 -0.4416
  134MOL   H23632422   6.514   6.191   6.029 -0.8221 -0.0922 -1.7044
  134MOL   H23732423   6.599   6.112   5.786 -2.6227  1.3230 -0.8931
  134MOL   H23832424   6.740   6.195   5.821  0.0031 -1.8685 -1.1250
  134MOL   H23932425   6.562   6.321   5.685 -2.4229 -0.5572 -0.1360
  134MOL   H24032426   6.465   6.319   5.827  0.4494 -2.6455  0.0909
  134MOL   H24132427   6.611   6.418   5.830 -1.7827 -0.6828  1.5260
  134MOL   H24232428   6.661   6.243   6.052  2.3450 -1.3710 -1.3032
  135MOL     C132429   0.610   3.001   0.669  0.3376  0.5172  0.6384
  135MOL     C232430   0.586   3.103   0.779  0.1110 -0.0447  0.7523
  135MOL     C332431   0.553   3.040   0.916 -0.3866 -0.5058 -0.5125
  135MOL     C432432   0.665   2.948   0.968  0.1980  0.0444 -0.2215
  135MOL     H532433   0.642   3.054   0.580 -0.8769  2.5638  1.3830
  135MOL     H632434   0.688   2.929   0.694  0.1092  0.0166 -0.0622
  135MOL     H732435   0.681   3.155   0.795  0.8405 -0.3298 -2.2914
  135MOL     H832436   0.460   2.983   0.920 -0.6453  0.0037  1.6956
  135MOL     H932437   0.544   3.124   0.985  4.4928 -0.9198  0.7888
  135MOL    H1032438   0.628   2.874   1.040  1.7805  1.3172  1.9717
  135MOL    H1132439   0.716   2.893   0.889  0.2467  3.3340 -2.5505
  135MOL    H1232440   0.748   2.994   1.020 -0.1704 -0.1265  0.5272
  135MOL    H1332441   0.517   2.949   0.643  0.6510  0.9816 -1.4334
  135MOL    C1432442   0.476   3.198   0.733  0.4415 -0.4563 -0.0901
  135MOL    C1532443   0.513   3.350   0.730  0.3343  0.1255  0.3833
  135MOL    C1632444   0.377   3.430   0.720  0.0972 -0.2025 -0.1892
  135MOL    C1732445   0.316   3.467   0.856  0.5380 -0.0635 -0.2207
  135MOL    H1832446   0.390   3.184   0.799  0.0788 -0.6818 -0.6072
  135MOL    H1932447   0.435   3.166   0.637  0.7379 -0.7016 -0.1378
  135MOL    H2032448   0.548   3.380   0.829 -0.9850 -0.4461  1.0495
  135MOL    H2132449   0.298   3.377   0.667 -1.8455  0.4461  1.9675
  135MOL    H2232450   0.384   3.518   0.655 -0.4420  0.2263  0.3354
  135MOL    H2332451   0.312   3.385   0.927  0.3123  0.3268  0.2149
  135MOL    H2432452   0.372   3.548   0.902 -0.3315 -0.2665  1.2342
  135MOL    H2532453   0.221   3.518   0.838  2.7764  4.1061 -0.8907
  135MOL    C2632454   0.622   3.382   0.624  0.0562  0.1367  0.0825
  135MOL    C2732455   0.688   3.520   0.652  0.6197  0.7424  0.1897
  135MOL    C2832456   0.659   3.621   0.546  0.6597  0.3642 -0.6526
  135MOL    C2932457   0.717   3.609   0.403  0.0411 -0.1461 -0.5375
  135MOL    H3032458   0.579   3.374   0.524 -1.5661 -2.1540  0.9063
  135MOL    H3132459   0.698   3.305   0.643 -1.6782 -1.8506 -0.7679
  135MOL    H3232460   0.633   3.563   0.736 -1.2095 -1.8857  0.4011
  135MOL    H3332461   0.683   3.717   0.591 -4.6560  2.0265 -1.0928
  135MOL    H3432462   0.551   3.621   0.535  0.3428  1.6275  2.1762
  135MOL    H3532463   0.691   3.693   0.339 -1.7637 -0.4354 -0.1889
  135MOL    H3632464   0.825   3.590   0.397 -0.1696 -0.7375 -2.9333
  135MOL    H3732465   0.675   3.517   0.362 -1.7978 -1.1005  3.2674
  135MOL    C3832466   0.842   3.505   0.685  0.3757 -0.2109 -0.0722
  135MOL    C3932467   0.878   3.444   0.821  0.7233  0.6763  0.6167
  135MOL    C4032468   0.796   3.494   0.943 -0.1445 -0.1627  0.4078
  135MOL    C4132469   0.785   3.395   1.059  0.3088  0.3136  0.2449
  135MOL    H4232470   0.887   3.604   0.677  3.3526 -1.4714  0.2289
  135MOL    H4332471   0.897   3.456   0.605 -2.2927 -1.5929 -1.1210
  135MOL    H4432472   0.835   3.344   0.817 -0.2857  1.1678 -1.6316
  135MOL    H4532473   0.691   3.512   0.920  0.1277 -1.5133 -1.9767
  135MOL    H4632474   0.840   3.587   0.978  0.8982 -0.7931  0.7888
  135MOL    H4732475   0.768   3.445   1.154  1.2090 -1.0326  1.1222
  135MOL    H4832476   0.713   3.313   1.049  2.2881 -1.3184 -0.9239
  135MOL    H4932477   0.878   3.350   1.092 -0.6226 -1.2821  0.7773
  135MOL    C5032478   1.023   3.424   0.850  1.0130 -0.3152 -0.3965
  135MOL    C5132479   1.100   3.346   0.747  0.1279 -0.8899  0.1936
  135MOL    C5232480   1.033   3.210   0.722 -0.1458 -0.4982 -0.4562
  135MOL    C5332481   1.013   3.115   0.843 -1.0333  0.4575  0.2892
  135MOL    H5432482   1.040   3.376   0.946  1.3748 -2.0181 -1.2946
  135MOL    H5532483   1.070   3.522   0.856 -1.4518  1.0675 -2.4611
  135MOL    H5632484   1.105   3.404   0.655  2.0645 -1.6469 -0.2239
  135MOL    H5732485   1.092   3.155   0.648 -0.5851 -1.5721 -0.0196
  135MOL    H5832486   0.934   3.214   0.677 -1.5749 -0.7061  2.5784
  135MOL    H5932487   0.989   3.013   0.812 -1.7690  0.2306  1.5533
  135MOL    H6032488   1.104   3.106   0.903  0.2262 -0.2355 -1.7047
  135MOL    H6132489   0.933   3.154   0.906 -1.0363  3.2713 -1.3948
  135MOL    C6232490   1.248   3.340   0.789  0.4699 -1.1614 -0.1181
  135MOL    C6332491   1.355   3.276   0.696 -0.5321 -0.0192 -0.2134
  135MOL    C6432492   1.485   3.270   0.779 -0.8034 -0.2162  0.4313
  135MOL    C6532493   1.482   3.187   0.911 -0.3761  0.6916 -0.4268
  135MOL    H6632494   1.247   3.309   0.893 -1.3604  2.5152  1.0600
  135MOL    H6732495   1.287   3.441   0.801 -2.6348  0.3719 -2.2255
  135MOL    H6832496   1.314   3.176   0.677 -1.0801  0.0141  0.7675
  135MOL    H6932497   1.523   3.367   0.810 -0.3469 -0.2437 -0.0248
  135MOL    H7032498   1.566   3.228   0.718 -0.7245 -0.9750  1.0521
  135MOL    H7132499   1.450   3.086   0.884  1.0466 -0.2996  1.5139
  135MOL    H7232500   1.580   3.163   0.951 -0.4468 -0.6943 -1.0621
  135MOL    H7332501   1.426   3.221   0.998  1.3283 -0.2004  1.0479
  135MOL    C7432502   1.380   3.330   0.556 -0.0384  0.1165  0.9556
  135MOL    C7532503   1.280   3.286   0.444 -0.3541  1.3053  0.8403
  135MOL    C7632504   1.319   3.142   0.398 -0.1062  0.1308 -0.7981
  135MOL    C7732505   1.204   3.071   0.336 -0.5337  0.3557 -0.2816
  135MOL    H7832506   1.483   3.316   0.521 -0.3413  1.1359 -0.3657
  135MOL    H7932507   1.387   3.439   0.559 -0.7515  0.2587 -1.5635
  135MOL    H8032508   1.179   3.279   0.483 -1.2132 -2.0310 -1.6756
  135MOL    H8132509   1.347   3.086   0.488  2.1757 -0.6093 -1.9495
  135MOL    H8232510   1.409   3.141   0.336  1.7905  1.7501  1.8226
  135MOL    H8332511   1.187   3.117   0.238  2.5613  2.1010 -0.0667
  135MOL    H8432512   1.221   2.965   0.319 -2.1836  0.3260 -1.9822
  135MOL    H8532513   1.122   3.078   0.407 -0.0887 -0.3796  0.2982
  135MOL    C8632514   1.276   3.385   0.330 -0.0172 -0.0140  0.3600
  135MOL    C8732515   1.197   3.515   0.353 -0.2157 -0.3639  0.0580
  135MOL    C8832516   1.078   3.526   0.260  0.0306  0.0344 -0.1292
  135MOL    C8932517   0.982   3.407   0.273  0.4664 -0.8082 -0.2813
  135MOL    H9032518   1.256   3.335   0.235 -0.8880  0.6161  0.2068
  135MOL    H9132519   1.378   3.418   0.310 -0.9609  0.9426 -3.3015
  135MOL    H9232520   1.170   3.519   0.458 -0.3053  0.5720  0.0046
  135MOL    H9332521   1.117   3.536   0.158 -0.9619 -1.7586 -0.6962
  135MOL    H9432522   1.022   3.616   0.281  1.3745  1.2354 -1.5226
  135MOL    H9532523   1.031   3.311   0.255  2.8272  0.4484 -0.7781
  135MOL    H9632524   0.963   3.408   0.381  1.5091 -1.4570 -0.0849
  135MOL    H9732525   0.894   3.426   0.212  0.5574  1.1358  0.1680
  135MOL    C9832526   1.297   3.629   0.327  0.6816 -0.6425 -0.0281
  135MOL    C9932527   1.240   3.771   0.363  0.0273  0.3660  0.0954
  135MOL   C10032528   1.342   3.871   0.301  0.1395 -0.3497 -0.0544
  135MOL   C10132529   1.370   3.851   0.147 -0.1455  0.1802  0.4167
  135MOL   H10232530   1.337   3.628   0.225  2.1188 -1.6991  0.5287
  135MOL   H10332531   1.386   3.605   0.385  2.1764 -0.2369 -2.0988
  135MOL   H10432532   1.141   3.791   0.323  1.9312  2.1166 -3.9839
  135MOL   H10532533   1.438   3.865   0.353 -1.1152 -0.2208  2.3583
  135MOL   H10632534   1.294   3.967   0.318  0.2574 -0.5700  1.6204
  135MOL   H10732535   1.447   3.777   0.124  1.4398  2.2904 -1.2744
  135MOL   H10832536   1.276   3.822   0.099 -0.5171 -1.0453  1.8334
  135MOL   H10932537   1.404   3.942   0.098 -2.3918 -0.0974 -1.7795
  135MOL   C11032538   1.232   3.785   0.514  0.5000  0.4153 -0.4762
  135MOL   C11132539   1.170   3.918   0.569  0.0246  0.1090 -0.1753
  135MOL   C11232540   1.217   3.945   0.716  0.8261  0.8333  0.0094
  135MOL   C11332541   1.359   4.012   0.715  0.8325  0.3291  0.3449
  135MOL   H11432542   1.334   3.775   0.553 -0.7770 -0.3669  2.7925
  135MOL   H11532543   1.174   3.705   0.559  0.0898  1.4359  0.8559
  135MOL   H11632544   1.208   3.996   0.504  1.0039  0.6299  0.9973
  135MOL   H11732545   1.213   3.849   0.768 -0.3186  0.2994 -1.0244
  135MOL   H11832546   1.147   4.002   0.777  0.7497 -0.4101  1.1052
  135MOL   H11932547   1.411   4.003   0.810 -1.1164 -0.3703  1.3666
  135MOL   H12032548   1.422   3.966   0.639 -0.2854  0.2839 -0.5708
  135MOL   H12132549   1.357   4.119   0.691 -0.0682  0.1944 -0.2019
  135MOL   C12232550   1.015   3.923   0.554 -0.1464 -0.4346  0.5033
  135MOL   C12332551   0.955   4.077   0.561 -0.3861 -0.0793  0.0593
  135MOL   C12432552   0.802   4.069   0.592  0.6636  0.4592  0.4331
  135MOL   C12532553   0.770   4.053   0.747  0.2836  0.4963 -0.3580
  135MOL   H12632554   0.973   3.867   0.637 -0.0265 -2.5790 -0.8578
  135MOL   H12732555   0.962   3.866   0.478  0.5064 -2.1529  1.3149
  135MOL   H12832556   0.996   4.125   0.650 -1.3279  0.2525  0.3221
  135MOL   H12932557   0.768   3.983   0.535 -3.2410  0.8150  2.0675
  135MOL   H13032558   0.741   4.155   0.563  0.9437  0.3381 -0.5303
  135MOL   H13132559   0.806   3.958   0.788 -1.6957  0.4019  1.2228
  135MOL   H13232560   0.825   4.122   0.811  2.4162  0.8239 -2.4367
  135MOL   H13332561   0.662   4.058   0.757  0.1344 -1.0144 -1.0505
  135MOL   C13432562   0.985   4.153   0.433  0.3036 -0.9486 -0.3304
  135MOL   C13532563   0.942   4.305   0.427 -0.1354  0.3914 -0.2131
  135MOL   C13632564   0.814   4.332   0.346 -0.6093  0.3529  0.5456
  135MOL   C13732565   0.746   4.472   0.349 -0.3735  0.1051 -0.1206
  135MOL   H13832566   0.953   4.109   0.338 -2.2897  1.6769 -0.7720
  135MOL   H13932567   1.092   4.158   0.417  0.3431  2.2189  0.6201
  135MOL   H14032568   0.921   4.342   0.528 -0.8829 -1.6694  0.4162
  135MOL   H14132569   0.737   4.258   0.365 -0.9033  0.1682 -1.3265
  135MOL   H14232570   0.838   4.315   0.241  0.4495 -2.1787  1.1507
  135MOL   H14332571   0.748   4.500   0.454  2.9870 -3.0615  0.7548
  135MOL   H14432572   0.808   4.544   0.295 -0.8108  1.3540  1.0231
  135MOL   H14532573   0.643   4.465   0.315 -0.0818 -1.0306 -0.7992
  135MOL   C14632574   1.062   4.390   0.384 -0.2747 -0.2262 -0.1583
  135MOL   C14732575   1.184   4.405   0.490 -0.5292  0.1806 -0.1122
  135MOL   C14832576   1.157   4.475   0.627  0.4704  0.7215  1.4936
  135MOL   C14932577   1.259   4.429   0.733 -0.0516  0.2918 -0.3281
  135MOL   H15032578   1.036   4.487   0.341  2.0332 -0.3295 -1.8615
  135MOL   H15132579   1.090   4.341   0.291  1.2124 -0.5953  0.4806
  135MOL   H15232580   1.231   4.309   0.512 -0.5566 -0.5385 -3.0055
  135MOL   H15332581   1.056   4.467   0.668  0.5288 -0.2922  1.4421
  135MOL   H15432582   1.166   4.581   0.605  1.4479  0.3625  0.1194
  135MOL   H15532583   1.236   4.497   0.815 -0.8233 -0.0695 -0.2388
  135MOL   H15632584   1.266   4.324   0.762  0.5601  0.9822  2.1845
  135MOL   H15732585   1.357   4.455   0.694 -0.2893 -0.0829 -1.1940
  135MOL   C15832586   1.290   4.497   0.421  0.1025 -0.1719 -0.0950
  135MOL   C15932587   1.357   4.441   0.291 -0.2154 -0.0189 -0.0986
  135MOL   C16032588   1.408   4.296   0.320 -0.1202  0.4418  0.1399
  135MOL   C16132589   1.514   4.285   0.441  0.2572 -0.1646 -0.0514
  135MOL   H16232590   1.376   4.511   0.487 -0.6877  3.2791  0.3061
  135MOL   H16332591   1.251   4.595   0.395  1.7014  0.1550 -1.2782
  135MOL   H16432592   1.278   4.432   0.216 -1.2400 -1.6613  1.1330
  135MOL   H16532593   1.462   4.259   0.233 -1.4845  0.5757 -0.7766
  135MOL   H16632594   1.321   4.234   0.340  0.1690  0.6929  2.2661
  135MOL   H16732595   1.580   4.198   0.430 -0.4076 -0.3852 -2.8611
  135MOL   H16832596   1.581   4.371   0.437 -0.5691  0.5563  1.5680
  135MOL   H16932597   1.458   4.278   0.533 -0.0638 -2.7895 -0.3974
  135MOL   C17032598   1.475   4.538   0.231 -0.6490 -0.3346 -0.1853
  135MOL   C17132599   1.520   4.506   0.087 -0.3565  0.2950 -0.0709
  135MOL   C17232600   1.659   4.566   0.046  0.1366  0.4891 -0.3187
  135MOL   C17332601   1.785   4.514   0.119 -0.3460 -0.0415  0.0438
  135MOL   H17432602   1.566   4.525   0.290  0.4807 -1.0097 -2.0464
  135MOL   H17532603   1.441   4.640   0.249 -0.8967 -0.1300 -1.7238
  135MOL   H17632604   1.528   4.400   0.064  1.3148 -0.0659  2.0794
  135MOL   H17732605   1.648   4.672   0.067 -0.1584  0.7385 -1.6948
  135MOL   H17832606   1.668   4.561   7.644 -0.7349  2.4358 -0.4917
  135MOL   H17932607   1.786   4.539   0.225 -0.9067 -1.4502  0.3988
  135MOL   H18032608   1.792   4.405   0.119  1.7956  0.0690 -1.1553
  135MOL   H18132609   1.877   4.542   0.068  1.9169 -2.3463  2.6727
  135MOL   C18232610   1.405   4.560   7.701 -0.2771 -0.4382  0.0123
  135MOL   C18332611   1.354   4.445   7.605 -0.3751 -0.1633 -0.2122
  135MOL   C18432612   1.451   4.421   7.480 -0.3084 -0.4381  0.6378
  135MOL   C18532613   1.471   4.546   7.390  0.1889 -0.0773 -0.1482
  135MOL   H18632614   1.430   4.654   7.651 -1.7011  0.9242  1.7826
  135MOL   H18732615   1.321   4.594   0.056  0.1938  0.9079 -0.0716
  135MOL   H18832616   1.338   4.354   7.662 -0.7188 -0.0052 -0.0562
  135MOL   H18932617   1.410   4.335   7.428  1.5112 -1.4899  0.8818
  135MOL   H19032618   1.546   4.393   7.526 -0.0586  0.2945  0.5667
  135MOL   H19132619   1.541   4.523   7.310 -0.9561 -0.5978 -1.0261
  135MOL   H19232620   1.382   4.582   7.337 -0.4246  1.9123  2.1447
  135MOL   H19332621   1.492   4.635   7.449 -2.2548  0.0006  0.6924
  135MOL   C19432622   1.212   4.485   7.556 -0.2311 -0.1673 -0.1185
  135MOL   C19532623   1.095   4.482   7.655 -0.0925  0.4860 -0.4140
  135MOL   C19632624   1.016   4.352   7.656 -0.2550 -0.6173 -1.0552
  135MOL   C19732625   1.084   4.224   7.697 -0.5881 -0.7146  0.2491
  135MOL   H19832626   1.185   4.429   7.466  0.9145 -1.4351  0.2999
  135MOL   H19932627   1.222   4.591   7.533  0.7911 -0.0778  0.7051
  135MOL   H20032628   1.149   4.486   0.044 -2.2977  0.5969  0.8801
  135MOL   H20132629   0.983   4.326   7.556  0.8068 -1.0427 -1.2985
  135MOL   H20232630   0.933   4.374   0.017  1.0621  0.7246  0.1688
  135MOL   H20332631   1.142   4.186   7.613 -0.6212 -0.6350  0.1892
  135MOL   H20432632   1.154   4.247   0.071  0.1338 -1.3134 -0.2094
  135MOL   H20532633   1.020   4.157   0.050 -2.6300 -0.0797 -1.1731
  135MOL   C20632634   1.002   4.606   7.649 -0.5661 -0.8499  0.1223
  135MOL   C20732635   1.068   4.735   0.000 -0.3707  0.8843  0.8419
  135MOL   C20832636   1.086   4.731   0.149 -0.1165  0.4776 -0.1397
  135MOL   C20932637   1.177   4.844   0.199 -0.6698  0.4404 -0.3986
  135MOL   H21032638   0.911   4.587   0.001 -1.5821 -0.5198 -1.3424
  135MOL   H21132639   0.956   4.621   7.551 -0.0897  0.6350  0.1173
  135MOL   H21232640   1.163   4.749   7.655 -1.0932 -0.7062 -0.9856
  135MOL   H21332641   1.128   4.634   0.177 -0.5557  0.4576  0.4619
  135MOL   H21432642   0.985   4.737   0.189 -0.4225  1.7462 -1.0761
  135MOL   H21532643   1.202   4.834   0.304  0.3452  1.8864 -0.4868
  135MOL   H21632644   1.274   4.841   0.149 -0.3483  0.7012  0.2057
  135MOL   H21732645   1.132   4.943   0.194  1.8696  1.6576 -0.0119
  135MOL   C21832646   0.981   4.852   7.651  0.1466  0.4153  0.7685
  135MOL   C21932647   1.011   4.871   7.501 -0.0982 -0.5133 -0.0064
  135MOL   C22032648   1.093   5.004   7.473  0.4400  0.0281  0.3508
  135MOL   C22132649   1.021   5.137   7.503 -0.0886 -0.6766  0.7090
  135MOL   H22232650   0.998   4.944   0.001 -0.9367  0.3039  1.2857
  135MOL   H22332651   0.874   4.840   7.669  0.0323 -1.0558 -0.7337
  135MOL   H22432652   1.085   4.805   7.456  0.2830 -1.3688  1.8554
  135MOL   H22532653   1.142   5.002   7.375 -1.3025 -0.7605 -0.5263
  135MOL   H22632654   1.188   4.985   7.524  2.0202  1.1855 -2.0281
  135MOL   H22732655   1.090   5.221   7.507  2.9434 -3.0926  1.7238
  135MOL   H22832656   0.942   5.163   7.433 -0.0708  0.8784  1.2513
  135MOL   H22932657   0.969   5.128   7.599 -0.7719  0.2782  0.4267
  135MOL   C23032658   0.881   4.859   7.425  0.2378  0.2013 -0.4289
  135MOL   C23132659   0.901   4.887   7.276 -0.5995 -0.1055  0.0167
  135MOL   C23232660   0.794   4.840   7.170  0.3902 -0.1012 -0.5205
  135MOL   C23332661   0.676   4.948   7.158 -0.8626  0.4686 -0.8219
  135MOL   H23432662   0.804   4.925   7.466  1.2020 -0.5601  2.7406
  135MOL   H23532663   0.840   4.759   7.439  3.1449 -0.8997  0.4697
  135MOL   H23632664   0.919   4.993   7.260  1.4087 -0.6654 -1.8108
  135MOL   H23732665   0.761   4.745   7.211 -0.2451  0.9589  1.4571
  135MOL   H23832666   0.842   4.813   7.076 -0.7879  0.4848 -1.3031
  135MOL   H23932667   0.721   5.046   7.146  0.0301  0.6031  2.9315
  135MOL   H24032668   0.598   4.929   7.084 -1.2101 -0.4726 -0.2367
  135MOL   H24132669   0.619   4.948   7.251  0.5735  1.1752  0.0700
  135MOL   H24232670   0.995   4.843   7.241 -1.2837 -0.9693 -0.7449
  136MOL     C132671   0.577   5.928   1.525 -0.4755  0.3482  0.5480
  136MOL     C232672   0.586   5.924   1.372  0.1679 -0.5496 -0.1633
  136MOL     C332673   0.572   6.060   1.299 -0.6867 -0.0999  0.5149
  136MOL     C432674   0.432   6.120   1.264  0.5753  0.6197  0.2176
  136MOL     H532675   0.473   5.939   1.555 -0.2354 -0.2223  1.6460
  136MOL     H632676   0.613   5.836   1.570 -1.9967 -0.2148  0.6354
  136MOL     H732677   0.691   5.897   1.357  0.5616  0.5005  0.6634
  136MOL     H832678   0.626   6.036   1.207 -1.9486 -1.7623  0.1885
  136MOL     H932679   0.627   6.147   1.334  1.8236 -0.3158 -2.6206
  136MOL    H1032680   0.433   6.195   1.184 -1.6486 -1.2947 -1.6763
  136MOL    H1132681   0.365   6.046   1.222  0.7382  1.2764 -1.2636
  136MOL    H1232682   0.387   6.170   1.350 -0.6621  0.7620 -0.5073
  136MOL    H1332683   0.633   6.012   1.567 -1.4981  1.5786 -0.4959
  136MOL    C1432684   0.504   5.805   1.316 -0.8434 -0.0587  0.2515
  136MOL    C1532685   0.556   5.660   1.342  0.0176  0.2656  0.2216
  136MOL    C1632686   0.672   5.629   1.238  0.1792  0.3226  0.5560
  136MOL    C1732687   0.787   5.541   1.283 -0.2546  0.4024 -0.8041
  136MOL    H1832688   0.497   5.812   1.208  0.8564 -0.3770  0.1018
  136MOL    H1932689   0.403   5.817   1.355 -0.6116  0.4436  0.7078
  136MOL    H2032690   0.605   5.668   1.439  1.5296 -1.5239 -0.3608
  136MOL    H2132691   0.714   5.717   1.190  0.5400 -0.4328 -0.5124
  136MOL    H2232692   0.624   5.573   1.158  0.4839 -1.3370  1.5018
  136MOL    H2332693   0.868   5.593   1.335  2.3658  0.1056 -4.3725
  136MOL    H2432694   0.753   5.461   1.348 -0.8484  0.1053 -1.4774
  136MOL    H2532695   0.839   5.493   1.200  0.7508 -1.3340  0.7687
  136MOL    C2632696   0.441   5.559   1.357 -0.4705 -0.0980 -0.7179
  136MOL    C2732697   0.364   5.562   1.488  0.2285 -0.2929  0.6363
  136MOL    C2832698   0.435   5.505   1.612 -0.2279 -0.5326  0.4762
  136MOL    C2932699   0.477   5.356   1.594 -0.2026 -0.6434 -0.7241
  136MOL    H3032700   0.470   5.455   1.348  5.3919  1.3426 -0.9958
  136MOL    H3132701   0.383   5.575   1.266 -1.3634 -0.5619 -0.2382
  136MOL    H3232702   0.350   5.668   1.512 -0.5112 -0.2179 -0.0897
  136MOL    H3332703   0.374   5.510   1.702 -0.9957  0.8821 -0.1024
  136MOL    H3432704   0.525   5.566   1.629 -1.7446  1.9577 -0.1171
  136MOL    H3532705   0.391   5.291   1.578 -0.2309 -1.4365  2.3336
  136MOL    H3632706   0.539   5.341   1.506  0.0285  1.1583 -0.8890
  136MOL    H3732707   0.527   5.319   1.683 -0.8555 -0.0327 -0.0975
  136MOL    C3832708   0.226   5.496   1.470 -0.2081  0.9401 -0.2261
  136MOL    C3932709   0.119   5.592   1.414  0.0594  0.0363  0.4712
  136MOL    C4032710   0.037   5.662   1.527 -0.2524 -0.1107 -0.5809
  136MOL    C4132711   0.113   5.748   1.629  0.3065 -0.4692  0.2635
  136MOL    H4232712   0.200   5.468   1.572 -2.7848 -0.0094 -1.0969
  136MOL    H4332713   0.242   5.409   1.407  1.1974  0.0754  1.3127
  136MOL    H4432714   0.166   5.673   1.357 -1.4354 -1.1431 -2.5577
  136MOL    H4532715   7.691   5.581   1.579 -0.3952  0.3522  0.0081
  136MOL    H4632716   7.679   5.742   1.490 -2.4242 -0.7129  1.6935
  136MOL    H4732717   0.045   5.806   1.691 -0.6266  0.4961 -1.6504
  136MOL    H4832718   0.152   5.675   1.701  2.9499  1.0683  0.4487
  136MOL    H4932719   0.183   5.812   1.576 -1.1327  0.2811 -0.7503
  136MOL    C5032720   0.027   5.516   1.309 -0.6348 -0.2570  0.9100
  136MOL    C5132721   7.625   5.608   1.250 -0.0382  0.2556  0.3834
  136MOL    C5232722   7.517   5.535   1.166  0.2172  0.5345 -0.1495
  136MOL    C5332723   7.445   5.428   1.246  0.2071  0.2237  0.2355
  136MOL    H5432724   7.685   5.435   1.364  0.0302 -0.9678  0.4506
  136MOL    H5532725   0.085   5.458   1.237  0.6108 -1.4284  2.8135
  136MOL    H5632726   7.563   5.639   1.334 -0.8265  0.5959 -0.3178
  136MOL    H5732727   7.555   5.495   1.072 -0.7810  0.6282 -0.5954
  136MOL    H5832728   7.445   5.612   1.142 -0.3409  1.2162  3.4443
  136MOL    H5932729   7.502   5.335   1.252  0.5741  0.5396  1.6839
  136MOL    H6032730   7.423   5.462   1.347  0.9294 -0.3898  0.5985
  136MOL    H6132731   7.347   5.400   1.207  0.1786 -1.2386  1.3261
  136MOL    C6232732   7.686   5.727   1.174  0.6043 -0.7902 -0.3121
  136MOL    C6332733   0.058   5.707   1.046  0.2096  0.3585  0.5178
  136MOL    C6432734   0.211   5.729   1.065 -0.4014  0.1512 -0.2277
  136MOL    C6532735   0.305   5.630   0.984 -0.2752 -0.4508 -0.1643
  136MOL    H6632736   0.020   5.799   1.245  0.5827 -2.0403  0.9811
  136MOL    H6732737   7.598   5.786   1.148 -0.9359 -3.1260 -0.6034
  136MOL    H6832738   0.046   5.601   1.027  2.6291  0.0663  0.4998
  136MOL    H6932739   0.246   5.745   1.167 -0.9001  1.1118 -0.1996
  136MOL    H7032740   0.229   5.829   1.027 -1.4846  0.2263 -0.5455
  136MOL    H7132741   0.294   5.529   1.024 -1.0315  0.3069  1.6128
  136MOL    H7232742   0.290   5.634   0.876 -2.7231 -1.5994  0.0976
  136MOL    H7332743   0.407   5.661   1.004  0.4564 -3.7406  1.6332
  136MOL    C7432744   0.013   5.786   0.919  0.7514 -0.3637  0.0523
  136MOL    C7532745   7.587   5.736   0.854  0.0334  0.2901  0.0019
  136MOL    C7632746   7.611   5.620   0.745  0.6413  0.8246 -0.3166
  136MOL    C7732747   7.483   5.542   0.720 -0.2263 -0.0137 -0.1950
  136MOL    H7832748   0.088   5.778   0.840  0.6359 -0.6947 -0.0278
  136MOL    H7932749   0.005   5.890   0.950 -0.0719 -0.7506  1.1685
  136MOL    H8032750   7.522   5.693   0.931 -1.9151  1.0384 -1.1877
  136MOL    H8132751   7.693   5.567   0.792 -0.1420 -1.0492 -0.9987
  136MOL    H8232752   7.651   5.658   0.651  0.8190  1.0892 -0.1320
  136MOL    H8332753   7.486   5.445   0.670 -2.0832  0.6186 -1.5704
  136MOL    H8432754   7.437   5.525   0.817 -0.6189  0.9535 -0.2081
  136MOL    H8532755   7.409   5.600   0.665 -0.7021 -0.4426 -0.0174
  136MOL    C8632756   7.514   5.857   0.800 -0.4648  0.1288  0.5450
  136MOL    C8732757   7.402   5.898   0.897  0.4458  0.8358  0.4200
  136MOL    C8832758   7.277   5.796   0.892  0.6395 -0.4137  0.0739
  136MOL    C8932759   7.188   5.800   1.015 -0.2003 -0.0055  0.2141
  136MOL    H9032760   7.466   5.832   0.705 -0.5668 -0.6988  0.8070
  136MOL    H9132761   7.586   5.934   0.773  1.1273 -0.5165  2.7784
  136MOL    H9232762   7.442   5.889   0.998  0.8291  0.8202  0.2682
  136MOL    H9332763   7.310   5.692   0.883 -1.5961 -1.0303 -1.5548
  136MOL    H9432764   7.211   5.821   0.809 -1.4779 -2.7059  0.9853
  136MOL    H9532765   7.237   5.792   1.112 -0.1956 -0.2666  0.1906
  136MOL    H9632766   7.136   5.895   1.025 -0.4572 -0.2761  1.5194
  136MOL    H9732767   7.119   5.717   1.030 -1.2329  0.5128 -1.4833
  136MOL    C9832768   7.353   6.045   0.863 -0.4760  0.3340  0.4112
  136MOL    C9932769   7.413   6.151   0.960 -0.4065 -0.5837 -0.1142
  136MOL   C10032770   7.327   6.279   0.963  0.0930 -0.0371 -0.2784
  136MOL   C10132771   7.327   6.372   0.842 -0.3988  0.1607 -0.3236
  136MOL   H10232772   7.246   6.040   0.883 -0.2386  0.6541  1.8591
  136MOL   H10332773   7.368   6.056   0.756 -0.0118 -0.1605  0.4235
  136MOL   H10432774   7.412   6.110   1.061  2.8051 -1.2167 -0.2656
  136MOL   H10532775   7.364   6.343   1.043 -0.7949 -1.2210  1.1214
  136MOL   H10632776   7.224   6.243   0.971 -0.5502  2.1807  2.2473
  136MOL   H10732777   7.238   6.435   0.842  0.6503  1.6776 -0.9404
  136MOL   H10832778   7.416   6.434   0.845  0.9012 -1.7205  0.1524
  136MOL   H10932779   7.335   6.319   0.747  0.3252  2.7442 -1.7621
  136MOL   C11032780   7.563   6.173   0.947  0.3503 -0.3418  0.2400
  136MOL   C11132781   7.645   6.214   1.072  0.2753 -0.3753  0.1066
  136MOL   C11232782   0.077   6.275   1.035 -0.1455 -0.2042  0.5599
  136MOL   C11332783   0.070   6.417   0.973 -0.1475 -0.0043 -1.1311
  136MOL   H11432784   7.576   6.253   0.874 -1.7736 -0.8524 -0.7323
  136MOL   H11532785   7.608   6.085   0.901  0.8308 -0.0808  0.2040
  136MOL   H11632786   7.590   6.288   1.130 -0.4779 -0.5903 -0.3291
  136MOL   H11732787   0.108   6.196   0.966 -2.3550 -2.8057  2.3885
  136MOL   H11832788   0.146   6.265   1.119 -0.6423  0.5901  1.0604
  136MOL   H11932789   0.007   6.411   0.885 -0.4176 -1.8955 -0.8266
  136MOL   H12032790   0.016   6.479   1.045  1.0934 -0.8718  0.6043
  136MOL   H12132791   0.174   6.449   0.965 -0.7701  2.4770  0.1167
  136MOL   C12232792   7.661   6.101   1.171  0.5223 -0.4404  0.2645
  136MOL   C12332793   7.690   6.131   1.318 -0.0930 -0.2389 -0.2798
  136MOL   C12432794   0.087   6.039   1.383  0.1551 -0.5603 -0.3610
  136MOL   C12532795   0.150   6.113   1.499 -0.4856  0.5285 -0.5016
  136MOL   H12632796   0.035   6.035   1.139  1.5325  1.2996 -0.8614
  136MOL   H12732797   7.571   6.040   1.162  0.2100  0.1684 -0.7549
  136MOL   H12832798   0.009   6.236   1.329  0.2212 -0.4568  1.2497
  136MOL   H12932799   0.161   6.019   1.307 -0.2584 -1.1361 -0.6110
  136MOL   H13032800   0.058   5.943   1.426 -0.5237  1.3119  3.6678
  136MOL   H13132801   0.230   6.059   1.550  0.4985  2.0294 -0.4199
  136MOL   H13232802   0.197   6.206   1.467 -0.9920  1.0678  0.2956
  136MOL   H13332803   0.077   6.153   1.570 -1.1272 -2.8321  0.8289
  136MOL   C13432804   7.557   6.126   1.401  0.4257  0.5729 -0.1970
  136MOL   C13532805   7.442   6.235   1.369 -0.3393  0.0651 -0.4434
  136MOL   C13632806   7.497   6.384   1.395  0.6235  0.1840 -0.7630
  136MOL   C13732807   7.523   6.409   1.542 -0.4818  0.4728 -0.1898
  136MOL   H13832808   7.589   6.147   1.503 -0.8793  0.5006  0.2388
  136MOL   H13932809   7.500   6.033   1.409 -1.9877  2.0076 -0.1635
  136MOL   H14032810   7.429   6.229   1.261  0.1168  0.2276 -0.5066
  136MOL   H14132811   7.439   6.467   1.355  1.2065  1.0661  0.2129
  136MOL   H14232812   7.592   6.393   1.343  0.1799  0.7362 -1.4785
  136MOL   H14332813   7.550   6.512   1.564  0.6288  0.1537 -0.0032
  136MOL   H14432814   7.435   6.393   1.605 -0.3202 -0.7701 -0.2654
  136MOL   H14532815   7.598   6.341   1.584 -1.1613  0.6357  1.3332
  136MOL   C14632816   7.319   6.208   1.453  0.5888  0.3948 -0.1033
  136MOL   C14732817   7.214   6.130   1.373 -0.1152 -0.3644 -0.2025
  136MOL   C14832818   7.145   6.234   1.291  0.2360  0.6413 -0.3821
  136MOL   C14932819   7.046   6.180   1.183  0.1454  0.1458 -0.7502
  136MOL   H15032820   7.267   6.297   1.487 -0.6084 -0.3900  0.1337
  136MOL   H15132821   7.352   6.152   1.541  0.6111  0.4392 -0.0829
  136MOL   H15232822   7.273   6.066   1.308 -0.2872 -0.0878 -0.6354
  136MOL   H15332823   7.210   6.306   1.241 -0.3938  1.0732 -0.5900
  136MOL   H15432824   7.089   6.302   1.355 -0.0894  0.6686 -0.6877
  136MOL   H15532825   6.961   6.125   1.223 -0.0396 -0.1185 -1.4928
  136MOL   H15632826   7.015   6.264   1.122  2.2141  1.2091 -0.3928
  136MOL   H15732827   7.102   6.107   1.124  1.4972  0.4929  0.0794
  136MOL   C15832828   7.123   6.043   1.466  0.4043 -0.2234  0.5932
  136MOL   C15932829   7.182   5.906   1.518 -0.4249 -0.1747 -0.1894
  136MOL   C16032830   7.147   5.796   1.413  0.1514  1.2159 -0.0893
  136MOL   C16132831   7.267   5.694   1.386  0.2424  0.4283  0.4079
  136MOL   H16232832   7.029   6.020   1.416  0.3737 -1.8788  1.3892
  136MOL   H16332833   7.111   6.108   1.553  3.7614 -0.5335  1.3475
  136MOL   H16432834   7.290   5.919   1.513 -0.5575  0.9481 -0.3807
  136MOL   H16532835   7.123   5.852   1.323  2.0275  1.5941 -0.3722
  136MOL   H16632836   7.052   5.745   1.431  0.9188 -0.3934 -0.5629
  136MOL   H16732837   7.249   5.641   1.292  1.2041  0.4876  0.1774
  136MOL   H16832838   7.369   5.732   1.380 -0.0690  1.0094 -1.6966
  136MOL   H16932839   7.261   5.626   1.471  1.0163  1.7713  1.5588
  136MOL   C17032840   7.129   5.860   1.657 -0.4387  0.6401  0.4724
  136MOL   C17132841   7.210   5.920   1.786 -0.3168 -0.2579  0.0008
  136MOL   C17232842   7.350   5.849   1.805 -0.2240  0.0367 -0.1811
  136MOL   C17332843   7.467   5.925   1.740  0.0529  0.0442  0.5122
  136MOL   H17432844   7.144   5.753   1.669  2.2746  0.8159 -0.8911
  136MOL   H17532845   7.022   5.878   1.663 -0.4871  0.0636  1.5359
  136MOL   H17632846   7.233   6.023   1.758  1.6323 -0.7669 -0.3349
  136MOL   H17732847   7.326   5.747   1.778 -1.9580 -0.3752  2.6460
  136MOL   H17832848   7.363   5.841   1.913 -1.0945  2.7774  0.1669
  136MOL   H17932849   7.557   5.913   1.800  0.9841  0.1258 -0.8410
  136MOL   H18032850   7.493   5.893   1.639 -1.0012  1.4687 -0.2224
  136MOL   H18132851   7.440   6.030   1.734  1.5896  0.4661  0.6567
  136MOL   C18232852   7.115   5.912   1.911 -0.2179  0.3707  0.2285
  136MOL   C18332853   7.004   6.018   1.900  0.5392 -0.5594 -0.0626
  136MOL   C18432854   7.036   6.121   2.020  0.2192  0.1312  0.3337
  136MOL   C18532855   7.153   6.220   1.990  0.8632  0.0265  0.4490
  136MOL   H18632856   7.172   5.922   2.004 -1.7788  0.6788  1.1771
  136MOL   H18732857   7.080   5.810   1.924  0.5179  0.2304  1.2452
  136MOL   H18832858   7.020   6.079   1.811  0.5717  0.6782  0.7796
  136MOL   H18932859   7.040   6.073   2.117 -1.6127  0.2477  0.4771
  136MOL   H19032860   6.954   6.192   2.027  1.2751  1.2962  1.2124
  136MOL   H19132861   7.251   6.176   2.012  0.9593 -1.6170 -2.8147
  136MOL   H19232862   7.163   6.270   1.893  1.3731  2.3477  1.6615
  136MOL   H19332863   7.143   6.310   2.050  0.8099 -0.0868  0.6085
  136MOL   C19432864   6.864   5.955   1.907 -0.3523  0.4394  0.2230
  136MOL   C19532865   6.747   6.038   1.882 -0.3342 -0.2160  0.6076
  136MOL   C19632866   6.620   5.974   1.942  0.1470  0.4892  0.4325
  136MOL   C19732867   6.606   6.003   2.098  0.4037  0.1269 -0.0223
  136MOL   H19832868   6.866   5.920   2.011  2.0975 -2.3184 -0.6951
  136MOL   H19932869   6.858   5.862   1.852 -0.5027 -1.1914  2.8943
  136MOL   H20032870   6.753   6.135   1.932  1.1443 -0.0992  0.2442
  136MOL   H20132871   6.615   5.868   1.916  0.4942  0.1225  1.8047
  136MOL   H20232872   6.539   6.020   1.886  0.5972  0.6855 -0.0688
  136MOL   H20332873   6.688   5.974   2.164  1.2385  0.2965 -0.9667
  136MOL   H20432874   6.593   6.109   2.120 -1.8194 -0.4049  1.3537
  136MOL   H20532875   6.519   5.950   2.135  1.5652 -1.6056  0.2748
  136MOL   C20632876   6.741   6.076   1.731  0.5702  0.7092 -0.3169
  136MOL   C20732877   6.705   6.225   1.717  0.2788 -0.7262  0.0094
  136MOL   C20832878   6.649   6.253   1.575 -0.2925 -0.2189 -0.2757
  136MOL   C20932879   6.733   6.189   1.465 -0.0784 -0.0969  0.1393
  136MOL   H21032880   6.668   6.018   1.674 -1.5612  2.2502  0.7778
  136MOL   H21132881   6.839   6.062   1.685  0.7023  1.2500 -0.2056
  136MOL   H21232882   6.623   6.253   1.782 -2.0982 -0.9222 -2.7829
  136MOL   H21332883   6.640   6.361   1.564 -0.4984  0.1496  2.9158
  136MOL   H21432884   6.544   6.226   1.569 -0.4866  0.4665  0.0626
  136MOL   H21532885   6.730   6.082   1.482  0.3589 -0.1732 -0.2544
  136MOL   H21632886   6.685   6.213   1.370  0.9387 -0.3656 -0.4513
  136MOL   H21732887   6.836   6.226   1.465  0.6313 -1.9887  2.1753
  136MOL   C21832888   6.825   6.321   1.732  0.0320  0.4478  0.0222
  136MOL   C21932889   6.793   6.471   1.762  0.0354 -0.5213  0.4129
  136MOL   C22032890   6.925   6.552   1.762 -0.7100 -0.4759  0.3605
  136MOL   C22132891   6.982   6.575   1.626 -0.0705 -0.2057 -0.3975
  136MOL   H22232892   6.887   6.312   1.643 -1.8803  2.2564 -1.5266
  136MOL   H22332893   6.896   6.275   1.802 -2.0548 -1.8082  0.7620
  136MOL   H22432894   6.734   6.512   1.681  2.0195  1.8465  0.1043
  136MOL   H22532895   7.001   6.504   1.823  0.7280  0.4388 -0.6719
  136MOL   H22632896   6.904   6.653   1.798  1.5046  0.5621 -1.1218
  136MOL   H22732897   7.088   6.599   1.630 -0.1182 -0.2184  2.0016
  136MOL   H22832898   6.963   6.484   1.570  0.5252  0.0703 -1.0516
  136MOL   H22932899   6.924   6.654   1.579 -2.0762 -0.8060  1.0017
  136MOL   C23032900   6.708   6.489   1.886  0.4734 -0.6249 -0.5342
  136MOL   C23132901   6.759   6.439   2.017 -0.4908 -0.2648  1.1869
  136MOL   C23232902   6.655   6.451   2.134 -0.4950  0.3037  1.4688
  136MOL   C23332903   6.719   6.392   2.261  0.5508  0.7361 -0.6494
  136MOL   H23432904   6.608   6.451   1.864  0.1867  0.1557 -0.5789
  136MOL   H23532905   6.685   6.594   1.903  0.0717 -0.4453 -2.0741
  136MOL   H23632906   6.788   6.334   2.006  0.6144 -0.1080  2.4816
  136MOL   H23732907   6.576   6.384   2.101  1.7229 -0.9707 -1.4780
  136MOL   H23832908   6.606   6.548   2.145 -1.4804 -0.1270  0.9979
  136MOL   H23932909   6.640   6.401   2.335  0.6160  2.8316 -0.7834
  136MOL   H24032910   6.727   6.288   2.229 -3.4497  0.5012 -1.1494
  136MOL   H24132911   6.814   6.438   2.289  2.1196 -1.7984 -1.6885
  136MOL   H24232912   6.845   6.501   2.042  0.9660 -1.5362 -0.5619
  137MOL     C132913   2.503   1.720   7.137 -0.0329 -0.0134  0.2115
  137MOL     C232914   2.522   1.758   7.282  0.0226  0.3572 -0.0912
  137MOL     C332915   2.388   1.769   7.352 -0.4554 -0.0257 -0.1662
  137MOL     C432916   2.376   1.759   7.505 -0.0382 -0.1222  0.2595
  137MOL     H532917   2.589   1.721   7.070 -0.2487 -0.9539 -0.0862
  137MOL     H632918   2.463   1.619   7.128  0.0363 -0.2404  2.3456
  137MOL     H732919   2.559   1.669   7.332 -1.4345  0.6142  1.4986
  137MOL     H832920   2.324   1.690   7.313 -0.5771  0.1965 -0.4200
  137MOL     H932921   2.343   1.859   7.311  0.3152  0.4463  0.0242
  137MOL    H1032922   2.437   1.829   7.563  0.1614 -1.6178  1.9219
  137MOL    H1132923   2.274   1.781   7.538 -1.2778  0.1029 -3.4753
  137MOL    H1232924   2.389   1.658   7.545  0.8337  0.8014  2.3802
  137MOL    H1332925   2.428   1.791   7.099  1.8251  1.6510 -0.4662
  137MOL    C1432926   2.614   1.875   7.306  0.0295 -0.0802  0.1333
  137MOL    C1532927   2.750   1.879   7.226  0.5846  0.3578 -0.3761
  137MOL    C1632928   2.828   1.750   7.225 -0.4987 -0.0541  0.3332
  137MOL    C1732929   2.892   1.705   7.363  0.4087  0.2040 -0.0139
  137MOL    H1832930   2.636   1.889   7.412 -1.7670 -0.2261  0.5514
  137MOL    H1932931   2.560   1.964   7.272 -3.4546 -2.0978  0.0974
  137MOL    H2032932   2.726   1.895   7.121 -1.8018 -0.2761  0.0332
  137MOL    H2132933   2.912   1.769   7.158 -1.4940 -0.7996 -1.1501
  137MOL    H2232934   2.780   1.664   7.179 -2.1579  0.9231  0.2001
  137MOL    H2332935   2.973   1.773   7.392 -0.3884  1.2986 -0.3433
  137MOL    H2432936   2.823   1.689   7.446  1.0618 -0.2578  0.4464
  137MOL    H2532937   2.948   1.613   7.346 -1.1928 -0.8456  0.2544
  137MOL    C2632938   2.843   2.003   7.262  0.2850 -0.4266  0.4655
  137MOL    C2732939   2.779   2.139   7.274  0.3598 -0.0742  0.6222
  137MOL    C2832940   2.704   2.179   7.143  0.8399  0.2724  0.1713
  137MOL    C2932941   2.774   2.177   7.006  0.0344 -0.4992  0.9031
  137MOL    H3032942   2.924   2.006   7.190  1.1748 -2.9408  1.3090
  137MOL    H3132943   2.891   1.986   7.359 -0.2837  0.6522  0.9415
  137MOL    H3232944   2.698   2.132   7.347 -0.3372  1.3782  0.0155
  137MOL    H3332945   2.660   2.277   7.157  1.7475  0.6934  0.1102
  137MOL    H3432946   2.618   2.115   7.123  2.2598 -2.0799  1.3034
  137MOL    H3532947   2.718   2.212   6.920  0.6608 -2.3725 -0.3077
  137MOL    H3632948   2.867   2.234   7.018 -0.0848  0.0894 -0.8408
  137MOL    H3732949   2.804   2.073   6.991 -0.7418 -0.7808  1.2968
  137MOL    C3832950   2.883   2.244   7.315 -0.0347 -0.4474 -0.3942
  137MOL    C3932951   2.833   2.376   7.365  0.2045  0.1563  0.1425
  137MOL    C4032952   2.955   2.467   7.390 -0.6444 -0.5326 -0.1421
  137MOL    C4132953   3.055   2.418   7.502  0.3159 -0.2943 -0.8754
  137MOL    H4232954   2.933   2.271   7.222 -0.8653  1.9885 -0.1817
  137MOL    H4332955   2.952   2.204   7.390  0.3887  1.5013  0.3122
  137MOL    H4432956   2.769   2.420   7.289  0.4314  1.8345  0.9140
  137MOL    H4532957   2.931   2.571   7.411  3.6263  0.3160  0.9556
  137MOL    H4632958   3.018   2.477   7.302  0.5866 -1.5924  0.6009
  137MOL    H4732959   3.007   2.432   7.599  0.3461  1.8940 -1.1517
  137MOL    H4832960   3.098   2.318   7.498  0.0178 -0.4487 -0.3503
  137MOL    H4932961   3.146   2.477   7.502  0.2648 -0.1658  1.8351
  137MOL    C5032962   2.746   2.359   7.497 -0.4610 -0.8521  0.2775
  137MOL    C5132963   2.599   2.379   7.486  0.2353 -0.4756 -0.1925
  137MOL    C5232964   2.559   2.529   7.473  0.2470 -0.0671 -0.0406
  137MOL    C5332965   2.558   2.618   7.607 -0.6758  0.2171 -0.4110
  137MOL    H5432966   2.787   2.428   7.571 -0.0454 -1.8268  0.9621
  137MOL    H5532967   2.761   2.258   7.535  1.4052 -1.0695 -1.0188
  137MOL    H5632968   2.567   2.333   7.393  1.9524 -1.3845 -0.3592
  137MOL    H5732969   2.461   2.539   7.427  1.0673  2.8342 -1.2372
  137MOL    H5832970   2.636   2.576   7.411  0.2159 -0.3453 -0.2935
  137MOL    H5932971   2.512   2.711   7.575 -1.7092  0.0727  0.5947
  137MOL    H6032972   2.499   2.576   7.690 -2.0656 -0.1769 -1.5723
  137MOL    H6132973   2.657   2.643   7.643 -0.3976  0.9703 -1.6661
  137MOL    C6232974   2.531   2.311   7.603  0.2032  0.6165  0.2257
  137MOL    C6332975   2.371   2.303   7.616  0.3546 -0.0071  0.3698
  137MOL    C6432976   2.317   2.256   0.039  0.2241 -0.7163 -0.2712
  137MOL    C6532977   2.343   2.110   0.079  0.0291 -0.5434  0.7447
  137MOL    H6632978   2.559   2.346   7.702 -0.9231 -1.0631  1.1567
  137MOL    H6732979   2.564   2.209   7.621 -0.5047  0.0679 -1.3935
  137MOL    H6832980   2.351   2.410   7.618 -1.8286 -0.2891 -2.5751
  137MOL    H6932981   2.209   2.273   0.042  0.3489  0.0259  0.2664
  137MOL    H7032982   2.358   2.317   0.119 -0.3783  0.2705 -0.7145
  137MOL    H7132983   2.326   2.042   7.701 -1.4776  0.8356 -0.0997
  137MOL    H7232984   2.450   2.100   0.095 -0.0637 -2.2547  0.4125
  137MOL    H7332985   2.290   2.059   0.160 -1.0728 -2.0590 -0.8889
  137MOL    C7432986   2.299   2.244   7.493 -0.5309 -0.0291 -0.2078
  137MOL    C7532987   2.147   2.255   7.497  0.4258 -0.1783  0.0012
  137MOL    C7632988   2.079   2.187   7.371  0.4035  0.0206  0.3509
  137MOL    C7732989   2.091   2.037   7.382  0.6912 -0.1949 -0.4572
  137MOL    H7832990   2.322   2.137   7.502  0.0945  0.2531  1.7877
  137MOL    H7932991   2.341   2.270   7.396 -0.6016 -0.8484 -0.4651
  137MOL    H8032992   2.119   2.198   7.585  1.9406  0.7843  1.1443
  137MOL    H8132993   2.119   2.223   7.277 -0.7878  3.8215  1.2304
  137MOL    H8232994   1.975   2.217   7.364  0.8528  1.5767  0.1511
  137MOL    H8332995   1.999   1.993   7.420 -0.1712 -0.4388 -2.7171
  137MOL    H8432996   2.125   1.986   7.291  0.5266 -0.5619 -0.3089
  137MOL    H8532997   2.170   2.024   7.455  1.0199  3.0805 -0.1423
  137MOL    C8632998   2.105   2.408   7.509  0.3636 -0.6487 -0.3276
  137MOL    C8732999   1.953   2.426   7.518  0.1024 -1.0138  0.3973
  137MOL    C8833000   1.920   2.580   7.526 -0.4386 -0.1087 -1.6568
  137MOL    C8933001   1.976   2.658   7.644  0.1934  0.6692  0.5136
  137MOL    H9033002   2.146   2.457   7.421 -0.9522  0.0479 -0.5584
  137MOL    H9133003   2.141   2.459   7.598 -0.2549  0.8089 -0.9006
  137MOL    H9233004   1.904   2.402   7.423 -0.2464 -0.6468  0.4821
  137MOL    H9333005   1.814   2.603   7.532 -0.0185  2.3004 -2.7795
  137MOL    H9433006   1.954   2.620   7.430 -2.2526  1.0217 -1.8617
  137MOL    H9533007   2.085   2.666   7.641  0.2250  0.7329  1.7505
  137MOL    H9633008   1.929   2.756   7.655 -0.3202  0.2007  2.6731
  137MOL    H9733009   1.952   2.609   0.032 -0.2658 -0.8169 -0.3621
  137MOL    C9833010   1.885   2.349   7.631  0.3469 -0.3215  0.3469
  137MOL    C9933011   1.730   2.328   7.622  0.2924  0.0516  0.1419
  137MOL   C10033012   1.675   2.261   0.050 -0.2430  0.4927  0.0100
  137MOL   C10133013   1.591   2.358   0.142  0.0300  0.5132  0.3635
  137MOL   H10233014   1.924   2.397   0.015 -0.2426  1.2841 -0.2343
  137MOL   H10333015   1.920   2.246   7.631  0.9843 -0.1075  0.1117
  137MOL   H10433016   1.680   2.424   7.605 -0.8346 -0.8572 -2.0060
  137MOL   H10533017   1.763   2.222   0.100 -0.2658  2.1991  1.4640
  137MOL   H10633018   1.612   2.181   0.013 -0.9686  1.8343 -1.7347
  137MOL   H10733019   1.574   2.326   0.245  0.3567  0.0781  0.2794
  137MOL   H10833020   1.655   2.446   0.147  0.5150  0.1024  1.4330
  137MOL   H10933021   1.494   2.390   0.103  1.2727  1.0997 -2.3769
  137MOL   C11033022   1.684   2.255   7.489 -0.3262 -0.4144 -0.1562
  137MOL   C11133023   1.537   2.260   7.457 -0.3021  1.1866  0.4755
  137MOL   C11233024   1.484   2.126   7.383 -0.7545  0.1220  0.0385
  137MOL   C11333025   1.428   2.018   7.485  0.5102  0.0485 -0.1132
  137MOL   H11433026   1.705   2.149   7.503  0.0447 -0.2813  0.2951
  137MOL   H11533027   1.742   2.292   7.405 -0.3061  1.7478  0.8044
  137MOL   H11633028   1.483   2.269   7.552  0.6963  0.4278  1.1283
  137MOL   H11733029   1.563   2.086   7.320 -0.9984 -1.6746  0.8163
  137MOL   H11833030   1.400   2.135   7.314 -0.7965  2.4652  0.3539
  137MOL   H11933031   1.400   1.931   7.427 -2.2376  0.5564  0.3394
  137MOL   H12033032   1.503   1.984   7.556 -1.1407 -0.3370  1.4790
  137MOL   H12133033   1.338   2.058   7.532 -0.5867  1.1303 -2.9900
  137MOL   C12233034   1.510   2.381   7.367  0.5935  0.2838  0.1397
  137MOL   C12333035   1.359   2.413   7.330 -0.1568 -0.6476  0.1091
  137MOL   C12433036   1.337   2.386   7.179 -0.7605 -0.2944 -0.0615
  137MOL   C12533037   1.186   2.384   7.150  0.4728 -0.0346 -0.3307
  137MOL   H12633038   1.568   2.365   7.276 -2.0307 -3.7130 -0.9732
  137MOL   H12733039   1.550   2.466   7.423  0.0889 -0.1195  1.1283
  137MOL   H12833040   1.304   2.351   7.401  1.6285 -1.3897  0.8741
  137MOL   H12933041   1.375   2.285   7.159 -0.6999 -0.3893  0.5091
  137MOL   H13033042   1.393   2.457   7.119  0.0011 -1.2939 -0.5689
  137MOL   H13133043   1.134   2.323   7.224 -0.7487 -1.0187 -1.9678
  137MOL   H13233044   1.147   2.486   7.147  0.0320  0.0254  4.0545
  137MOL   H13333045   1.167   2.344   7.051  0.5096  1.9421 -1.1615
  137MOL   C13433046   1.320   2.557   7.370  0.4148  0.5333 -0.1435
  137MOL   C13533047   1.241   2.568   7.503  0.5238  0.7681  0.4836
  137MOL   C13633048   1.100   2.495   7.515  0.7327  0.2304 -0.2553
  137MOL   C13733049   1.103   2.397   7.633  1.0478 -0.3933 -0.0690
  137MOL   H13833050   1.252   2.603   7.297 -2.3760 -1.2515  1.2676
  137MOL   H13933051   1.405   2.623   7.352  0.2392  0.8469  0.1725
  137MOL   H14033052   1.307   2.522   7.577  0.8199 -0.6192 -0.6114
  137MOL   H14133053   1.078   2.437   7.425 -0.2527  0.0852  0.0778
  137MOL   H14233054   1.020   2.567   7.529  1.4975  1.2891 -1.2218
  137MOL   H14333055   1.145   2.439   0.018  0.3285 -1.0912  0.6083
  137MOL   H14433056   1.002   2.358   7.650  1.0734 -0.0652  0.8724
  137MOL   H14533057   1.156   2.306   7.604 -2.7701 -2.4651 -0.9620
  137MOL   C14633058   1.231   2.711   7.563  0.1340  0.9579  0.7131
  137MOL   C14733059   1.365   2.790   7.590 -0.4911  0.8062 -0.5666
  137MOL   C14833060   1.470   2.732   7.684  0.2692  0.4875  0.1932
  137MOL   C14933061   1.416   2.699   0.116 -0.0341  0.4381 -0.1385
  137MOL   H15033062   1.185   2.706   7.662 -1.5727 -0.1537 -0.1099
  137MOL   H15133063   1.156   2.756   7.498 -0.1401  0.2482  0.5243
  137MOL   H15233064   1.415   2.786   7.493  0.8487 -0.2473  0.1427
  137MOL   H15333065   1.561   2.793   7.687  1.1517 -0.7530 -0.6106
  137MOL   H15433066   1.500   2.635   7.644  0.4788  0.9215 -0.7235
  137MOL   H15533067   1.502   2.658   0.168  1.5886  2.6653 -0.9775
  137MOL   H15633068   1.390   2.784   0.179 -0.0023  1.1749 -1.0998
  137MOL   H15733069   1.333   2.635   0.144  1.0107 -1.2070 -0.7591
  137MOL   C15833070   1.348   2.940   7.622 -0.0245  0.0406 -0.2147
  137MOL   C15933071   1.313   3.024   7.498 -0.4344 -0.0593 -0.8017
  137MOL   C16033072   1.434   3.105   7.455 -0.7754  0.0306  0.7100
  137MOL   C16133073   1.539   3.020   7.382 -0.2895 -0.7849 -0.7727
  137MOL   H16233074   1.426   2.991   7.679  0.6036  1.9814 -2.7326
  137MOL   H16333075   1.266   2.945   7.694  0.4091 -0.4877  0.3303
  137MOL   H16433076   1.279   2.970   7.410  0.5807  0.5704 -1.5823
  137MOL   H16533077   1.484   3.157   7.537 -0.0350  0.9871 -0.3320
  137MOL   H16633078   1.402   3.184   7.387  1.4042  0.2253 -0.1643
  137MOL   H16733079   1.583   2.940   7.442 -1.0328 -1.1403 -0.7013
  137MOL   H16833080   1.491   2.974   7.296 -0.1940  0.6524 -1.6001
  137MOL   H16933081   1.626   3.076   7.348 -1.4182  1.3718 -0.2272
  137MOL   C17033082   1.200   3.117   7.544 -0.7777  0.1930  0.5744
  137MOL   C17133083   1.054   3.066   7.544 -0.0437 -0.3213  0.9887
  137MOL   C17233084   1.013   3.016   7.405 -0.3271 -0.2389  0.3566
  137MOL   C17333085   1.028   3.115   7.292 -1.1864 -0.3875  0.8563
  137MOL   H17433086   1.197   3.210   7.487  1.5441  1.5928  2.6234
  137MOL   H17533087   1.229   3.165   7.638 -0.9739  2.7473 -0.6258
  137MOL   H17633088   1.056   2.982   7.614 -0.3124 -0.8931  0.3239
  137MOL   H17733089   0.909   2.984   7.413 -0.6353  0.1653 -1.6522
  137MOL   H17833090   1.066   2.927   7.369 -3.2612 -2.7493  1.9766
  137MOL   H17933091   1.116   3.179   7.296 -0.6164 -1.0238 -1.0517
  137MOL   H18033092   1.018   3.060   7.198  0.0570  1.7016 -0.5587
  137MOL   H18133093   0.938   3.176   7.288 -2.0005 -1.5774  0.6020
  137MOL   C18233094   0.962   3.180   7.598  0.2456 -0.0320 -0.3596
  137MOL   C18333095   0.821   3.141   7.633  0.9136 -0.5083  0.2781
  137MOL   C18433096   0.726   3.269   7.623  0.2023  0.4605  1.1525
  137MOL   C18533097   0.694   3.276   7.477  0.5806  0.1994  0.1158
  137MOL   H18633098   0.971   3.272   7.540  1.7368  0.7019  0.9953
  137MOL   H18733099   1.001   3.220   7.692  1.8325  1.1038 -1.4822
  137MOL   H18833100   0.781   3.070   7.561 -0.4955 -1.1432  1.6419
  137MOL   H18933101   0.765   3.360   7.669 -0.5067  1.1485  0.4094
  137MOL   H19033102   0.632   3.256   7.676 -0.6653 -0.3503 -0.5179
  137MOL   H19133103   0.778   3.275   7.407 -0.3272 -1.2265 -0.9546
  137MOL   H19233104   0.630   3.195   7.446  0.1125  1.1462 -1.4727
  137MOL   H19333105   0.627   3.362   7.465  0.1919 -0.0082  0.8216
  137MOL   C19433106   0.807   3.084   0.073  0.2431 -0.3700 -0.3915
  137MOL   C19533107   0.680   3.002   0.103  0.2455 -0.2754 -0.1497
  137MOL   C19633108   0.661   2.972   0.255 -0.5096 -0.6633 -0.5029
  137MOL   C19733109   0.780   2.884   0.318 -0.3271 -0.0616 -0.2150
  137MOL   H19833110   0.811   3.164   0.146 -2.6284 -0.7449  0.2547
  137MOL   H19933111   0.900   3.030   0.089  1.1422  2.1994  3.6672
  137MOL   H20033112   0.593   3.061   0.075  1.1066 -1.0151 -4.7224
  137MOL   H20133113   0.563   2.931   0.281 -1.4944  0.5155 -2.2258
  137MOL   H20233114   0.669   3.062   0.316 -3.3970  0.6403 -1.9497
  137MOL   H20333115   0.764   2.781   0.284  0.5827 -0.4785  0.5884
  137MOL   H20433116   0.879   2.902   0.276 -0.7689 -0.1459 -1.2936
  137MOL   H20533117   0.777   2.882   0.427 -0.9509 -2.1503 -0.2384
  137MOL   C20633118   0.666   2.869   0.015 -0.0004  0.1737  0.2081
  137MOL   C20733119   0.525   2.802   0.008  0.5950 -0.1790 -0.1842
  137MOL   C20833120   0.537   2.651   7.691  0.4430  0.3633 -0.0646
  137MOL   C20933121   0.399   2.585   0.015  0.3131 -0.9603 -0.4325
  137MOL   H21033122   0.739   2.796   0.052  1.5774  2.8575  2.5371
  137MOL   H21133123   0.696   2.896   7.620  0.1126  0.0411  0.2053
  137MOL   H21233124   0.482   2.812   0.108  1.3554 -1.7297  0.3138
  137MOL   H21333125   0.606   2.611   0.059  0.6989 -0.3984 -0.7104
  137MOL   H21433126   0.573   2.633   7.590  1.4461 -2.2322  0.7035
  137MOL   H21533127   0.394   2.476   0.015 -0.8799 -0.9162 -1.7629
  137MOL   H21633128   0.365   2.626   0.110 -2.6436  0.4227 -2.0434
  137MOL   H21733129   0.334   2.615   7.639 -0.5879 -1.2443  0.1706
  137MOL   C21833130   0.443   2.877   7.610  0.5819  0.2937  0.1123
  137MOL   C21933131   0.290   2.901   7.638  0.8722  0.2255 -0.7149
  137MOL   C22033132   0.231   2.981   7.525 -0.3430  0.0316  0.0755
  137MOL   C22133133   0.233   2.920   7.382  0.4138 -0.1313  0.4841
  137MOL   H22233134   0.442   2.821   7.517 -2.0838  0.1353  0.1954
  137MOL   H22333135   0.485   2.973   7.579 -0.9615  1.0784  0.4019
  137MOL   H22433136   0.246   2.802   7.637  1.9131 -0.2520  0.1098
  137MOL   H22533137   0.283   3.077   7.519 -0.5825  0.1674  0.1900
  137MOL   H22633138   0.127   3.012   7.536  0.4006  2.7914 -0.3152
  137MOL   H22733139   0.311   2.849   7.354  0.4542 -0.3595  1.1672
  137MOL   H22833140   0.132   2.885   7.361  1.0038 -1.6339  0.0808
  137MOL   H22933141   0.236   3.008   7.319 -0.0151 -1.1859 -1.0314
  137MOL   C23033142   0.244   2.958   0.068 -0.2145  0.5587 -0.4403
  137MOL   C23133143   0.099   2.946   0.094 -0.5466 -0.2145  0.5643
  137MOL   C23233144   0.057   3.021   0.221  0.4184  0.0814  0.1792
  137MOL   C23333145   7.614   2.983   0.246  0.8127 -1.0018  0.3453
  137MOL   H23433146   0.280   3.058   0.094 -0.0481 -0.6083  4.2173
  137MOL   H23533147   0.290   2.900   0.148 -0.8566  0.2076 -0.3295
  137MOL   H23633148   0.038   2.978   0.010 -0.5824  0.5728  0.8876
  137MOL   H23733149   0.070   3.127   0.197  0.1955 -0.4190 -2.2898
  137MOL   H23833150   0.111   2.994   0.312  0.0867 -0.4653  0.2128
  137MOL   H23933151   7.555   2.988   0.154 -2.3229  0.0287  2.3549
  137MOL   H24033152   7.616   2.884   0.291 -0.5124 -0.5860  1.3439
  137MOL   H24133153   7.572   3.052   0.318  0.3944 -1.8711  0.9430
  137MOL   H24233154   0.078   2.841   0.114  1.7312 -0.3880  2.2598
  138MOL     C133155   5.974   4.296   3.481  0.8409 -0.0949  0.2468
  138MOL     C233156   6.021   4.172   3.552 -0.1992 -0.4875 -0.1450
  138MOL     C333157   6.106   4.082   3.467 -0.4893 -0.1029 -0.1640
  138MOL     C433158   6.021   4.024   3.357  0.4740  0.2179  0.4915
  138MOL     H533159   6.058   4.346   3.433  1.2137 -0.5792  0.3873
  138MOL     H633160   5.897   4.283   3.406  1.5797  2.6196 -1.0350
  138MOL     H733161   6.091   4.208   3.628 -1.4110 -0.0779  0.8197
  138MOL     H833162   6.146   3.994   3.518 -1.1971 -1.1829 -1.4590
  138MOL     H933163   6.198   4.126   3.429 -1.7219  2.9640  0.2773
  138MOL    H1033164   5.942   3.968   3.407 -0.4895 -1.2058 -2.4933
  138MOL    H1133165   5.969   4.101   3.299  0.4344 -0.5599 -0.5214
  138MOL    H1233166   6.077   3.961   3.288  0.5206 -1.1346  1.7625
  138MOL    H1333167   5.932   4.370   3.548 -0.4429 -0.9112  0.3537
  138MOL    C1433168   5.911   4.101   3.636 -0.8497  0.0984 -0.6438
  138MOL    C1533169   5.814   4.184   3.721  0.1058 -0.5580  0.2280
  138MOL    C1633170   5.880   4.275   3.827 -0.3950  0.4985  0.1762
  138MOL    C1733171   5.792   4.392   3.849 -0.0855  0.4847 -0.5896
  138MOL    H1833172   5.945   4.018   3.698 -1.1646  1.1578  0.9716
  138MOL    H1933173   5.843   4.060   3.562  0.1306  1.6019 -2.4127
  138MOL    H2033174   5.765   4.248   3.648 -0.4225 -0.5982  0.5449
  138MOL    H2133175   5.973   4.323   3.798 -0.5953  1.1625  0.6080
  138MOL    H2233176   5.892   4.208   3.913 -1.4295  2.6944  2.0902
  138MOL    H2333177   5.845   4.465   3.909 -0.3710  1.5865 -1.6629
  138MOL    H2433178   5.769   4.446   3.758 -2.6917  1.3877  0.5430
  138MOL    H2533179   5.696   4.374   3.900  0.8173 -0.1600  0.9296
  138MOL    C2633180   5.706   4.094   3.789  0.2476 -0.3916  0.5982
  138MOL    C2733181   5.614   4.005   3.702  0.4801  0.0260 -0.0278
  138MOL    C2833182   5.461   4.016   3.741 -0.3477  0.6172 -0.6226
  138MOL    C2933183   5.422   3.969   3.884 -0.2635 -0.1686  0.0362
  138MOL    H3033184   5.644   4.160   3.849  1.8055  2.5814 -0.9887
  138MOL    H3133185   5.757   4.030   3.861 -0.2632 -1.9917 -0.4312
  138MOL    H3233186   5.626   4.024   3.596 -0.0124  2.3963  0.2973
  138MOL    H3333187   5.393   3.964   3.673  1.7566 -3.2807  0.1196
  138MOL    H3433188   5.438   4.122   3.729  0.5159  0.8853  0.0256
  138MOL    H3533189   5.443   3.862   3.884  0.9969  0.0393 -1.8920
  138MOL    H3633190   5.491   4.004   3.960  0.2887  0.2277 -0.6357
  138MOL    H3733191   5.318   3.991   3.908 -0.1410  0.1693  0.2506
  138MOL    C3833192   5.662   3.854   3.696  0.2924  0.3041 -0.5336
  138MOL    C3933193   5.593   3.760   3.592  0.0857  0.4106 -0.2638
  138MOL    C4033194   5.642   3.610   3.604 -0.3901 -0.3726 -0.0194
  138MOL    C4133195   5.574   3.500   3.524 -0.2872  0.5399 -0.5825
  138MOL    H4233196   5.653   3.807   3.794  2.8439  0.8178 -0.0044
  138MOL    H4333197   5.768   3.849   3.670  1.4042  2.9197  3.1542
  138MOL    H4433198   5.485   3.756   3.602 -0.1866 -0.8877 -3.2303
  138MOL    H4533199   5.640   3.583   3.710 -0.4065 -2.2915 -0.4951
  138MOL    H4633200   5.748   3.610   3.578  0.0873 -2.0723  1.7878
  138MOL    H4733201   5.595   3.499   3.418  1.0967 -0.0681 -0.3184
  138MOL    H4833202   5.611   3.408   3.570  0.0187  1.3632  0.8588
  138MOL    H4933203   5.465   3.507   3.531 -0.3325  0.1260 -0.8872
  138MOL    C5033204   5.623   3.797   3.446  0.4383  0.5002 -0.4237
  138MOL    C5133205   5.511   3.770   3.339  0.7117  0.1319  0.2885
  138MOL    C5233206   5.577   3.762   3.202  0.9353  0.0307 -0.8858
  138MOL    C5333207   5.643   3.629   3.171 -0.6807  0.4306 -0.2459
  138MOL    H5433208   5.717   3.749   3.421  0.7358  0.8202  0.0501
  138MOL    H5533209   5.654   3.901   3.435 -2.9862  1.7160  0.6686
  138MOL    H5633210   5.453   3.682   3.365 -3.2710  1.9467 -2.0105
  138MOL    H5733211   5.650   3.842   3.204  0.1097  0.7787  0.1269
  138MOL    H5833212   5.506   3.775   3.121  1.0997 -3.2282 -1.6200
  138MOL    H5933213   5.724   3.604   3.240 -0.9606  0.2828  0.0309
  138MOL    H6033214   5.570   3.548   3.170 -0.1413 -0.0575 -1.9767
  138MOL    H6133215   5.686   3.632   3.071 -1.4917  1.4085 -0.5756
  138MOL    C6233216   5.407   3.881   3.342 -0.0296 -0.2229 -0.1515
  138MOL    C6333217   5.266   3.852   3.268 -0.5224 -0.7209  1.1851
  138MOL    C6433218   5.227   3.979   3.186 -0.0537  0.2836  0.6750
  138MOL    C6533219   5.108   3.963   3.090 -0.0664  0.3008 -0.2225
  138MOL    H6633220   5.463   3.962   3.294  3.4420 -1.9183  0.8847
  138MOL    H6733221   5.389   3.929   3.438 -1.2911  2.3070 -1.5738
  138MOL    H6833222   5.275   3.781   3.186 -1.8092 -3.5586  3.4406
  138MOL    H6933223   5.313   3.996   3.121  1.1537 -2.1201  1.5958
  138MOL    H7033224   5.214   4.069   3.246 -1.2801  0.4095  0.2486
  138MOL    H7133225   5.127   3.885   3.016 -0.2643  0.1068 -0.0681
  138MOL    H7233226   5.014   3.943   3.141  1.6401  0.7178  3.2076
  138MOL    H7333227   5.097   4.051   3.026  1.7691  1.3116  0.8040
  138MOL    C7433228   5.158   3.798   3.357  0.3232  0.4549  0.3306
  138MOL    C7533229   5.174   3.662   3.422  0.1896  0.3705  0.0423
  138MOL    C7633230   5.196   3.547   3.322 -0.2589 -0.7238 -0.9532
  138MOL    C7733231   5.086   3.527   3.210  0.5578 -0.6584 -0.7062
  138MOL    H7833232   5.072   3.801   3.289 -0.5227 -0.6306  1.3398
  138MOL    H7933233   5.136   3.879   3.426  1.0628  2.0405 -1.2419
  138MOL    H8033234   5.261   3.683   3.485  0.8705 -0.3816 -0.6395
  138MOL    H8133235   5.219   3.450   3.366  0.5458 -1.4053 -2.8126
  138MOL    H8233236   5.284   3.572   3.263  0.5181  0.4523  0.6752
  138MOL    H8333237   4.986   3.522   3.252  0.4881 -0.2517 -0.8182
  138MOL    H8433238   5.072   3.618   3.152  1.0758  0.4979  0.9715
  138MOL    H8533239   5.101   3.443   3.142 -0.0187 -0.0766 -1.5718
  138MOL    C8633240   5.057   3.634   3.517  0.0293  0.5644  0.1117
  138MOL    C8733241   5.020   3.724   3.639  0.2055 -0.2783 -0.4041
  138MOL    C8833242   5.153   3.728   3.735 -0.5055 -0.0337  0.7319
  138MOL    C8933243   5.181   3.600   3.812  0.4686 -0.4768  0.3058
  138MOL    H9033244   5.048   3.529   3.548 -0.7388  0.3531 -0.8233
  138MOL    H9133245   4.965   3.639   3.459 -0.7318 -0.1140  1.2204
  138MOL    H9233246   4.992   3.820   3.594  0.7770  0.4418  0.7567
  138MOL    H9333247   5.134   3.803   3.811  0.9442 -0.9282  2.0063
  138MOL    H9433248   5.240   3.767   3.683 -1.2797  1.8353  0.8062
  138MOL    H9533249   5.215   3.517   3.749  3.1187 -0.0436  1.1456
  138MOL    H9633250   5.267   3.614   3.877  0.9083 -0.1555 -0.3350
  138MOL    H9733251   5.093   3.571   3.869  0.7295  0.0672  0.9875
  138MOL    C9833252   4.887   3.687   3.715  0.0309  0.5481  0.0129
  138MOL    C9933253   4.843   3.785   3.826 -0.3299 -0.5861  0.4389
  138MOL   C10033254   4.739   3.715   3.918  0.0559  0.1570  0.1244
  138MOL   C10133255   4.816   3.628   4.025 -0.1775 -0.4080  0.9432
  138MOL   H10233256   4.885   3.588   3.760 -0.7073  1.0821  1.1891
  138MOL   H10333257   4.802   3.675   3.648 -0.5665 -0.8041  0.9895
  138MOL   H10433258   4.938   3.811   3.873  0.8580 -0.4107 -1.9959
  138MOL   H10533259   4.662   3.655   3.869 -0.0036  0.6080 -0.3353
  138MOL   H10633260   4.685   3.789   3.976  1.3380  1.1659  0.0380
  138MOL   H10733261   4.736   3.596   4.093 -0.0652  0.9487  1.7264
  138MOL   H10833262   4.867   3.542   3.980 -2.5059 -1.2152 -0.2375
  138MOL   H10933263   4.887   3.688   4.081  0.8114  0.5826 -1.3142
  138MOL   C11033264   4.786   3.916   3.774  0.2356 -0.0963  0.1354
  138MOL   C11133265   4.801   4.033   3.877  1.2162  0.4282 -0.2214
  138MOL   C11233266   4.683   4.130   3.858  0.0888  0.8733 -0.5419
  138MOL   C11333267   4.547   4.087   3.908 -0.4565  0.6820  0.2057
  138MOL   H11433268   4.681   3.891   3.758  0.7112 -0.9927 -1.6575
  138MOL   H11533269   4.830   3.947   3.679  1.2573  0.0566  0.6503
  138MOL   H11633270   4.790   4.005   3.981  0.8257 -0.4617 -0.4959
  138MOL   H11733271   4.669   4.142   3.751  0.2341  1.1042 -0.5374
  138MOL   H11833272   4.699   4.233   3.890  0.2010  1.3252 -2.0388
  138MOL   H11933273   4.555   4.088   4.017 -1.0682  3.6017  0.2672
  138MOL   H12033274   4.465   4.154   3.884 -0.2818  1.9501  2.9622
  138MOL   H12133275   4.520   3.986   3.875 -1.5779  1.3166 -0.8673
  138MOL   C12233276   4.937   4.101   3.863 -0.3666 -0.8901 -0.6454
  138MOL   C12333277   5.003   4.129   3.999 -0.0457  0.8511  0.1147
  138MOL   C12433278   5.112   4.229   3.969 -0.1954 -0.1281 -0.3842
  138MOL   C12533279   5.058   4.370   3.960  0.5330 -1.4241 -0.1485
  138MOL   H12633280   4.925   4.197   3.813 -3.4266 -0.1615  1.3406
  138MOL   H12733281   5.013   4.040   3.814  1.3932  0.4379  0.3528
  138MOL   H12833282   4.934   4.176   4.069  0.4744 -0.8515  1.7951
  138MOL   H12933283   5.166   4.200   3.878 -0.1002  1.7995 -0.9616
  138MOL   H13033284   5.190   4.210   4.043  0.9150 -1.4770 -1.8598
  138MOL   H13133285   4.981   4.395   4.033 -1.8198  1.6936 -3.5493
  138MOL   H13233286   5.132   4.450   3.966 -0.4365 -0.5215 -0.1137
  138MOL   H13333287   5.012   4.402   3.867 -0.1057 -1.5101  0.1382
  138MOL   C13433288   5.045   3.997   4.069 -0.3934  0.2276  0.4601
  138MOL   C13533289   5.126   4.012   4.205 -0.9772 -0.2834 -0.3439
  138MOL   C13633290   5.180   3.870   4.237 -0.1872  0.1557 -0.2801
  138MOL   C13733291   5.280   3.875   4.352 -0.2115  0.1226  0.6435
  138MOL   H13833292   5.110   3.940   4.002  0.6932  2.5144 -0.4898
  138MOL   H13933293   4.960   3.931   4.087 -0.2522  0.3719  1.7296
  138MOL   H14033294   5.215   4.073   4.188 -2.1040  1.4523 -0.1515
  138MOL   H14133295   5.245   3.844   4.153 -0.0949 -1.0820  0.1473
  138MOL   H14233296   5.095   3.804   4.253 -0.1923  0.8390  2.9184
  138MOL   H14333297   5.328   3.778   4.368  0.5335  0.7974  2.6506
  138MOL   H14433298   5.360   3.943   4.325  3.4591 -4.0329  0.5334
  138MOL   H14533299   5.242   3.901   4.451 -0.4587  0.3121  0.5020
  138MOL   C14633300   5.031   4.060   4.317 -0.2922 -0.3669 -0.4041
  138MOL   C14733301   5.020   4.213   4.336 -0.5983  0.3571 -0.0763
  138MOL   C14833302   5.149   4.270   4.398  0.4774 -0.1349 -1.2555
  138MOL   C14933303   5.169   4.415   4.350 -0.0649  0.5859  0.0396
  138MOL   H15033304   5.071   4.018   4.409  0.0036  0.5356 -0.1175
  138MOL   H15133305   4.932   4.017   4.304 -0.9393  0.0820  2.8424
  138MOL   H15233306   4.999   4.269   4.245  1.3215  0.2936 -0.5804
  138MOL   H15333307   5.228   4.201   4.367  0.2187  0.2106 -2.7093
  138MOL   H15433308   5.144   4.265   4.506  1.4829 -0.0722 -1.2038
  138MOL   H15533309   5.237   4.476   4.410 -1.2373  2.1669 -0.1977
  138MOL   H15633310   5.193   4.419   4.243 -0.0586 -0.1489  0.0116
  138MOL   H15733311   5.073   4.466   4.363 -1.3345 -2.1014  1.5042
  138MOL   C15833312   4.896   4.251   4.426  0.1969 -0.6851  0.3409
  138MOL   C15933313   4.763   4.252   4.356  0.4756  0.5268  0.0718
  138MOL   C16033314   4.725   4.404   4.329  0.1095 -0.8236 -0.0833
  138MOL   C16133315   4.648   4.430   4.201  0.3314  0.1587 -0.4546
  138MOL   H16233316   4.911   4.341   4.486 -0.7632 -0.6123  0.4792
  138MOL   H16333317   4.896   4.181   4.509  1.6571  0.6522  1.5017
  138MOL   H16433318   4.765   4.196   4.263  0.5086  1.2291 -0.3561
  138MOL   H16533319   4.816   4.464   4.327 -0.3679 -0.0865  0.4265
  138MOL   H16633320   4.666   4.438   4.414  0.4997 -0.1596 -0.0748
  138MOL   H16733321   4.553   4.376   4.202  1.6590 -2.2813 -1.3496
  138MOL   H16833322   4.640   4.536   4.180  1.7370  0.3497 -0.0526
  138MOL   H16933323   4.704   4.395   4.115 -0.0800  0.3497 -0.8013
  138MOL   C17033324   4.654   4.182   4.441 -0.1262 -0.2339 -0.2033
  138MOL   C17133325   4.655   4.022   4.441  0.8127 -0.2983 -0.3248
  138MOL   C17233326   4.594   3.963   4.317  0.3276  0.1896  0.3997
  138MOL   C17333327   4.600   3.814   4.296  0.6535 -0.0138  0.1798
  138MOL   H17433328   4.555   4.213   4.410  0.0733  1.1314  0.4857
  138MOL   H17533329   4.663   4.214   4.545  2.6779  1.0076 -0.7796
  138MOL   H17633330   4.763   4.004   4.441  0.4378 -2.8146 -2.3593
  138MOL   H17733331   4.632   4.007   4.225 -2.0966  3.1000  0.6912
  138MOL   H17833332   4.489   3.993   4.315  0.1920 -0.3554 -2.3299
  138MOL   H17933333   4.578   3.758   4.387 -1.4004  0.7209  0.1531
  138MOL   H18033334   4.530   3.782   4.219 -2.5056  2.4551  1.9093
  138MOL   H18133335   4.702   3.791   4.263  0.4318  0.7965 -1.0838
  138MOL   C18233336   4.589   3.969   4.570  0.2064 -0.1817  0.4985
  138MOL   C18333337   4.675   3.971   4.698 -0.7483  0.4247 -0.2427
  138MOL   C18433338   4.776   3.848   4.709  0.2443 -0.0665 -0.6584
  138MOL   C18533339   4.891   3.846   4.615  0.8366  0.5171 -0.1671
  138MOL   H18633340   4.553   3.869   4.547 -0.2387  0.0676  0.0806
  138MOL   H18733341   4.489   4.013   4.573  1.0946  1.8304  1.3374
  138MOL   H18833342   4.732   4.064   4.699  0.7998 -0.5032 -0.8602
  138MOL   H18933343   4.719   3.755   4.712 -2.9737  1.8447 -0.4463
  138MOL   H19033344   4.823   3.849   4.807 -0.9082 -2.3882 -0.0456
  138MOL   H19133345   4.867   3.806   4.516  0.0276 -0.5112  0.4240
  138MOL   H19233346   4.942   3.942   4.622  0.5307  0.8743 -2.3889
  138MOL   H19333347   4.965   3.771   4.645  0.5292 -0.2338 -1.2197
  138MOL   C19433348   4.589   3.975   4.831 -0.2389  0.3005  1.4807
  138MOL   C19533349   4.529   4.119   4.849 -0.4389 -0.2102  0.1312
  138MOL   C19633350   4.585   4.185   4.979  0.6697 -0.5227 -0.1803
  138MOL   C19733351   4.721   4.233   4.962  0.1472  0.1528  0.0676
  138MOL   H19833352   4.648   3.949   4.919 -2.0533 -1.2305  2.2745
  138MOL   H19933353   4.518   3.893   4.824  1.0693 -0.6565 -1.2548
  138MOL   H20033354   4.559   4.180   4.763 -1.6752 -0.2482 -0.3385
  138MOL   H20133355   4.576   4.126   5.070 -4.0674  0.3832  0.0790
  138MOL   H20233356   4.524   4.268   5.016 -1.7168 -1.4930 -1.8013
  138MOL   H20333357   4.754   4.279   5.055  0.8299 -0.2365  0.0215
  138MOL   H20433358   4.794   4.156   4.937  0.1995  0.1421  0.2547
  138MOL   H20533359   4.729   4.306   4.881  0.3879 -0.0745 -0.1168
  138MOL   C20633360   4.373   4.115   4.856 -0.1765  0.2093  0.2129
  138MOL   C20733361   4.283   4.240   4.833  0.2411 -0.0601 -0.8344
  138MOL   C20833362   4.137   4.220   4.873 -0.5879  0.7115 -0.1120
  138MOL   C20933363   4.107   4.167   5.018 -0.0431 -0.5409 -0.5772
  138MOL   H21033364   4.346   4.042   4.931  1.3988 -0.6220  0.0081
  138MOL   H21133365   4.365   4.057   4.764  0.2887  1.7136 -0.7996
  138MOL   H21233366   4.322   4.312   4.904 -0.9547 -0.2898  0.0734
  138MOL   H21333367   4.092   4.149   4.804 -2.0953  0.4998  1.0474
  138MOL   H21433368   4.082   4.313   4.862 -1.8571  0.0584  0.5625
  138MOL   H21533369   4.003   4.136   5.012 -0.1981 -0.3801  1.1206
  138MOL   H21633370   4.155   4.076   5.055  0.6401  0.7664  1.8613
  138MOL   H21733371   4.094   4.245   5.093 -2.2943 -1.7214  0.3084
  138MOL   C21833372   4.302   4.297   4.691  0.1213  0.0688 -0.4201
  138MOL   C21933373   4.234   4.439   4.659 -0.3100 -0.2411  0.3222
  138MOL   C22033374   4.255   4.480   4.508 -0.3584  0.4966  0.0265
  138MOL   C22133375   4.221   4.372   4.396  0.5050  0.0022 -0.6951
  138MOL   H22233376   4.260   4.228   4.618 -1.0153  0.2738  0.0306
  138MOL   H22333377   4.408   4.290   4.669  0.4037  0.3143  0.8152
  138MOL   H22433378   4.126   4.446   4.671 -0.0992 -0.7484  2.8785
  138MOL   H22533379   4.359   4.509   4.494  0.0228 -0.9831 -0.2187
  138MOL   H22633380   4.212   4.578   4.485  1.3135  0.9759 -1.1840
  138MOL   H22733381   4.195   4.428   4.306 -0.0383 -0.5799 -0.8992
  138MOL   H22833382   4.307   4.308   4.381  2.1685  2.2851 -1.0579
  138MOL   H22933383   4.127   4.324   4.425  0.1843  1.9157  1.5861
  138MOL   C23033384   4.294   4.553   4.751  0.5175 -0.1434 -0.0677
  138MOL   C23133385   4.448   4.552   4.776 -0.3888  0.0606  0.3896
  138MOL   C23233386   4.512   4.661   4.863 -0.2040 -0.3434  0.0497
  138MOL   C23333387   4.513   4.615   5.010  0.3735 -0.0810  0.3413
  138MOL   H23433388   4.245   4.558   4.848 -1.3207  0.2135 -1.0017
  138MOL   H23533389   4.269   4.649   4.708 -1.7454  0.0468  1.6014
  138MOL   H23633390   4.493   4.458   4.810  1.3037  0.5147 -0.5238
  138MOL   H23733391   4.450   4.751   4.866 -0.7297 -0.7377  2.1748
  138MOL   H23833392   4.615   4.682   4.834  0.0298 -1.4820  0.0546
  138MOL   H23933393   4.418   4.635   5.059 -0.4350  4.0521 -2.6689
  138MOL   H24033394   4.537   4.509   5.019 -0.4238 -0.2846  0.0697
  138MOL   H24133395   4.591   4.661   5.072  0.3720 -1.0187  1.0529
  138MOL   H24233396   4.499   4.567   4.681 -0.1236 -1.9539  0.1797
  139MOL     C133397   5.891   0.284   3.927 -0.6243  0.7350 -0.0731
  139MOL     C233398   5.807   0.298   4.055 -0.5930  0.2769 -0.1561
  139MOL     C333399   5.692   0.197   4.051  0.1333  0.3327  0.0597
  139MOL     C433400   5.619   0.173   4.184 -0.2012 -0.8549  0.7484
  139MOL     H533401   5.916   0.180   3.907 -2.5056 -0.2797  2.4887
  139MOL     H633402   5.841   0.330   3.842 -0.8105 -0.3081 -0.5341
  139MOL     H733403   5.869   0.262   4.137 -2.3050 -3.2058 -0.3398
  139MOL     H833404   5.733   0.101   4.018 -0.1277  0.1901  0.1469
  139MOL     H933405   5.627   0.213   3.965  0.7433  0.8153 -0.3131
  139MOL    H1033406   5.562   0.260   4.217 -0.0190 -0.1246 -0.8153
  139MOL    H1133407   5.548   0.091   4.175  1.2519 -2.0497  0.1366
  139MOL    H1233408   5.690   0.147   4.262 -0.4202 -1.4755  0.7430
  139MOL    H1333409   5.983   0.341   3.939 -2.0038  2.9484  0.2629
  139MOL    C1433410   5.762   0.443   4.067  0.2732 -0.3524 -0.0137
  139MOL    C1533411   5.873   0.544   4.098 -0.5574 -0.3625  0.3649
  139MOL    C1633412   5.845   0.615   4.232  0.9024 -0.7893  0.0347
  139MOL    C1733413   5.861   0.538   4.354 -0.2532 -0.2188  0.1612
  139MOL    H1833414   5.688   0.441   4.146 -0.9603  0.1908 -1.1283
  139MOL    H1933415   5.706   0.471   3.978 -0.9331  1.2087  1.2056
  139MOL    H2033416   5.973   0.503   4.111 -0.1654  0.6320  0.5631
  139MOL    H2133417   5.744   0.656   4.235  2.2896  3.0607 -2.4220
  139MOL    H2233418   5.905   0.706   4.239 -0.6352  0.3831 -1.5609
  139MOL    H2333419   5.808   0.445   4.334 -1.3583  0.2510  0.9017
  139MOL    H2433420   5.963   0.500   4.354  1.0085  2.7724 -2.8222
  139MOL    H2533421   5.829   0.598   4.439  0.5478 -0.5799  0.7238
  139MOL    C2633422   5.888   0.648   3.979  0.5558 -0.4093 -0.1810
  139MOL    C2733423   6.019   0.729   3.971  0.5938  0.0544 -0.4262
  139MOL    C2833424   6.154   0.640   3.971 -0.2458 -1.0189  0.8163
  139MOL    C2933425   6.155   0.522   3.881  0.3801 -0.2773  0.3720
  139MOL    H3033426   5.804   0.717   3.967 -0.3557 -1.5326 -0.3645
  139MOL    H3133427   5.878   0.590   3.887 -0.0902 -0.2921 -0.1909
  139MOL    H3233428   6.019   0.777   3.874 -1.9931  0.6886 -0.1505
  139MOL    H3333429   6.182   0.618   4.074  0.5291 -1.1605  0.5794
  139MOL    H3433430   6.239   0.702   3.944 -0.3594 -1.2217 -0.0186
  139MOL    H3533431   6.227   0.524   3.800  0.2281 -1.2620  0.2139
  139MOL    H3633432   6.180   0.426   3.926  0.9400 -0.3159 -0.0232
  139MOL    H3733433   6.067   0.515   3.817  0.6974 -0.0138 -0.0912
  139MOL    C3833434   6.038   0.836   4.074 -0.5980 -0.5840  0.4216
  139MOL    C3933435   6.123   0.957   4.026  0.2397  0.4977  0.1823
  139MOL    C4033436   6.192   1.017   4.144 -0.0322 -0.1918 -0.4792
  139MOL    C4133437   6.329   0.958   4.151  0.2532  0.2448  0.8122
  139MOL    H4233438   6.078   0.788   4.163  0.3931 -0.6778 -0.0686
  139MOL    H4333439   5.940   0.877   4.099 -0.8207 -0.0891 -1.2549
  139MOL    H4433440   6.198   0.920   3.955  1.2390 -0.0641  1.4901
  139MOL    H4533441   6.142   0.999   4.239  1.8488  0.4427  0.6626
  139MOL    H4633442   6.214   1.124   4.133  3.9875 -0.8651  0.1528
  139MOL    H4733443   6.402   0.972   4.071 -1.9096  0.6452 -1.1322
  139MOL    H4833444   6.380   1.012   4.231  2.4387  1.2628 -1.2048
  139MOL    H4933445   6.337   0.850   4.159  1.1397  0.0186 -2.2814
  139MOL    C5033446   6.046   1.061   3.951  0.3275  0.1281 -0.0246
  139MOL    C5133447   6.125   1.158   3.870 -0.9276 -0.6560  0.0975
  139MOL    C5233448   6.070   1.296   3.905 -0.1330 -0.3027 -0.9753
  139MOL    C5333449   5.929   1.315   3.856 -0.7820  0.1017  0.1076
  139MOL    H5433450   5.969   1.095   4.021 -0.7980 -0.2775 -1.0497
  139MOL    H5533451   5.977   1.005   3.888 -2.2983  0.3112  2.5661
  139MOL    H5633452   6.227   1.156   3.907 -0.2081 -1.0099 -1.8124
  139MOL    H5733453   6.142   1.373   3.876 -0.8838  0.5800 -0.5289
  139MOL    H5833454   6.080   1.310   4.013  1.2728 -1.6936 -0.9195
  139MOL    H5933455   5.902   1.418   3.878 -0.4450 -0.3634  2.8382
  139MOL    H6033456   5.910   1.294   3.750  1.8520 -1.2952 -0.1350
  139MOL    H6133457   5.866   1.242   3.907  1.9915 -3.0060 -0.7116
  139MOL    C6233458   6.131   1.130   3.718  0.3661  0.2152 -0.4776
  139MOL    C6333459   6.231   1.017   3.667 -0.5159  0.5120 -0.3201
  139MOL    C6433460   6.381   1.056   3.681 -0.6596  0.0987  0.2685
  139MOL    C6533461   6.435   1.175   3.608 -0.1716  0.2507 -0.1254
  139MOL    H6633462   6.156   1.222   3.665  0.5564 -0.3735 -1.4134
  139MOL    H6733463   6.032   1.104   3.683 -1.2755  1.6761  2.8600
  139MOL    H6833464   6.226   0.924   3.725  0.2960  0.1189 -0.8657
  139MOL    H6933465   6.439   0.966   3.659  0.5551  0.5283  1.6167
  139MOL    H7033466   6.395   1.054   3.789  0.3033 -1.9096  0.1233
  139MOL    H7133467   6.354   1.246   3.588  0.2932  0.7769 -0.1369
  139MOL    H7233468   6.519   1.224   3.657  0.5295  0.3456 -1.4199
  139MOL    H7333469   6.458   1.136   3.509 -1.0559  1.8209 -0.9676
  139MOL    C7433470   6.201   0.990   3.518 -0.5370  0.7116  0.5101
  139MOL    C7533471   6.123   0.862   3.482  0.7341 -0.3054  0.2974
  139MOL    C7633472   6.172   0.731   3.546 -0.5823 -0.4582  0.2332
  139MOL    C7733473   6.315   0.689   3.495 -0.4589 -0.2570  0.4436
  139MOL    H7833474   6.288   0.987   3.453  1.5633  0.7129  3.2399
  139MOL    H7933475   6.146   1.077   3.482  0.8944  1.6712  0.5898
  139MOL    H8033476   6.031   0.871   3.538  1.4682 -1.5603  1.7279
  139MOL    H8133477   6.107   0.649   3.514 -1.0030  0.4312 -1.2738
  139MOL    H8233478   6.179   0.739   3.654  0.0891  0.7038  0.1081
  139MOL    H8333479   6.306   0.669   3.389 -2.1823  1.2681  0.2813
  139MOL    H8433480   6.391   0.767   3.508 -0.4996  0.0412 -1.0580
  139MOL    H8533481   6.352   0.598   3.543 -0.5902 -0.5488 -0.0057
  139MOL    C8633482   6.082   0.843   3.327 -0.1640 -0.2744 -0.1195
  139MOL    C8733483   5.975   0.935   3.265  0.9592  0.1380 -0.5211
  139MOL    C8833484   5.828   0.905   3.332  0.5070 -0.2373 -0.1365
  139MOL    C8933485   5.711   0.981   3.271 -0.1993 -0.2902 -0.4815
  139MOL    H9033486   6.037   0.744   3.319 -0.9010 -0.0374  0.9237
  139MOL    H9133487   6.174   0.844   3.269  1.1153  3.3652  1.8274
  139MOL    H9233488   5.997   1.035   3.304  0.3878 -0.6114  1.8163
  139MOL    H9333489   5.828   0.939   3.436  0.0589  1.1956 -0.5971
  139MOL    H9433490   5.811   0.798   3.335 -0.0861 -0.1430 -0.0168
  139MOL    H9533491   5.618   0.970   3.327  0.4185  0.0509  0.6388
  139MOL    H9633492   5.728   1.088   3.277  1.6759 -0.5686 -0.4669
  139MOL    H9733493   5.704   0.954   3.166 -2.0624 -1.1586 -0.1640
  139MOL    C9833494   5.975   0.932   3.112 -0.0614 -1.4376  0.5326
  139MOL    C9933495   6.051   1.051   3.046  0.1128 -0.0232 -0.2857
  139MOL   C10033496   6.055   1.051   2.889  0.2637 -0.5568 -0.3003
  139MOL   C10133497   5.920   1.054   2.818 -0.0072 -0.3450 -0.0255
  139MOL   H10233498   5.872   0.951   3.081 -0.5074  1.2202  3.3975
  139MOL   H10333499   6.013   0.842   3.064 -1.5011 -0.5770 -2.3615
  139MOL   H10433500   5.996   1.138   3.079 -1.9597 -1.5366  0.3408
  139MOL   H10533501   6.106   0.962   2.855  1.3924  0.4769 -1.3521
  139MOL   H10633502   6.118   1.130   2.849 -0.1573  0.1532  0.4146
  139MOL   H10733503   5.928   1.099   2.718 -0.0472  0.4226  0.3113
  139MOL   H10833504   5.877   0.954   2.812 -1.9894  0.5187 -0.6724
  139MOL   H10933505   5.848   1.119   2.869 -1.6666 -1.7976 -0.4831
  139MOL   C11033506   6.194   1.076   3.107  0.6491 -0.1886 -0.6382
  139MOL   C11133507   6.255   1.223   3.087 -0.2708  0.2752 -0.5667
  139MOL   C11233508   6.398   1.242   3.128 -0.1604  0.2205  0.0200
  139MOL   C11333509   6.503   1.131   3.088 -0.0826 -0.2554  0.3021
  139MOL   H11433510   6.256   0.992   3.078 -2.3016 -3.1734  1.3998
  139MOL   H11533511   6.190   1.067   3.216 -0.8859  1.9795 -0.4660
  139MOL   H11633512   6.257   1.232   2.979  2.3125 -0.5177 -0.6015
  139MOL   H11733513   6.400   1.267   3.234  0.2103  0.2373  0.0090
  139MOL   H11833514   6.444   1.330   3.083  1.0823  0.2360  1.2826
  139MOL   H11933515   6.604   1.151   3.125 -1.1618  0.1680  3.1922
  139MOL   H12033516   6.491   1.029   3.125  2.0026 -0.0100  1.7690
  139MOL   H12133517   6.512   1.126   2.980 -0.4495 -2.5348  0.3566
  139MOL   C12233518   6.182   1.343   3.157 -0.5120  0.1123  0.4163
  139MOL   C12333519   6.129   1.445   3.060  0.4032 -0.8822 -0.4113
  139MOL   C12433520   6.236   1.547   3.005  0.8497 -0.2697 -0.9294
  139MOL   C12533521   6.313   1.648   3.095 -0.1182  0.4208  0.5191
  139MOL   H12633522   6.237   1.398   3.233 -2.2835  0.3313  1.5667
  139MOL   H12733523   6.106   1.310   3.228 -1.0358  0.6276  0.0923
  139MOL   H12833524   6.088   1.388   2.977  1.0065 -0.4456 -1.0136
  139MOL   H12933525   6.189   1.606   2.926  3.1701  0.2245 -1.9557
  139MOL   H13033526   6.316   1.499   2.950  0.3246 -0.0742 -1.8771
  139MOL   H13133527   6.245   1.678   3.175  1.2256 -1.8033  2.5276
  139MOL   H13233528   6.399   1.606   3.145  0.8825 -0.2611 -1.6971
  139MOL   H13333529   6.339   1.738   3.039 -1.1896 -0.0486 -0.7637
  139MOL   C13433530   6.007   1.523   3.116 -1.0612  0.6926  0.0087
  139MOL   C13533531   5.877   1.435   3.149  0.1209  0.0138 -0.0339
  139MOL   C13633532   5.791   1.410   3.024 -0.2448  0.8170  0.8135
  139MOL   C13733533   5.685   1.294   3.045 -0.1999  0.2613  0.3050
  139MOL   H13833534   5.977   1.616   3.067  0.2792  0.5289 -1.1633
  139MOL   H13933535   6.048   1.563   3.208  3.8680  1.0330 -2.1497
  139MOL   H14033536   5.910   1.337   3.182  2.0912  0.7725  0.3498
  139MOL   H14133537   5.860   1.370   2.950  0.1584 -0.9441  2.0810
  139MOL   H14233538   5.743   1.500   2.986  1.2395  1.5709  0.7107
  139MOL   H14333539   5.654   1.252   2.949  0.9020  0.7500 -0.2686
  139MOL   H14433540   5.731   1.204   3.087 -0.7946 -0.2773 -0.1983
  139MOL   H14533541   5.588   1.321   3.087 -0.6755  1.0375 -1.2658
  139MOL   C14633542   5.796   1.488   3.267  0.5525 -0.0068 -0.1767
  139MOL   C14733543   5.859   1.462   3.404 -0.2292  0.3167  0.0532
  139MOL   C14833544   5.818   1.319   3.450  0.6262  0.4746  0.1409
  139MOL   C14933545   5.671   1.309   3.503  0.4997 -0.4530 -0.4855
  139MOL   H15033546   5.694   1.453   3.257  0.3673  0.7357 -1.0038
  139MOL   H15133547   5.769   1.592   3.248  0.2921  0.5720  3.0265
  139MOL   H15233548   5.967   1.453   3.388  0.0976  2.8719  0.5633
  139MOL   H15333549   5.889   1.299   3.531  0.2392 -0.7347  0.1842
  139MOL   H15433550   5.834   1.244   3.373 -2.3501  0.8508 -0.8904
  139MOL   H15533551   5.596   1.343   3.432 -0.3548 -0.5607  0.3538
  139MOL   H15633552   5.662   1.201   3.520  1.8339 -0.2976  1.3023
  139MOL   H15733553   5.645   1.358   3.596  1.5818  0.6767 -0.7640
  139MOL   C15833554   5.848   1.568   3.513 -0.5414 -0.1389 -0.2256
  139MOL   C15933555   5.959   1.672   3.514 -0.2953  0.3345 -0.1875
  139MOL   C16033556   6.095   1.614   3.565 -0.0528  0.1352 -0.1444
  139MOL   C16133557   6.212   1.679   3.485  0.7334  0.1262 -0.3645
  139MOL   H16233558   5.822   1.525   3.610 -2.5434  3.1564  0.7727
  139MOL   H16333559   5.749   1.611   3.502 -0.9868 -0.5330  1.9534
  139MOL   H16433560   5.972   1.703   3.410 -1.4444  0.0211 -0.4405
  139MOL   H16533561   6.108   1.506   3.557  4.0464  0.5890 -0.5028
  139MOL   H16633562   6.113   1.631   3.671 -2.1540 -0.6063  0.3464
  139MOL   H16733563   6.306   1.649   3.531  1.4642  2.1446 -0.4670
  139MOL   H16833564   6.207   1.644   3.382  3.3091 -2.0584  0.2004
  139MOL   H16933565   6.219   1.787   3.499  1.3670  0.1438 -0.7599
  139MOL   C17033566   5.928   1.798   3.593  0.4183 -0.0389 -0.5691
  139MOL   C17133567   5.830   1.896   3.522  0.9001 -0.9085 -0.7664
  139MOL   C17233568   5.910   1.993   3.430 -0.1445 -0.9447 -0.7445
  139MOL   C17333569   5.828   2.076   3.327  0.4443 -0.1390  0.3506
  139MOL   H17433570   6.022   1.842   3.623  0.0515 -1.3128  2.6345
  139MOL   H17533571   5.898   1.753   3.688 -0.2322 -0.1094 -0.8044
  139MOL   H17633572   5.759   1.843   3.459  1.1107  0.1850 -1.9201
  139MOL   H17733573   6.003   1.956   3.387  0.8051 -0.7265  1.0403
  139MOL   H17833574   5.953   2.064   3.501 -1.6522 -0.0238 -0.7103
  139MOL   H17933575   5.893   2.155   3.288 -1.8203  0.7914 -1.7058
  139MOL   H18033576   5.790   2.020   3.241 -0.3351 -2.0214  1.8986
  139MOL   H18133577   5.744   2.117   3.384 -0.8896  0.2342 -1.8064
  139MOL   C18233578   5.749   1.962   3.638  0.3727  0.0562  0.1249
  139MOL   C18333579   5.627   1.875   3.685  0.3882  0.4873 -0.0002
  139MOL   C18433580   5.511   1.870   3.584 -0.2847 -0.4387  0.7523
  139MOL   C18533581   5.398   1.764   3.605 -0.6862 -0.7088  0.1901
  139MOL   H18633582   5.711   2.060   3.611  0.0575  0.1037  0.7459
  139MOL   H18733583   5.815   1.982   3.722  1.0961  0.1415 -0.4607
  139MOL   H18833584   5.667   1.774   3.702  0.0405 -0.0461 -2.1743
  139MOL   H18933585   5.560   1.856   3.488 -0.9852  3.5766 -0.2906
  139MOL   H19033586   5.470   1.971   3.578  3.0080  1.0515  1.5706
  139MOL   H19133587   5.330   1.781   3.689 -1.9433 -1.0635 -0.7300
  139MOL   H19233588   5.333   1.754   3.518  0.9381 -1.2865 -0.9651
  139MOL   H19333589   5.429   1.661   3.594 -2.9237 -1.3580 -0.4294
  139MOL   C19433590   5.579   1.931   3.822  0.4803 -0.0050  0.3295
  139MOL   C19533591   5.669   1.892   3.945 -0.1992  0.5610 -0.4512
  139MOL   C19633592   5.655   1.745   3.979  0.2043  0.3156  0.6592
  139MOL   C19733593   5.521   1.691   4.027 -0.0878 -0.6219 -1.3584
  139MOL   H19833594   5.478   1.896   3.844  0.2436 -0.4195 -1.3327
  139MOL   H19933595   5.558   2.038   3.816  0.7513  0.0583  0.5446
  139MOL   H20033596   5.769   1.903   3.904  0.8325 -1.0694  1.5786
  139MOL   H20133597   5.727   1.717   4.056  0.4180 -5.2780 -1.3191
  139MOL   H20233598   5.681   1.678   3.896  2.5781  0.1502  1.4995
  139MOL   H20333599   5.472   1.747   4.107 -0.6209 -1.1673 -1.3072
  139MOL   H20433600   5.446   1.703   3.949 -2.0667  0.9394  0.7167
  139MOL   H20533601   5.520   1.585   4.052  0.3847 -0.0374  1.3069
  139MOL   C20633602   5.651   1.984   4.069 -0.2957 -0.6647  0.3745
  139MOL   C20733603   5.721   2.122   4.060 -0.1064 -0.1697  0.9008
  139MOL   C20833604   5.878   2.113   4.046  0.6928  0.2375  0.4432
  139MOL   C20933605   5.946   2.027   4.159  0.2483 -0.1690  0.2341
  139MOL   H21033606   5.691   1.931   4.156 -0.1275 -0.8292  0.1996
  139MOL   H21133607   5.550   1.982   4.108  0.2058  0.3825  1.7479
  139MOL   H21233608   5.694   2.159   3.961 -0.8445 -1.0935  0.7501
  139MOL   H21333609   5.913   2.216   4.047  0.9022  0.1600  1.4243
  139MOL   H21433610   5.903   2.069   3.949  0.6694  0.9361  0.1200
  139MOL   H21533611   5.894   2.039   4.255  0.7137 -1.7767  0.7079
  139MOL   H21633612   5.948   1.920   4.138 -2.0344  0.1287 -1.6430
  139MOL   H21733613   6.052   2.042   4.178 -0.3282  0.7346  2.9958
  139MOL   C21833614   5.670   2.224   4.158 -0.6351 -0.3445 -1.2540
  139MOL   C21933615   5.680   2.379   4.123  0.3046  0.5882 -0.1610
  139MOL   C22033616   5.730   2.461   4.250 -0.4907  0.9742 -0.2116
  139MOL   C22133617   5.878   2.441   4.286  0.2799  0.0807 -0.1877
  139MOL   H22233618   5.720   2.199   4.252 -0.6512 -2.4659 -1.7956
  139MOL   H22333619   5.563   2.211   4.172 -0.3477 -2.6337 -1.0562
  139MOL   H22433620   5.751   2.400   4.043 -0.3560 -0.7545 -1.1333
  139MOL   H22533621   5.657   2.457   4.331 -0.3858  0.8725 -0.1221
  139MOL   H22633622   5.724   2.567   4.227 -0.6773  0.9593 -0.2327
  139MOL   H22733623   5.904   2.336   4.297  0.0806  0.0691  0.2038
  139MOL   H22833624   5.934   2.507   4.221  1.2992 -0.9738 -0.3833
  139MOL   H22933625   5.890   2.488   4.384 -1.0137 -1.1846  0.6074
  139MOL   C23033626   5.554   2.439   4.064  0.4472 -0.1367  0.4379
  139MOL   C23133627   5.519   2.369   3.929 -0.5748 -0.1209  0.3270
  139MOL   C23233628   5.457   2.477   3.830 -0.2663 -0.6288  0.0074
  139MOL   C23333629   5.439   2.416   3.691  0.3397 -0.4574 -0.6369
  139MOL   H23433630   5.563   2.542   4.030  1.8862 -1.2757 -2.7664
  139MOL   H23533631   5.474   2.448   4.139 -2.0038  1.1231 -2.2292
  139MOL   H23633632   5.605   2.333   3.874 -0.4286  0.3377  0.2558
  139MOL   H23733633   5.528   2.557   3.807 -0.3526 -0.3906  0.5713
  139MOL   H23833634   5.371   2.531   3.869  0.1687  0.8047 -0.9759
  139MOL   H23933635   5.369   2.479   3.637  1.4406  0.5846 -0.8620
  139MOL   H24033636   5.533   2.411   3.636  0.8181 -0.0794  0.1317
  139MOL   H24133637   5.390   2.319   3.702 -0.7338 -0.0206 -1.4358
  139MOL   H24233638   5.443   2.291   3.938  0.7743 -1.5479 -0.5221
  140MOL     C133639   3.998   3.622   6.227  0.5184 -0.0558 -0.2099
  140MOL     C233640   4.079   3.696   6.126  0.4615 -0.3590  0.5762
  140MOL     C333641   4.195   3.613   6.081  0.3120 -0.0278 -0.0269
  140MOL     C433642   4.292   3.684   5.975  0.0749 -0.0909  0.4351
  140MOL     H533643   4.055   3.603   6.317  0.2684  0.7506  0.1199
  140MOL     H633644   3.904   3.662   6.265  0.0978 -1.3864  0.1886
  140MOL     H733645   4.011   3.725   6.045  1.2105  2.4201  0.8830
  140MOL     H833646   4.154   3.524   6.033  1.4621 -1.2442  1.2215
  140MOL     H933647   4.257   3.584   6.165  1.5869 -1.5335 -1.4609
  140MOL    H1033648   4.362   3.610   5.934 -0.6043 -2.8080  3.9995
  140MOL    H1133649   4.240   3.721   5.887  1.3959 -0.6264 -0.5969
  140MOL    H1233650   4.348   3.774   6.000 -3.5331  3.0114 -2.0461
  140MOL    H1333651   3.977   3.527   6.176  0.6090 -0.8542  1.2119
  140MOL    C1433652   4.123   3.833   6.188  0.2196 -0.0338  0.2655
  140MOL    C1533653   4.015   3.937   6.212 -0.8009 -0.1611 -0.0646
  140MOL    C1633654   3.954   3.999   6.079 -0.2342 -0.4771 -0.2888
  140MOL    C1733655   3.801   3.984   6.083 -1.5272 -0.0075 -0.0859
  140MOL    H1833656   4.181   3.885   6.112 -2.7054  0.4539 -1.7175
  140MOL    H1933657   4.180   3.817   6.280  2.0277 -1.1171 -1.0165
  140MOL    H2033658   3.930   3.895   6.265 -1.8664  1.4052 -0.4989
  140MOL    H2133659   3.996   3.942   5.996 -0.5202 -0.4111 -0.4802
  140MOL    H2233660   3.971   4.103   6.050 -3.5792 -0.0670 -0.9560
  140MOL    H2333661   3.758   3.887   6.107 -1.0841 -0.3058 -0.4866
  140MOL    H2433662   3.766   4.062   6.151  1.7571 -0.3393  2.0564
  140MOL    H2533663   3.758   4.004   5.985 -0.9757 -0.9384 -0.5275
  140MOL    C2633664   4.094   4.054   6.284  0.4783 -0.5869 -0.3727
  140MOL    C2733665   3.996   4.155   6.346  0.1080  0.4344 -0.3201
  140MOL    C2833666   4.037   4.301   6.322  0.2720  1.0139 -0.2243
  140MOL    C2933667   4.163   4.346   6.401 -0.2951  0.4734 -0.0299
  140MOL    H3033668   4.156   4.114   6.217  0.9028  2.5212  2.6804
  140MOL    H3133669   4.167   4.023   6.360  0.5989  0.4604 -0.0548
  140MOL    H3233670   3.911   4.162   6.277 -0.1371 -0.6789 -0.1381
  140MOL    H3333671   3.953   4.367   6.345 -0.0166  0.7363 -0.4801
  140MOL    H3433672   4.054   4.327   6.217 -0.1151 -0.6730 -0.7139
  140MOL    H3533673   4.191   4.438   6.350  0.5395 -0.7053 -1.7513
  140MOL    H3633674   4.143   4.362   6.507  0.5606  0.5228  0.1333
  140MOL    H3733675   4.242   4.273   6.382 -1.9465 -1.1206 -0.9117
  140MOL    C3833676   3.940   4.126   6.494  0.8301 -0.9879  0.0113
  140MOL    C3933677   3.795   4.065   6.497  0.0287 -0.1378 -0.2851
  140MOL    C4033678   3.689   4.171   6.467  0.3128 -0.0321 -0.0537
  140MOL    C4133679   3.548   4.104   6.427 -0.1865 -0.2369 -0.2308
  140MOL    H4233680   3.947   4.208   6.565 -1.0642 -0.3613 -0.5177
  140MOL    H4333681   4.016   4.063   6.540  2.3405  0.4942 -0.4242
  140MOL    H4433682   3.794   3.974   6.437 -1.2273  0.1719 -0.7430
  140MOL    H4533683   3.726   4.225   6.380 -1.0528  1.3775  0.2238
  140MOL    H4633684   3.678   4.246   6.546 -1.1861  0.7192 -0.9502
  140MOL    H4733685   3.552   4.016   6.361  3.0150  1.4412 -2.4166
  140MOL    H4833686   3.480   4.073   6.506  0.3854 -0.3822  0.2084
  140MOL    H4933687   3.494   4.179   6.369 -4.0161 -2.0017  0.9093
  140MOL    C5033688   3.773   4.015   6.642  0.7077 -0.3063 -0.8305
  140MOL    C5133689   3.876   3.919   6.689  0.0034 -0.1941  0.1379
  140MOL    C5233690   3.806   3.802   6.758  0.0050 -0.2324 -0.0060
  140MOL    C5333691   3.766   3.692   6.655 -0.0176 -0.2509  0.4838
  140MOL    H5433692   3.677   3.965   6.631  1.6191 -2.1553 -0.6273
  140MOL    H5533693   3.782   4.101   6.709  0.9115 -1.9623  1.3190
  140MOL    H5633694   3.937   3.888   6.603  0.5331  1.9899 -0.3091
  140MOL    H5733695   3.714   3.840   6.803  0.5342 -0.0644  0.9500
  140MOL    H5833696   3.864   3.752   6.836 -0.5629 -1.9294 -0.6424
  140MOL    H5933697   3.714   3.615   6.710  0.9890 -0.2571  1.4591
  140MOL    H6033698   3.693   3.728   6.583  0.2087 -0.9492 -0.0943
  140MOL    H6133699   3.852   3.646   6.607 -1.0984  0.6170 -2.3715
  140MOL    C6233700   3.981   3.977   6.791 -0.0707 -0.0863  0.4211
  140MOL    C6333701   4.100   3.885   6.838  0.1983  0.2936  0.2736
  140MOL    C6433702   4.205   3.970   6.910  0.2145 -0.3681 -0.3745
  140MOL    C6533703   4.148   4.059   7.020  0.3889  0.2764 -0.3079
  140MOL    H6633704   3.927   4.015   6.878 -1.8299  1.2879 -1.2383
  140MOL    H6733705   4.028   4.069   6.755 -0.8795 -0.2366 -1.0086
  140MOL    H6833706   4.066   3.818   6.917  0.3139 -0.2836 -0.1693
  140MOL    H6933707   4.245   4.038   6.834  2.2042 -1.5395 -0.4246
  140MOL    H7033708   4.294   3.917   6.946 -0.2819 -0.3922  0.8343
  140MOL    H7133709   4.088   4.004   7.092  1.8676 -0.9759 -0.0061
  140MOL    H7233710   4.232   4.096   7.079  2.1672 -0.1539 -2.4991
  140MOL    H7333711   4.088   4.143   6.984 -1.5906 -0.5959  0.8475
  140MOL    C7433712   4.158   3.811   6.717 -0.1306  0.2207 -0.0184
  140MOL    C7533713   4.272   3.713   6.743 -0.1159  0.0891  0.3218
  140MOL    C7633714   4.359   3.697   6.615 -0.3846  0.1554 -0.0061
  140MOL    C7733715   4.303   3.622   6.500 -0.0038  0.4835  0.3828
  140MOL    H7833716   4.194   3.889   6.650  0.6768 -0.3446 -0.2534
  140MOL    H7933717   4.078   3.764   6.660 -1.8362  1.2791  1.4471
  140MOL    H8033718   4.347   3.757   6.808 -0.9890 -0.2198  1.5584
  140MOL    H8133719   4.447   3.643   6.651  1.5846  2.7147 -0.8156
  140MOL    H8233720   4.397   3.797   6.592  2.0943 -0.6354  0.4584
  140MOL    H8333721   4.286   3.516   6.518 -1.3007  0.5794 -0.2228
  140MOL    H8433722   4.209   3.669   6.472 -0.2113  0.7234  1.4644
  140MOL    H8533723   4.362   3.623   6.409 -0.9859  1.4263 -0.2508
  140MOL    C8633724   4.220   3.571   6.798 -0.3834  0.6506  0.5963
  140MOL    C8733725   4.329   3.469   6.845  0.4026  0.0013 -0.6394
  140MOL    C8833726   4.282   3.327   6.855  0.5388 -0.0815 -0.0425
  140MOL    C8933727   4.209   3.278   6.982  0.0493 -0.1100  0.4861
  140MOL    H9033728   4.148   3.529   6.729  0.0755 -1.5560  1.4262
  140MOL    H9133729   4.167   3.594   6.890 -2.9588  0.4384 -0.7768
  140MOL    H9233730   4.390   3.464   6.755  2.3600  0.2292  0.6319
  140MOL    H9333731   4.364   3.259   6.833  0.7487 -0.1506  0.9351
  140MOL    H9433732   4.213   3.301   6.774  0.5839 -0.6761  0.1032
  140MOL    H9533733   4.278   3.288   7.066  0.4440  0.2137  0.1221
  140MOL    H9633734   4.131   3.342   7.022 -1.2200 -0.7853 -0.8942
  140MOL    H9733735   4.179   3.173   6.977  1.1881 -0.5114  1.5669
  140MOL    C9833736   4.408   3.519   6.970 -0.6915 -0.1118 -0.3378
  140MOL    C9933737   4.564   3.461   6.980 -0.3169 -0.1119  0.1181
  140MOL   C10033738   4.633   3.492   7.112 -0.0075 -0.8375  0.5581
  140MOL   C10133739   4.556   3.428   7.231  0.1113  0.2773  0.2481
  140MOL   H10233740   4.351   3.503   7.061  0.3090  2.1500  0.7299
  140MOL   H10333741   4.403   3.628   6.977 -2.3336 -0.1955 -0.0603
  140MOL   H10433742   4.552   3.354   6.968 -2.6640  0.1019  0.3123
  140MOL   H10533743   4.636   3.601   7.115  0.7490 -0.8904  2.1202
  140MOL   H10633744   4.735   3.454   7.111  0.9031  1.3323 -3.4986
  140MOL   H10733745   4.541   3.320   7.225 -0.9149  0.2872  2.1477
  140MOL   H10833746   4.608   3.445   7.325  0.1609 -1.6565  0.5903
  140MOL   H10933747   4.463   3.481   7.256  1.1867  2.1085  0.4484
  140MOL   C11033748   4.645   3.514   6.857  0.0929  0.2385  0.3495
  140MOL   C11133749   4.789   3.447   6.835 -0.1547 -0.5301 -0.5094
  140MOL   C11233750   4.896   3.556   6.792  0.0319  0.1100  0.2216
  140MOL   C11333751   4.889   3.607   6.642 -0.2354 -0.2410 -0.5523
  140MOL   H11433752   4.660   3.618   6.886  0.5999 -0.4943  2.8516
  140MOL   H11533753   4.596   3.507   6.760 -0.1241 -1.7979  0.6034
  140MOL   H11633754   4.830   3.410   6.929 -1.1844  2.1149  1.0583
  140MOL   H11733755   4.999   3.530   6.814  1.8135  3.6328 -3.4036
  140MOL   H11833756   4.880   3.652   6.839 -0.7916  1.0895 -1.9627
  140MOL   H11933757   4.905   3.521   6.578 -0.0070 -1.0600  0.5791
  140MOL   H12033758   4.792   3.648   6.614 -0.2956  0.8763  1.1946
  140MOL   H12133759   4.972   3.675   6.623 -1.0251  0.1945 -2.5675
  140MOL   C12233760   4.781   3.326   6.746  0.3665 -0.2322  0.1359
  140MOL   C12333761   4.895   3.219   6.739  0.8094  0.5468  0.0671
  140MOL   C12433762   5.024   3.263   6.673 -0.1725 -0.4957  0.3080
  140MOL   C12533763   5.140   3.158   6.677  0.5979 -0.4072 -0.8497
  140MOL   H12633764   4.765   3.358   6.642 -0.2222 -3.8420 -0.9345
  140MOL   H12733765   4.688   3.275   6.770 -1.4615  1.9008 -2.0500
  140MOL   H12833766   4.916   3.197   6.844 -2.8667 -1.6939  0.4092
  140MOL   H12933767   5.058   3.357   6.716 -3.1009  1.1161 -0.7486
  140MOL   H13033768   5.000   3.285   6.569  2.4391  2.0202  0.2024
  140MOL   H13133769   5.117   3.058   6.639  1.9505 -1.1704  0.3093
  140MOL   H13233770   5.222   3.201   6.620  0.9658  0.5818  0.4263
  140MOL   H13333771   5.152   3.135   6.783 -1.9043 -1.4654 -0.7536
  140MOL   C13433772   4.832   3.098   6.666 -0.4399 -0.4394 -0.8280
  140MOL   C13533773   4.781   2.989   6.767 -0.3493  0.3881 -0.5082
  140MOL   C13633774   4.900   2.904   6.818  0.3007 -0.6561 -0.3590
  140MOL   C13733775   4.865   2.805   6.924  0.1764 -0.0485 -0.5212
  140MOL   H13833776   4.906   3.045   6.606 -1.3786 -1.9343 -0.6947
  140MOL   H13933777   4.753   3.134   6.600  0.4523  0.3433 -1.4824
  140MOL   H14033778   4.739   3.036   6.856  0.9391 -0.1900  0.4261
  140MOL   H14133779   4.965   2.982   6.857 -1.4203 -0.3541  2.0010
  140MOL   H14233780   4.953   2.862   6.732 -0.5871  0.2171 -1.3445
  140MOL   H14333781   4.812   2.716   6.891  0.6210 -0.7609  0.6706
  140MOL   H14433782   4.958   2.763   6.961 -0.1650  1.5516  2.3041
  140MOL   H14533783   4.809   2.839   7.012 -0.4629  0.3776 -1.0794
  140MOL   C14633784   4.673   2.901   6.704 -0.3040 -0.5114 -0.6498
  140MOL   C14733785   4.538   2.979   6.692  0.1868 -0.6996  0.7811
  140MOL   C14833786   4.449   2.937   6.812  0.6501  0.2843  0.1399
  140MOL   C14933787   4.509   2.958   6.955 -0.2837 -0.4130 -0.4085
  140MOL   H15033788   4.654   2.820   6.774 -0.2635 -1.3492 -1.5870
  140MOL   H15133789   4.710   2.871   6.606  0.3085  1.1354 -0.9330
  140MOL   H15233790   4.571   3.082   6.706  0.0444 -0.4523 -0.6371
  140MOL   H15333791   4.413   2.834   6.808 -0.5436  0.6863  0.3573
  140MOL   H15433792   4.357   2.995   6.809 -1.0492 -2.0340  3.4682
  140MOL   H15533793   4.530   3.062   6.983  1.4444 -0.7524 -0.3564
  140MOL   H15633794   4.433   2.933   7.029  2.0159 -2.3543  1.3995
  140MOL   H15733795   4.597   2.898   6.979 -0.7845 -0.6711  0.8181
  140MOL   C15833796   4.461   2.951   6.565 -0.4838  0.3901 -0.0572
  140MOL   C15933797   4.496   3.034   6.433 -0.2185 -0.1352  0.2048
  140MOL   C16033798   4.446   3.183   6.452  0.3839 -0.2721 -0.1675
  140MOL   C16133799   4.490   3.277   6.339  0.1191  0.6049 -0.7712
  140MOL   H16233800   4.356   2.973   6.584  0.2429  2.7776  1.4768
  140MOL   H16333801   4.478   2.845   6.545  0.7923  0.4969  0.4181
  140MOL   H16433802   4.603   3.032   6.412  0.2786  0.5964  2.4859
  140MOL   H16533803   4.482   3.217   6.549  1.3726 -0.9273 -0.2993
  140MOL   H16633804   4.338   3.190   6.466  0.7944  1.8255  2.4205
  140MOL   H16733805   4.592   3.274   6.300  0.5693 -0.8433  0.5116
  140MOL   H16833806   4.428   3.254   6.253  1.3752 -1.3226 -1.1921
  140MOL   H16933807   4.471   3.380   6.369  1.6751  0.8530 -0.5824
  140MOL   C17033808   4.423   2.968   6.315  0.0614  0.5055  0.3039
  140MOL   C17133809   4.500   2.994   6.184 -0.5497 -0.3316 -0.1272
  140MOL   C17233810   4.400   3.028   6.063  0.3055  0.1730  0.5195
  140MOL   C17333811   4.300   2.903   6.044  0.2522  0.2716 -0.0212
  140MOL   H17433812   4.322   3.010   6.302 -0.3455  0.1557  2.1751
  140MOL   H17533813   4.398   2.863   6.324  1.6250  0.1574  0.6523
  140MOL   H17633814   4.568   3.078   6.200  2.4785 -2.3565 -1.6608
  140MOL   H17733815   4.452   3.049   5.970 -1.0061  4.3279  0.6567
  140MOL   H17833816   4.347   3.117   6.095  1.9105  1.1874  0.3746
  140MOL   H17933817   4.211   2.932   5.988 -0.5202 -0.0104  1.0492
  140MOL   H18033818   4.346   2.816   5.997  2.7630  0.4960  1.9116
  140MOL   H18133819   4.259   2.860   6.136 -0.4181  3.0659  1.0434
  140MOL   C18233820   4.591   2.870   6.149 -0.1029  0.1574  0.3261
  140MOL   C18333821   4.742   2.895   6.171  0.7227  0.6094 -0.7522
  140MOL   C18433822   4.791   2.992   6.066  0.5699  0.5201  0.2163
  140MOL   C18533823   4.938   3.045   6.085  0.8141 -0.0945 -0.0087
  140MOL   H18633824   4.583   2.854   6.041  2.5294 -0.8755  0.2241
  140MOL   H18733825   4.554   2.777   6.192 -1.4348  0.4897 -0.0908
  140MOL   H18833826   4.760   2.953   6.261  2.7948 -0.1521 -0.6452
  140MOL   H18933827   4.722   3.074   6.046 -0.5559 -0.7936 -1.3623
  140MOL   H19033828   4.793   2.936   5.973  1.0495  0.4836  0.2475
  140MOL   H19133829   4.966   3.088   6.181 -2.7423 -2.0052  1.9659
  140MOL   H19233830   5.016   2.971   6.065 -0.0938 -1.3888  1.2014
  140MOL   H19333831   4.949   3.116   6.003 -0.7502 -0.1591 -0.2819
  140MOL   C19433832   4.815   2.757   6.158  0.3397  0.4062 -0.4555
  140MOL   C19533833   4.811   2.668   6.282 -0.4581  0.1895 -0.3675
  140MOL   C19633834   4.877   2.742   6.404 -0.2089 -0.0799  0.5130
  140MOL   C19733835   5.021   2.780   6.364  0.4724  0.6265 -1.0403
  140MOL   H19833836   4.913   2.767   6.111 -0.0134  3.3975 -0.6424
  140MOL   H19933837   4.761   2.699   6.082  0.8097 -1.1081  0.3542
  140MOL   H20033838   4.706   2.660   6.308 -0.0440  2.6730  2.3544
  140MOL   H20133839   4.875   2.690   6.499 -1.3013 -0.0002  0.5486
  140MOL   H20233840   4.820   2.834   6.420  0.0939 -0.1137  1.8106
  140MOL   H20333841   5.060   2.713   6.288 -0.6636 -0.5327 -0.6107
  140MOL   H20433842   5.022   2.878   6.316 -0.5187  0.7865 -0.7538
  140MOL   H20533843   5.088   2.787   6.450 -1.2257 -1.6861  0.5339
  140MOL   C20633844   4.874   2.521   6.260 -0.5371 -0.6118 -0.5611
  140MOL   C20733845   4.889   2.420   6.375  0.2982 -0.0012 -0.6247
  140MOL   C20833846   4.944   2.282   6.314  0.5645 -1.4543 -0.0915
  140MOL   C20933847   5.090   2.289   6.264  0.1094 -0.8393 -0.4779
  140MOL   H21033848   4.961   2.519   6.195 -0.9761 -0.6852 -1.1416
  140MOL   H21133849   4.797   2.475   6.199 -0.1073  0.2744 -1.7775
  140MOL   H21233850   4.961   2.445   6.454  1.6044 -1.6670 -1.2484
  140MOL   H21333851   4.888   2.238   6.231 -0.0345 -0.2433 -0.3403
  140MOL   H21433852   4.935   2.217   6.401  0.0015  2.7239  3.1297
  140MOL   H21533853   5.139   2.369   6.319  0.6396 -1.3843 -0.1534
  140MOL   H21633854   5.151   2.202   6.287 -0.4179 -0.6080  1.9670
  140MOL   H21733855   5.090   2.310   6.157  0.2154 -1.7295 -0.6566
  140MOL   C21833856   4.752   2.386   6.441  0.4404  0.6728 -0.0421
  140MOL   C21933857   4.762   2.309   6.576  0.2553  0.3897 -0.3639
  140MOL   C22033858   4.619   2.275   6.618  0.1412  0.0016 -0.1806
  140MOL   C22133859   4.539   2.165   6.536 -0.2865  0.3132 -0.7311
  140MOL   H22233860   4.697   2.323   6.372 -0.1311 -0.0685  1.0784
  140MOL   H22333861   4.706   2.483   6.458 -0.2267  0.1663  1.1765
  140MOL   H22433862   4.813   2.214   6.562 -1.2011 -0.0963 -2.5807
  140MOL   H22533863   4.556   2.363   6.633  2.3450  1.6869 -0.7502
  140MOL   H22633864   4.627   2.224   6.714 -0.8908 -0.0922 -0.1327
  140MOL   H22733865   4.604   2.082   6.508  0.8924  1.7667 -2.4378
  140MOL   H22833866   4.442   2.134   6.574 -0.8130  0.6047 -1.7965
  140MOL   H22933867   4.502   2.214   6.445 -0.8830  1.0286 -0.1137
  140MOL   C23033868   4.843   2.384   6.681 -0.0009 -0.0812 -0.1043
  140MOL   C23133869   4.883   2.286   6.794  0.1756  0.0015  1.0775
  140MOL   C23233870   4.973   2.353   6.908 -0.5251  0.1371  0.1971
  140MOL   C23333871   5.116   2.375   6.860 -0.0728  0.0837  0.2795
  140MOL   H23433872   4.785   2.465   6.727  2.1348  2.0915 -1.1016
  140MOL   H23533873   4.933   2.434   6.645  0.2346  0.0897  0.7128
  140MOL   H23633874   4.795   2.247   6.845 -0.4191 -1.6531 -1.1556
  140MOL   H23733875   4.962   2.292   6.997  2.3076 -1.0637 -0.2419
  140MOL   H23833876   4.928   2.449   6.934  0.2599  0.7814 -0.7585
  140MOL   H23933877   5.130   2.421   6.762  0.9946 -2.3129 -0.7327
  140MOL   H24033878   5.177   2.436   6.926 -0.5031  2.2767 -1.2874
  140MOL   H24133879   5.167   2.279   6.855  1.0636  0.6852  0.3085
  140MOL   H24233880   4.943   2.210   6.743  0.2082  1.2797 -0.8747
  141MOL     C133881   2.841   0.595   5.924  0.1105 -0.1525  0.3193
  141MOL     C233882   2.776   0.567   5.785 -0.1693  0.4900  0.2017
  141MOL     C333883   2.619   0.548   5.784  0.1048 -1.2155 -0.1368
  141MOL     C433884   2.533   0.662   5.831 -0.4114  0.5427  0.5451
  141MOL     H533885   2.944   0.622   5.901  0.0042  1.3013  1.4575
  141MOL     H633886   2.803   0.669   5.995  1.3291 -0.5418  1.4040
  141MOL     H733887   2.801   0.658   5.730  1.7170  0.2440  0.6035
  141MOL     H833888   2.601   0.472   5.859 -3.6222  0.0458  0.3510
  141MOL     H933889   2.575   0.513   5.690 -0.7785  2.0621 -1.0371
  141MOL    H1033890   2.560   0.682   5.935  2.2411 -1.2659  0.2668
  141MOL    H1133891   2.549   0.758   5.782  1.7793  0.8254  1.7718
  141MOL    H1233892   2.425   0.647   5.827 -0.8709  3.5065  0.5680
  141MOL    H1333893   2.843   0.504   5.983 -0.8625 -0.6112 -0.3245
  141MOL    C1433894   2.849   0.449   5.721 -0.4768 -0.1494  0.1274
  141MOL    C1533895   2.820   0.421   5.569  0.3827  0.2668  0.3300
  141MOL    C1633896   2.906   0.299   5.526 -0.0512  0.0354 -0.7005
  141MOL    C1733897   2.844   0.220   5.419  0.3309  0.7170  0.2342
  141MOL    H1833898   2.832   0.364   5.786  0.6641 -0.3803  0.1397
  141MOL    H1933899   2.957   0.465   5.719 -0.7914  2.2737  0.1885
  141MOL    H2033900   2.716   0.389   5.572  0.4959 -0.1418 -0.0479
  141MOL    H2133901   2.915   0.234   5.614  1.3633  3.1257  1.5242
  141MOL    H2233902   3.005   0.337   5.502 -0.5090  3.0187  1.9097
  141MOL    H2333903   2.747   0.174   5.439  0.6117 -0.3679 -0.8369
  141MOL    H2433904   2.852   0.288   5.335  0.4124 -1.3262 -1.4529
  141MOL    H2533905   2.912   0.134   5.417 -0.0423  0.4150  0.4207
  141MOL    C2633906   2.828   0.541   5.473 -0.2677 -0.2237 -0.6024
  141MOL    C2733907   2.701   0.624   5.441 -0.2400  0.1041  0.0185
  141MOL    C2833908   2.617   0.543   5.337  0.0682  0.2818 -0.2168
  141MOL    C2933909   2.470   0.553   5.353 -0.0036  0.0039 -0.5011
  141MOL    H3033910   2.876   0.523   5.377  1.3384  2.1016 -0.2534
  141MOL    H3133911   2.907   0.597   5.523 -1.3230 -0.6321  1.6058
  141MOL    H3233912   2.640   0.647   5.528 -1.7842 -0.1234 -0.9788
  141MOL    H3333913   2.635   0.438   5.358  1.3803  0.8380  1.5050
  141MOL    H3433914   2.655   0.568   5.238 -0.8473  2.7053 -0.0127
  141MOL    H3533915   2.422   0.477   5.292 -0.1262 -0.0328 -0.3597
  141MOL    H3633916   2.427   0.554   5.453  1.2450  0.5167  0.0441
  141MOL    H3733917   2.436   0.648   5.311 -0.2394  0.9057  1.6508
  141MOL    C3833918   2.746   0.764   5.390 -0.2758 -0.2894  0.2317
  141MOL    C3933919   2.638   0.871   5.365 -0.5247 -0.2531 -0.8186
  141MOL    C4033920   2.691   0.983   5.277 -0.2306  0.6101  0.0695
  141MOL    C4133921   2.820   1.056   5.315 -0.0684 -0.6565 -0.1126
  141MOL    H4233922   2.818   0.750   5.309 -0.2598  0.4522  0.1143
  141MOL    H4333923   2.815   0.806   5.464  1.8602 -0.0944 -1.7841
  141MOL    H4433924   2.560   0.823   5.307  0.7647 -1.8775 -1.2454
  141MOL    H4533925   2.614   1.059   5.263  0.4081  1.6734  2.0466
  141MOL    H4633926   2.702   0.941   5.177  1.4301  0.9268  0.1064
  141MOL    H4733927   2.866   1.107   5.230  0.6029 -1.2210 -0.0986
  141MOL    H4833928   2.806   1.125   5.398 -0.3800 -1.3248  0.3919
  141MOL    H4933929   2.901   0.988   5.341  1.2773  0.2804 -1.6923
  141MOL    C5033930   2.570   0.924   5.499 -0.1015 -0.3548  0.3586
  141MOL    C5133931   2.424   0.982   5.495  0.2381  0.5102  0.2718
  141MOL    C5233932   2.424   1.110   5.577 -0.0742  0.0458  0.0317
  141MOL    C5333933   2.499   1.233   5.509 -0.2382  0.4981 -0.7212
  141MOL    H5433934   2.632   0.997   5.551 -1.5426  0.2421  1.2693
  141MOL    H5533935   2.556   0.830   5.553 -0.3816 -1.3091 -1.3345
  141MOL    H5633936   2.414   1.009   5.390  0.2340  1.8336  0.6013
  141MOL    H5733937   2.477   1.087   5.670  0.1912 -3.2743 -0.8737
  141MOL    H5833938   2.322   1.146   5.590  0.6306  2.5472 -1.0938
  141MOL    H5933939   2.545   1.296   5.585 -1.8439  2.2244 -1.1294
  141MOL    H6033940   2.578   1.190   5.448  2.0077  0.6365  2.0139
  141MOL    H6133941   2.441   1.309   5.456 -0.8554  1.2583  1.0302
  141MOL    C6233942   2.311   0.890   5.538  1.2170  0.2907 -0.0794
  141MOL    C6333943   2.163   0.941   5.493 -0.0125  0.0618 -1.1737
  141MOL    C6433944   2.060   0.923   5.603  0.2677 -0.1125  0.0531
  141MOL    C6533945   2.072   1.020   5.720  0.1192 -0.8641  0.0143
  141MOL    H6633946   2.317   0.855   5.641  1.0571 -1.7440 -0.7245
  141MOL    H6733947   2.327   0.795   5.487 -0.8894  0.5392 -1.2984
  141MOL    H6833948   2.153   1.048   5.476 -0.4300  0.2968  0.4338
  141MOL    H6933949   2.073   0.821   5.641 -0.7193 -0.0180  0.6622
  141MOL    H7033950   1.963   0.933   5.555  0.2984  0.6309  0.1343
  141MOL    H7133951   2.046   0.983   5.819  0.1203  1.7933  1.0642
  141MOL    H7233952   2.168   1.072   5.727 -1.0688  1.3771  0.2092
  141MOL    H7333953   1.998   1.099   5.708  0.2943 -0.9520 -1.7007
  141MOL    C7433954   2.117   0.849   5.376  0.4551 -0.2228  0.3689
  141MOL    C7533955   2.180   0.869   5.239  0.0595  0.1377 -0.3237
  141MOL    C7633956   2.148   1.004   5.182  0.2834 -0.6406  0.2379
  141MOL    C7733957   1.992   1.026   5.156 -0.1011  0.1579  0.0756
  141MOL    H7833958   2.009   0.860   5.361  0.4929  1.1913  0.9980
  141MOL    H7933959   2.136   0.746   5.405  0.8776 -0.0731  0.6220
  141MOL    H8033960   2.288   0.869   5.255 -0.0794 -0.2416  0.6241
  141MOL    H8133961   2.194   1.023   5.085 -1.3800  1.1685 -0.2393
  141MOL    H8233962   2.183   1.078   5.254 -0.7459 -0.6538  0.7570
  141MOL    H8333963   1.975   1.126   5.116  0.3131  0.6639  1.1627
  141MOL    H8433964   1.952   0.954   5.084  1.7149 -0.1090 -0.7106
  141MOL    H8533965   1.932   1.024   5.247 -0.7330  0.5905 -0.3292
  141MOL    C8633966   2.142   0.752   5.143 -0.3976  0.0195  0.0677
  141MOL    C8733967   2.223   0.749   5.011  0.4195  0.2188 -0.1745
  141MOL    C8833968   2.167   0.631   4.925 -0.1718 -1.0111  0.2743
  141MOL    C8933969   2.030   0.659   4.865 -0.2563 -0.3272 -0.3504
  141MOL    H9033970   2.036   0.745   5.119 -0.3219 -2.3946  0.3178
  141MOL    H9133971   2.164   0.659   5.196  0.2620  0.4556  0.5720
  141MOL    H9233972   2.201   0.840   4.955  0.9826  0.8699  0.6686
  141MOL    H9333973   2.165   0.532   4.971  0.2243 -1.1021  0.0905
  141MOL    H9433974   2.237   0.626   4.842 -0.4269 -2.7320  0.1591
  141MOL    H9533975   2.034   0.753   4.809 -1.0517 -0.3185 -0.4115
  141MOL    H9633976   2.001   0.585   4.790 -1.0990 -1.4615  1.0679
  141MOL    H9733977   1.952   0.663   4.941  0.8774  0.0274  0.8015
  141MOL    C9833978   2.375   0.732   5.043  0.2827  0.2752 -0.5422
  141MOL    C9933979   2.473   0.765   4.931  0.8390 -0.1536 -0.4786
  141MOL   C10033980   2.617   0.705   4.956 -0.4736  0.4270  0.9032
  141MOL   C10133981   2.628   0.545   4.946  0.0857  0.4179  0.0890
  141MOL   H10233982   2.385   0.631   5.083  0.3319  1.1614  1.7887
  141MOL   H10333983   2.416   0.796   5.121  1.4761 -3.1267  1.7129
  141MOL   H10433984   2.433   0.721   4.839  0.5475  0.5968 -0.7111
  141MOL   H10533985   2.648   0.726   5.059  3.2541 -1.3312  0.2340
  141MOL   H10633986   2.691   0.763   4.900 -0.9826  0.3592  0.1598
  141MOL   H10733987   2.542   0.487   4.978  1.3728 -1.2740  0.5367
  141MOL   H10833988   2.631   0.520   4.840  0.5409 -0.5967  0.3353
  141MOL   H10933989   2.718   0.499   4.987 -0.1757  1.5093  1.9562
  141MOL   C11033990   2.476   0.918   4.912  0.5274  0.2379  0.5052
  141MOL   C11133991   2.539   0.962   4.777 -0.3292 -0.4305  0.0901
  141MOL   C11233992   2.666   1.052   4.793 -0.0636  1.1516 -0.2687
  141MOL   C11333993   2.772   1.034   4.691 -0.0620 -0.0120  0.8704
  141MOL   H11433994   2.527   0.964   4.996  2.5879 -0.3048 -0.4013
  141MOL   H11533995   2.376   0.961   4.917  0.2811 -0.2840  0.1387
  141MOL   H11633996   2.564   0.872   4.720  0.6088 -1.9416  2.8042
  141MOL   H11733997   2.703   1.034   4.894  2.3549 -1.8835 -1.6028
  141MOL   H11833998   2.632   1.154   4.776  0.1247  0.7667 -3.0719
  141MOL   H11933999   2.828   0.940   4.697  0.0543  0.0979  1.5509
  141MOL   H12034000   2.725   1.031   4.592  2.0511  1.9183 -0.2421
  141MOL   H12134001   2.832   1.125   4.694 -0.1314  0.1296 -1.2943
  141MOL   C12234002   2.429   1.032   4.691 -1.4992 -0.6962 -0.2402
  141MOL   C12334003   2.302   0.946   4.636 -0.1403 -0.3405  0.1198
  141MOL   C12434004   2.337   0.827   4.550  0.6275  0.5171 -0.0945
  141MOL   C12534005   2.224   0.748   4.481 -0.1451  0.1978  0.2828
  141MOL   H12634006   2.479   1.059   4.598 -2.2211 -0.7131 -0.6376
  141MOL   H12734007   2.406   1.119   4.753 -0.9533 -0.1983 -0.7297
  141MOL   H12834008   2.259   0.913   4.731 -2.0760 -2.2007 -1.3713
  141MOL   H12934009   2.402   0.756   4.602  1.0216  0.7677 -0.2490
  141MOL   H13034010   2.392   0.865   4.464 -1.6101  0.9433 -1.3669
  141MOL   H13134011   2.251   0.655   4.430 -1.0249  0.6133 -0.9611
  141MOL   H13234012   2.155   0.711   4.557  0.1617 -2.4389 -0.6579
  141MOL   H13334013   2.164   0.812   4.416  0.0518  0.4106  0.3120
  141MOL   C13434014   2.199   1.029   4.555  0.9047  0.2070  0.4026
  141MOL   C13534015   2.161   1.168   4.604 -0.4439 -0.2944  0.4749
  141MOL   C13634016   2.106   1.177   4.752 -0.1475  0.1752  0.7105
  141MOL   C13734017   1.971   1.099   4.770 -0.5255 -0.2943 -0.2310
  141MOL   H13834018   2.103   0.977   4.550  0.4669  0.7129  3.0609
  141MOL   H13934019   2.241   1.041   4.455  0.4384  1.3092  0.3302
  141MOL   H14034020   2.252   1.228   4.604 -1.1837  0.8607  0.7818
  141MOL   H14134021   2.096   1.276   4.795  1.7147 -0.0617  1.7441
  141MOL   H14234022   2.179   1.129   4.818 -1.4506 -0.7531  1.5125
  141MOL   H14334023   1.926   1.125   4.866  0.3456  1.1301 -0.1781
  141MOL   H14434024   1.899   1.117   4.691 -0.8867 -0.5415  0.0415
  141MOL   H14534025   1.984   0.991   4.775 -0.3686 -0.1795  3.1626
  141MOL   C14634026   2.072   1.250   4.504  0.4965  0.0005 -0.0624
  141MOL   C14734027   2.145   1.362   4.426  0.5281  0.6250 -0.0506
  141MOL   C14834028   2.173   1.484   4.526 -0.6382 -0.7062  0.4839
  141MOL   C14934029   2.054   1.564   4.568  0.8110  0.0871 -0.6064
  141MOL   H15034030   1.995   1.298   4.565  0.8670  1.5888 -0.8160
  141MOL   H15134031   2.025   1.179   4.436  1.7750 -0.9109  0.0053
  141MOL   H15234032   2.246   1.325   4.409  0.6850  0.4359  1.2852
  141MOL   H15334033   2.239   1.556   4.477 -1.0851  0.4067  1.5123
  141MOL   H15434034   2.232   1.445   4.609  1.1350 -0.8747 -0.7977
  141MOL   H15534035   2.002   1.629   4.498 -0.5674 -0.8258 -0.4634
  141MOL   H15634036   1.974   1.508   4.618 -0.1345 -0.3997 -2.5975
  141MOL   H15734037   2.102   1.630   4.640 -0.9891  2.3895 -1.4434
  141MOL   C15834038   2.078   1.404   4.297  1.3082 -0.0496 -0.2303
  141MOL   C15934039   2.075   1.304   4.179 -0.3882  0.1796 -0.0358
  141MOL   C16034040   2.211   1.245   4.158  0.3137 -0.2917  0.7110
  141MOL   C16134041   2.229   1.146   4.045  0.6150 -0.7471 -1.1048
  141MOL   H16234042   2.133   1.494   4.269 -0.7402  1.1084 -0.6354
  141MOL   H16334043   1.980   1.449   4.315  1.6304  0.5302  0.1127
  141MOL   H16434044   2.010   1.218   4.192  0.5552 -0.1946  2.3913
  141MOL   H16534045   2.232   1.183   4.245  0.1202 -2.4041 -0.7165
  141MOL   H16634046   2.285   1.325   4.160 -0.6817  0.6342  1.3120
  141MOL   H16734047   2.147   1.075   4.038 -1.0525  1.1045 -0.7608
  141MOL   H16834048   2.238   1.201   3.951  0.2210  0.6686 -0.3313
  141MOL   H16934049   2.319   1.085   4.053  1.1615  0.1767  0.0421
  141MOL   C17034050   2.038   1.371   4.043  1.0237 -0.9437  0.0392
  141MOL   C17134051   1.891   1.422   4.026  0.3291 -0.4264  0.2418
  141MOL   C17234052   1.795   1.316   3.968  0.5683  0.2852  0.5346
  141MOL   C17334053   1.789   1.306   3.814  0.1969 -0.1299  0.0775
  141MOL   H17434054   2.043   1.293   3.967  0.1517 -0.2687 -0.7239
  141MOL   H17534055   2.106   1.453   4.021 -0.1510 -0.2814 -1.1978
  141MOL   H17634056   1.855   1.441   4.127 -0.5648 -1.2928  0.0951
  141MOL   H17734057   1.692   1.334   3.999 -0.2047 -1.3836 -0.9459
  141MOL   H17834058   1.819   1.219   4.010 -3.6354 -0.5990  1.1981
  141MOL   H17934059   1.886   1.285   3.769 -0.6491  1.0394 -2.3569
  141MOL   H18034060   1.711   1.243   3.771 -0.5137  2.5840 -2.7971
  141MOL   H18134061   1.763   1.404   3.776 -1.6389 -0.0867  1.3717
  141MOL   C18234062   1.901   1.561   3.952  0.0460 -0.0527 -0.1187
  141MOL   C18334063   1.958   1.674   4.036  0.7787 -0.1962 -0.7851
  141MOL   C18434064   1.845   1.723   4.135 -0.0831 -0.2557  0.2321
  141MOL   C18534065   1.698   1.721   4.093 -0.0553  0.0316 -1.1978
  141MOL   H18634066   1.800   1.584   3.919 -0.2515 -0.6264  0.3704
  141MOL   H18734067   1.962   1.547   3.863 -1.0639 -2.9114 -0.4734
  141MOL   H18834068   2.041   1.640   4.097  0.8086 -1.1823 -1.3573
  141MOL   H18934069   1.873   1.827   4.149  0.6450 -0.5045  0.6354
  141MOL   H19034070   1.868   1.672   4.228 -1.4874 -1.1694  0.1067
  141MOL   H19134071   1.654   1.622   4.082 -0.1095 -0.1310  0.3613
  141MOL   H19234072   1.654   1.770   4.179  2.0275  3.0049 -1.7273
  141MOL   H19334073   1.684   1.772   3.997  1.5896 -0.3702 -1.6790
  141MOL   C19434074   2.016   1.787   3.951  0.0843 -0.4331  0.0126
  141MOL   C19534075   2.140   1.761   3.866 -0.1442  0.3423 -0.1022
  141MOL   C19634076   2.262   1.709   3.947 -0.7124  0.3865  1.0031
  141MOL   C19734077   2.308   1.805   4.061  1.0009 -0.6711  0.5507
  141MOL   H19834078   2.028   1.878   4.010  3.6141 -1.1178  0.4746
  141MOL   H19934079   1.930   1.818   3.892 -0.0440  0.3726  0.6107
  141MOL   H20034080   2.107   1.672   3.811  0.0654  1.6215 -2.3591
  141MOL   H20134081   2.351   1.677   3.893 -1.6679 -1.3266  0.4278
  141MOL   H20234082   2.233   1.613   3.989  0.3730 -0.9756 -1.2743
  141MOL   H20334083   2.361   1.894   4.028  0.6935 -0.6780  0.0269
  141MOL   H20434084   2.220   1.833   4.119  1.3059 -0.2477  0.8099
  141MOL   H20534085   2.360   1.742   4.133 -1.1815  0.1374  2.9064
  141MOL   C20634086   2.190   1.865   3.758 -0.1948 -0.5023 -0.3693
  141MOL   C20734087   2.075   1.893   3.657 -0.2639  0.1711  0.1592
  141MOL   C20834088   2.075   1.800   3.536  0.1231 -0.5730  0.0584
  141MOL   C20934089   2.181   1.835   3.433 -0.0917 -0.1216 -0.2362
  141MOL   H21034090   2.278   1.836   3.700 -0.6311 -1.0366 -0.7688
  141MOL   H21134091   2.211   1.953   3.819 -2.1443 -0.5003  0.3115
  141MOL   H21234092   1.982   1.869   3.708  0.2796 -0.0999  1.0286
  141MOL   H21334093   1.976   1.797   3.491  0.5186 -1.4900 -0.7514
  141MOL   H21434094   2.081   1.695   3.561 -1.2981 -1.2749 -2.4180
  141MOL   H21534095   2.192   1.943   3.426  2.1147 -0.1959  1.3558
  141MOL   H21634096   2.279   1.801   3.468  0.5858  3.0885  1.2233
  141MOL   H21734097   2.169   1.800   3.331  0.3007  0.2889 -0.4206
  141MOL   C21834098   2.054   2.047   3.638  0.3605  0.1102  0.3140
  141MOL   C21934099   2.021   2.146   3.757 -0.1040  0.4751  0.2067
  141MOL   C22034100   1.873   2.129   3.785  0.4971  0.0439  0.0551
  141MOL   C22134101   1.839   2.159   3.932  0.2320  1.0496 -0.5838
  141MOL   H22234102   1.987   2.058   3.554  2.6654  1.6968 -1.3891
  141MOL   H22334103   2.146   2.079   3.589  1.2412 -0.6647  1.4284
  141MOL   H22434104   2.076   2.113   3.845  1.6127  1.5900 -0.4097
  141MOL   H22534105   1.852   2.023   3.771 -1.3274  0.6029 -1.6921
  141MOL   H22634106   1.813   2.183   3.712 -0.3410  1.2764  1.6352
  141MOL   H22734107   1.817   2.266   3.937 -0.6733  0.8813 -0.9304
  141MOL   H22834108   1.750   2.100   3.955  1.4449 -1.0700 -1.2389
  141MOL   H22934109   1.919   2.137   4.003  0.9397 -0.1097 -1.7196
  141MOL   C23034110   2.066   2.291   3.732  0.1603 -0.1044  0.1501
  141MOL   C23134111   2.218   2.312   3.724 -1.1719  0.0210  0.7400
  141MOL   C23234112   2.259   2.452   3.753 -0.1974  0.1063 -0.0596
  141MOL   C23334113   2.196   2.565   3.674  0.1374 -0.0671  0.8275
  141MOL   H23434114   2.036   2.344   3.822 -0.4956 -0.6741  0.2680
  141MOL   H23534115   2.014   2.347   3.655 -0.4030 -0.9144 -0.0603
  141MOL   H23634116   2.258   2.245   3.799 -0.1678  0.7619  0.8796
  141MOL   H23734117   2.367   2.468   3.765 -0.2480 -0.3972  1.1188
  141MOL   H23834118   2.230   2.471   3.857  0.6362  0.1566  0.1753
  141MOL   H23934119   2.224   2.544   3.571 -1.5383  1.1518  0.0974
  141MOL   H24034120   2.087   2.574   3.674  0.1356 -0.0894  0.8300
  141MOL   H24134121   2.248   2.659   3.693 -1.2091  0.5373  1.6471
  141MOL   H24234122   2.249   2.277   3.625  2.2602 -1.9346  2.4107
  142MOL     C134123   4.065   4.992   4.260 -0.3907  0.4099 -0.4041
  142MOL     C234124   4.199   4.936   4.314 -0.1158 -0.8358 -0.2766
  142MOL     C334125   4.207   4.779   4.295 -0.1317  0.0790 -0.6199
  142MOL     C434126   4.190   4.730   4.149 -0.5998 -0.7416 -0.6142
  142MOL     H534127   3.986   4.947   4.320 -0.6092  1.4097  0.0599
  142MOL     H634128   4.056   5.100   4.267  0.2495  0.3861  0.7653
  142MOL     H734129   4.272   4.981   4.247  0.7631 -0.4250  0.9561
  142MOL     H834130   4.129   4.733   4.355  3.6637 -2.5588  2.6256
  142MOL     H934131   4.302   4.745   4.336 -0.7760 -0.1558  0.6942
  142MOL    H1034132   4.198   4.621   4.146 -0.0480 -0.7277  0.2797
  142MOL    H1134133   4.093   4.746   4.102 -0.5309  2.4251  0.2301
  142MOL    H1234134   4.264   4.773   4.082 -0.1929 -0.4318  0.0402
  142MOL    H1334135   4.048   4.969   4.154 -1.3000 -1.2594  0.0752
  142MOL    C1434136   4.220   4.985   4.459 -0.3691  0.8337 -0.5298
  142MOL    C1534137   4.362   4.984   4.521  0.6069  0.5815  0.3365
  142MOL    C1634138   4.364   4.988   4.674 -0.0322 -0.1664 -0.1509
  142MOL    C1734139   4.288   5.109   4.724  0.3861 -0.0806  0.1176
  142MOL    H1834140   4.161   4.914   4.517  1.6241 -0.1666  0.2905
  142MOL    H1934141   4.173   5.082   4.477  3.5895  2.6410  0.4008
  142MOL    H2034142   4.401   4.886   4.494 -0.3487  0.0735  0.7742
  142MOL    H2134143   4.461   4.986   4.723 -0.9059  0.5301  1.6290
  142MOL    H2234144   4.306   4.900   4.703 -1.0611  0.7080  0.4677
  142MOL    H2334145   4.187   5.113   4.684  1.3648 -0.8894 -2.5218
  142MOL    H2434146   4.265   5.106   4.830 -0.8686 -1.2460 -0.1772
  142MOL    H2534147   4.338   5.202   4.696  0.3006 -0.2240 -0.5149
  142MOL    C2634148   4.458   5.086   4.454 -0.2145  0.2703 -0.6057
  142MOL    C2734149   4.607   5.065   4.494  0.3535 -0.1448 -0.2565
  142MOL    C2834150   4.696   5.202   4.478  0.2932  0.3641 -0.0500
  142MOL    C2934151   4.670   5.274   4.346  0.2684  0.6684  0.6762
  142MOL    H3034152   4.435   5.188   4.483  3.9652  1.6255 -1.6520
  142MOL    H3134153   4.444   5.091   4.346  0.0145 -2.3382 -0.7876
  142MOL    H3234154   4.614   5.043   4.600 -1.5774 -0.2874 -0.1539
  142MOL    H3334155   4.802   5.177   4.490  0.2677 -1.0949 -2.5697
  142MOL    H3434156   4.668   5.271   4.558 -2.5361  0.0306 -0.7110
  142MOL    H3534157   4.574   5.326   4.343 -0.2819 -0.3452  0.2399
  142MOL    H3634158   4.750   5.346   4.335 -0.7728  1.6246 -0.8268
  142MOL    H3734159   4.684   5.198   4.269  0.8658 -0.7463  2.1306
  142MOL    C3834160   4.675   4.949   4.412  0.0200  0.3444 -0.1152
  142MOL    C3934161   4.801   4.879   4.460  0.0737  0.0805  0.1677
  142MOL    C4034162   4.876   4.811   4.338  0.4413 -0.1914 -0.3987
  142MOL    C4134163   5.017   4.767   4.373 -0.3015  0.1327  0.1947
  142MOL    H4234164   4.693   4.982   4.310 -0.0779  0.6109 -0.0468
  142MOL    H4334165   4.608   4.864   4.401  1.3727 -0.7607  0.1388
  142MOL    H4434166   4.870   4.958   4.489  1.1803 -1.3222  1.4593
  142MOL    H4534167   4.878   4.872   4.247 -0.9151 -1.2631 -1.1736
  142MOL    H4634168   4.815   4.726   4.307 -0.6056  0.6997 -0.8271
  142MOL    H4734169   5.096   4.833   4.407 -1.0257 -0.4791  3.1576
  142MOL    H4834170   5.015   4.686   4.445  0.1666  0.2270  0.3167
  142MOL    H4934171   5.060   4.729   4.280 -1.4489 -0.0250 -0.2841
  142MOL    C5034172   4.775   4.775   4.566 -0.2833 -0.2511 -0.6376
  142MOL    C5134173   4.876   4.789   4.686  0.5949 -0.1122 -0.3454
  142MOL    C5234174   4.885   4.663   4.769 -0.4689 -0.9600  0.1821
  142MOL    C5334175   4.892   4.526   4.696 -0.4038 -0.1039  0.2106
  142MOL    H5434176   4.789   4.676   4.524  0.4249 -0.7146  0.6681
  142MOL    H5534177   4.672   4.786   4.602 -0.1331  0.9864 -0.5812
  142MOL    H5634178   4.973   4.814   4.643 -0.4460 -1.1386 -3.4785
  142MOL    H5734179   4.816   4.643   4.851  0.7250 -1.4856  1.0854
  142MOL    H5834180   4.981   4.668   4.820  0.2366 -0.7695 -1.1289
  142MOL    H5934181   4.925   4.437   4.750 -0.5254 -0.2812 -0.0069
  142MOL    H6034182   4.800   4.492   4.649  0.3299 -0.9042 -0.6802
  142MOL    H6134183   4.961   4.550   4.614 -0.6236 -0.0764  0.0340
  142MOL    C6234184   4.821   4.896   4.779 -0.3912  0.6218 -0.0142
  142MOL    C6334185   4.901   4.927   4.907 -0.1913 -0.0571 -0.4254
  142MOL    C6434186   4.834   5.034   4.999  0.0109  0.3300  0.0185
  142MOL    C6534187   4.697   4.987   5.052 -0.0123  0.2249  0.7332
  142MOL    H6634188   4.718   4.871   4.806  0.2334 -0.5319  1.3653
  142MOL    H6734189   4.825   4.987   4.720 -0.6871  1.8136  1.7560
  142MOL    H6834190   4.904   4.834   4.963  2.0050  0.2661  0.0458
  142MOL    H6934191   4.833   5.140   4.974 -1.1680 -0.1668 -2.1941
  142MOL    H7034192   4.890   5.034   5.093  1.3455 -0.1716 -0.7694
  142MOL    H7134193   4.694   4.879   5.066  0.0250 -0.1215 -1.6553
  142MOL    H7234194   4.673   5.045   5.141 -0.0891 -0.6034  1.2565
  142MOL    H7334195   4.621   4.999   4.975  2.4395 -1.1473 -1.9843
  142MOL    C7434196   5.049   4.968   4.882  0.5814 -0.1871  0.7336
  142MOL    C7534197   5.146   5.018   5.002  0.7999 -0.2844 -0.6044
  142MOL    C7634198   5.264   5.089   4.940 -0.4170 -0.5005  0.1545
  142MOL    C7734199   5.369   5.012   4.854 -0.0932  0.0546  0.4560
  142MOL    H7834200   5.045   5.039   4.799 -2.9199 -0.2183  0.8012
  142MOL    H7934201   5.107   4.883   4.847  0.5262 -0.4077  1.1819
  142MOL    H8034202   5.092   5.095   5.056  0.7015 -0.0791 -0.9957
  142MOL    H8134203   5.318   5.137   5.022  0.6070 -2.1649  0.4772
  142MOL    H8234204   5.226   5.160   4.867  1.4225 -0.2384 -0.5879
  142MOL    H8334205   5.429   4.934   4.901 -0.7054  0.1604  1.4223
  142MOL    H8434206   5.322   4.965   4.767  0.4385  0.4964 -0.0820
  142MOL    H8534207   5.434   5.094   4.824 -2.1856  2.3787  2.0723
  142MOL    C8634208   5.186   4.903   5.099 -0.2288  0.2012  0.0842
  142MOL    C8734209   5.261   4.937   5.232 -0.1304  0.4232  0.2339
  142MOL    C8834210   5.348   4.820   5.291  0.2715 -0.0091  0.5086
  142MOL    C8934211   5.273   4.732   5.390  0.7041  0.1522 -0.3146
  142MOL    H9034212   5.228   4.818   5.046  2.1878  1.4223 -0.0383
  142MOL    H9134213   5.085   4.873   5.127  1.1208 -2.2247  2.5205
  142MOL    H9234214   5.343   5.004   5.204  0.3781  0.4120  1.6625
  142MOL    H9334215   5.432   4.854   5.352  0.1117 -0.9635  1.2652
  142MOL    H9434216   5.384   4.772   5.200  1.7703 -0.6378  1.4299
  142MOL    H9534217   5.251   4.782   5.484  2.9612  0.6671 -0.0391
  142MOL    H9634218   5.178   4.719   5.339  0.6391  1.5493 -0.5731
  142MOL    H9734219   5.334   4.643   5.410  2.8694  1.3774 -1.3404
  142MOL    C9834220   5.177   5.012   5.334 -0.3686 -0.0007 -0.0496
  142MOL    C9934221   5.250   5.107   5.445  0.4324 -0.0938 -0.4692
  142MOL   C10034222   5.147   5.154   5.552 -0.3057  0.6789 -0.9384
  142MOL   C10134223   5.038   5.255   5.526 -0.0053  0.8379 -0.5273
  142MOL   H10234224   5.107   4.954   5.395 -0.0063  1.5879  1.9280
  142MOL   H10334225   5.107   5.078   5.283 -0.0297  1.2876  1.1320
  142MOL   H10434226   5.328   5.039   5.482  0.3773  1.0154  1.7885
  142MOL   H10534227   5.198   5.190   5.641  0.8489  1.9730 -2.0942
  142MOL   H10634228   5.097   5.063   5.586 -0.4367  0.0866 -2.6535
  142MOL   H10734229   4.987   5.284   5.618  0.0893 -1.1203  0.1507
  142MOL   H10834230   5.089   5.341   5.481 -0.2611  1.0255 -0.4594
  142MOL   H10934231   4.964   5.220   5.453  1.1605 -0.6261 -1.0207
  142MOL   C11034232   5.320   5.226   5.377 -0.3167 -0.1026 -0.2602
  142MOL   C11134233   5.425   5.305   5.469  0.3974 -0.4037 -0.3243
  142MOL   C11234234   5.392   5.456   5.456  0.3301 -0.2789  0.3550
  142MOL   C11334235   5.316   5.525   5.569 -0.0416  0.1229 -0.2725
  142MOL   H11434236   5.249   5.289   5.324 -0.2984 -1.9519 -2.5604
  142MOL   H11534237   5.381   5.187   5.296 -2.3038  1.0391 -2.3388
  142MOL   H11634238   5.413   5.284   5.575 -0.8846 -0.4354 -0.4779
  142MOL   H11734239   5.340   5.474   5.362  0.1246 -1.3461  0.2544
  142MOL   H11834240   5.482   5.514   5.438  1.0596 -1.9992 -1.7521
  142MOL   H11934241   5.282   5.624   5.540 -0.8716 -0.0989 -0.0588
  142MOL   H12034242   5.245   5.461   5.621 -0.3177  1.4139  0.9640
  142MOL   H12134243   5.387   5.559   5.644  0.4485  0.4201 -0.8655
  142MOL   C12234244   5.573   5.283   5.423 -0.0536 -0.2009  0.2967
  142MOL   C12334245   5.626   5.132   5.412 -0.4895  0.0478 -0.2452
  142MOL   C12434246   5.632   5.055   5.539 -1.1551  0.3554  0.0075
  142MOL   C12534247   5.693   5.124   5.668 -0.2634 -0.5321 -0.0731
  142MOL   H12634248   5.642   5.338   5.487 -0.9445  1.5002 -0.1764
  142MOL   H12734249   5.580   5.332   5.327  1.0815  0.0915  0.5235
  142MOL   H12834250   5.560   5.085   5.338 -0.1098 -0.7488 -0.0805
  142MOL   H12934251   5.702   4.973   5.520  0.8906  1.7726  1.1904
  142MOL   H13034252   5.542   4.999   5.565 -1.5388  0.7406 -0.5033
  142MOL   H13134253   5.771   5.188   5.628  0.5400 -0.5907  1.3967
  142MOL   H13234254   5.607   5.183   5.700 -1.6193 -1.3500 -2.0501
  142MOL   H13334255   5.727   5.050   5.740  1.7249  0.9543  0.5242
  142MOL   C13434256   5.777   5.134   5.350  0.2396 -0.0513  0.2898
  142MOL   C13534257   5.787   5.090   5.197 -0.3436  0.6087 -0.1531
  142MOL   C13634258   5.702   5.165   5.085  0.1951 -0.7450 -0.0029
  142MOL   C13734259   5.748   5.313   5.064 -0.1308 -0.9783  0.8614
  142MOL   H13834260   5.849   5.088   5.417 -1.5391 -2.2693  0.7406
  142MOL   H13934261   5.810   5.237   5.338  0.3956 -0.1477 -0.1204
  142MOL   H14034262   5.891   5.116   5.175 -1.0263  2.0672 -1.8032
  142MOL   H14134263   5.596   5.164   5.108  0.0024 -3.3113 -0.9027
  142MOL   H14234264   5.702   5.105   4.994  1.1931 -2.1012  0.8765
  142MOL   H14334265   5.745   5.364   5.160 -0.0054 -2.1628  1.5075
  142MOL   H14434266   5.843   5.316   5.011 -0.8961  0.4605 -0.4430
  142MOL   H14534267   5.680   5.372   5.002  0.2626  1.1908  2.4463
  142MOL   C14634268   5.780   4.933   5.182  0.4896  0.3333 -0.0173
  142MOL   C14734269   5.888   4.844   5.242 -0.3390  0.4446  0.0361
  142MOL   C14834270   6.029   4.909   5.230  0.5864 -0.7890 -0.0758
  142MOL   C14934271   6.146   4.819   5.277  0.3195  0.3119 -0.1554
  142MOL   H15034272   5.795   4.914   5.075 -0.4243  1.1143 -0.2953
  142MOL   H15134273   5.682   4.891   5.205  0.5050  1.3724  2.0127
  142MOL   H15234274   5.866   4.835   5.348  1.8020 -1.6345  0.3572
  142MOL   H15334275   6.037   4.999   5.291 -0.1528 -1.5078  1.1071
  142MOL   H15434276   6.039   4.935   5.124  1.7661  1.5723  0.5715
  142MOL   H15534277   6.170   4.731   5.216  1.6834  0.4037  0.2180
  142MOL   H15634278   6.237   4.879   5.278 -0.6225  1.7681 -0.7691
  142MOL   H15734279   6.133   4.790   5.381  3.7472 -0.8535  0.0126
  142MOL   C15834280   5.877   4.697   5.199  0.0355  0.0491 -0.2212
  142MOL   C15934281   5.738   4.638   5.186  0.3425 -0.9483 -0.4799
  142MOL   C16034282   5.667   4.638   5.328 -0.1849 -0.2655  0.1456
  142MOL   C16134283   5.754   4.576   5.440 -0.1371  0.4316  0.0158
  142MOL   H16234284   5.945   4.640   5.262  0.5087  0.5807 -0.2442
  142MOL   H16334285   5.917   4.694   5.098  1.7954 -0.7098  0.4743
  142MOL   H16434286   5.669   4.696   5.125 -0.3762 -1.0538  0.2200
  142MOL   H16534287   5.573   4.582   5.336  1.3935 -3.0672 -0.5097
  142MOL   H16634288   5.641   4.737   5.366  0.2590 -0.1547  0.1536
  142MOL   H16734289   5.797   4.480   5.412 -1.0582 -1.0023  3.3518
  142MOL   H16834290   5.821   4.655   5.473  1.0532  0.2740 -1.9402
  142MOL   H16934291   5.694   4.554   5.528  0.8943 -1.7961  0.1990
  142MOL   C17034292   5.760   4.498   5.113  0.3850 -0.3063  0.7295
  142MOL   C17134293   5.632   4.407   5.102 -1.4630 -0.2768  0.3022
  142MOL   C17234294   5.674   4.274   5.044 -0.2452  0.0710 -0.5715
  142MOL   C17334295   5.771   4.206   5.133  0.2900 -0.1895  0.1035
  142MOL   H17434296   5.835   4.449   5.175  0.7601 -1.7534 -0.8278
  142MOL   H17534297   5.814   4.520   5.021 -1.3203  1.5605  0.1447
  142MOL   H17634298   5.585   4.377   5.196  0.8348  1.2274  1.9873
  142MOL   H17734299   5.711   4.273   4.941  0.7624  3.0780 -0.3093
  142MOL   H17834300   5.588   4.207   5.043  1.1200 -1.7300  0.4735
  142MOL   H17934301   5.877   4.222   5.116  0.5218 -0.0124  1.6567
  142MOL   H18034302   5.761   4.238   5.237  2.3092 -0.3248  0.3526
  142MOL   H18134303   5.759   4.098   5.124  2.0296 -0.6009  2.3413
  142MOL   C18234304   5.525   4.483   5.016  0.0180  0.9383 -0.2739
  142MOL   C18334305   5.388   4.409   5.009  0.0579 -0.1317  0.0405
  142MOL   C18434306   5.312   4.464   4.890  0.6426 -0.4192 -0.4390
  142MOL   C18534307   5.324   4.409   4.744 -0.5282 -0.4187  0.1454
  142MOL   H18634308   5.579   4.481   4.921  1.6066 -0.9910  0.6475
  142MOL   H18734309   5.516   4.584   5.057 -0.8833  0.8637 -0.2858
  142MOL   H18834310   5.420   4.305   5.000  0.1905 -0.0900  0.0539
  142MOL   H18934311   5.329   4.571   4.884 -2.5085  0.1124 -0.6419
  142MOL   H19034312   5.207   4.444   4.912  0.4882  1.4302  0.5493
  142MOL   H19134313   5.337   4.301   4.751 -1.5026 -0.5973 -0.5327
  142MOL   H19234314   5.231   4.429   4.690 -1.2671 -0.6440  1.3182
  142MOL   H19334315   5.405   4.458   4.689 -1.4795  1.8010  0.6743
  142MOL   C19434316   5.305   4.429   5.133 -1.1342  0.3126 -0.1345
  142MOL   C19534317   5.260   4.304   5.204  0.4822 -0.2478  0.3957
  142MOL   C19634318   5.153   4.222   5.118 -0.7723 -0.5032  0.7901
  142MOL   C19734319   5.109   4.089   5.183  0.5268  0.2078 -0.1699
  142MOL   H19834320   5.217   4.493   5.125  0.5999  2.8463  0.3757
  142MOL   H19934321   5.369   4.484   5.202  0.6869 -0.7172 -0.9636
  142MOL   H20034322   5.332   4.224   5.222  2.3115  0.5447 -3.0186
  142MOL   H20134323   5.209   4.191   5.030 -0.3409 -1.5098  1.4044
  142MOL   H20234324   5.058   4.263   5.083  0.0141 -0.0487 -0.8426
  142MOL   H20334325   5.036   4.090   5.264  1.4766 -0.7324  0.7126
  142MOL   H20434326   5.065   4.031   5.101  0.5230 -1.2763  0.8739
  142MOL   H20534327   5.190   4.026   5.218 -0.2394 -0.6862  0.0362
  142MOL   C20634328   5.195   4.333   5.338 -0.6413  0.0142  0.0869
  142MOL   C20734329   5.298   4.336   5.455  0.3168  0.7573 -0.0567
  142MOL   C20834330   5.341   4.191   5.505  0.3124  0.4543  0.1623
  142MOL   C20934331   5.224   4.094   5.546 -0.0634  0.3144  0.0204
  142MOL   H21034332   5.126   4.257   5.375  0.6768 -0.7264  1.0358
  142MOL   H21134333   5.138   4.426   5.329 -2.4209 -0.9763  0.8357
  142MOL   H21234334   5.382   4.378   5.400 -1.3445  1.0451 -2.4552
  142MOL   H21334335   5.421   4.209   5.577  0.2976  0.4513  0.1795
  142MOL   H21434336   5.390   4.144   5.419 -2.1574 -2.7010  0.4230
  142MOL   H21534337   5.256   4.006   5.602 -1.3256 -2.4465 -3.3662
  142MOL   H21634338   5.162   4.155   5.611 -0.4832 -0.3252  0.2292
  142MOL   H21734339   5.166   4.063   5.459  0.2039 -0.9210  0.2722
  142MOL   C21834340   5.243   4.426   5.573  0.0085  0.5226 -0.5353
  142MOL   C21934341   5.335   4.438   5.695  0.3736  0.1196  0.2678
  142MOL   C22034342   5.261   4.537   5.787 -0.8154 -0.5697  0.1446
  142MOL   C22134343   5.132   4.485   5.854 -0.1553 -0.0648  0.5921
  142MOL   H22234344   5.147   4.381   5.602 -0.2709  0.3655 -1.6847
  142MOL   H22334345   5.224   4.526   5.535  0.7370  1.3120  1.1302
  142MOL   H22434346   5.346   4.337   5.734 -0.2319  0.9811  2.8363
  142MOL   H22534347   5.235   4.634   5.743  1.3914  0.7863  1.6709
  142MOL   H22634348   5.332   4.563   5.866 -0.3073 -2.2761  0.2646
  142MOL   H22734349   5.079   4.552   5.922 -3.0071  1.3629 -2.8861
  142MOL   H22834350   5.061   4.447   5.781 -1.8671  0.6904  1.8398
  142MOL   H22934351   5.170   4.398   5.907  0.0644 -0.8371 -0.7991
  142MOL   C23034352   5.471   4.483   5.652 -0.1630 -0.0924 -0.2566
  142MOL   C23134353   5.571   4.519   5.767  0.2380 -0.0254  0.0925
  142MOL   C23234354   5.598   4.664   5.792  0.4655 -0.0013  0.6572
  142MOL   C23334355   5.717   4.682   5.879  0.3218 -0.7235  0.1172
  142MOL   H23434356   5.454   4.577   5.600 -2.7488 -1.7251 -2.5139
  142MOL   H23534357   5.515   4.409   5.585 -1.1050 -0.2655 -0.6887
  142MOL   H23634358   5.523   4.479   5.856  0.1508  1.0328  0.5331
  142MOL   H23734359   5.509   4.692   5.847 -1.4023 -1.4807 -1.5313
  142MOL   H23834360   5.609   4.717   5.697  0.7402 -0.9673  0.1376
  142MOL   H23934361   5.722   4.610   5.961 -0.5736  3.0516  3.6505
  142MOL   H24034362   5.815   4.674   5.832 -0.4492 -3.1810 -1.1692
  142MOL   H24134363   5.707   4.779   5.928 -0.0430 -1.2081  1.0213
  142MOL   H24234364   5.665   4.465   5.763  0.2012  0.0259 -1.9841
  143MOL     C134365   6.508   6.426   5.277 -0.7607 -0.3112  0.1588
  143MOL     C234366   6.605   6.546   5.314  0.6762  0.8677 -0.8827
  143MOL     C334367   6.718   6.554   5.196 -0.2261  0.2398 -0.7755
  143MOL     C434368   6.672   6.573   5.057  0.4532  0.0748 -0.1691
  143MOL     H534369   6.544   6.323   5.268  1.0694  0.3745 -0.7915
  143MOL     H634370   6.420   6.432   5.340 -0.8914 -0.6752  0.0100
  143MOL     H734371   6.534   6.627   5.303 -0.5880 -0.1077 -0.1262
  143MOL     H834372   6.771   6.460   5.211 -0.0810  0.5341  0.6325
  143MOL     H934373   6.799   6.622   5.222 -0.1439  0.1879 -0.8942
  143MOL    H1034374   6.590   6.641   5.036  0.3723 -0.1518 -0.5994
  143MOL    H1134375   6.750   6.619   4.996  1.4621 -1.1506  0.1689
  143MOL    H1234376   6.642   6.477   5.016  0.7054 -0.4106  0.7745
  143MOL    H1334377   6.469   6.442   5.177 -1.7719  1.3666  0.8081
  143MOL    C1434378   6.640   6.545   5.470 -0.2474  0.1081  0.1086
  143MOL    C1534379   6.723   6.664   5.519  0.0776  0.1296  0.1666
  143MOL    C1634380   6.776   6.640   5.665  0.6230 -0.1036 -0.1770
  143MOL    C1734381   6.685   6.687   5.778  0.3714 -0.1947 -0.3803
  143MOL    H1834382   6.697   6.455   5.492  1.9273  1.4443  0.2029
  143MOL    H1934383   6.543   6.543   5.519  0.1375  0.5000  0.9160
  143MOL    H2034384   6.809   6.653   5.452 -0.0180 -0.3389  0.1196
  143MOL    H2134385   6.876   6.681   5.677  0.5871  0.0586 -0.4386
  143MOL    H2234386   6.785   6.533   5.679  0.7436 -0.1289 -0.4438
  143MOL    H2334387   6.703   6.793   5.794  0.0225  0.2030 -2.3730
  143MOL    H2434388   6.580   6.662   5.768  0.3684 -0.9597  1.4754
  143MOL    H2534389   6.711   6.647   5.876 -0.5095  1.4930  0.5458
  143MOL    C2634390   6.654   6.805   5.500 -0.1866  0.7648 -0.2581
  143MOL    C2734391   6.754   6.922   5.502  0.5582  0.1035 -0.0337
  143MOL    C2834392   6.685   7.060   5.513 -0.0687  0.4832 -0.2539
  143MOL    C2934393   6.629   7.110   5.377 -0.0692  0.4600 -0.5404
  143MOL    H3034394   6.592   6.805   5.590  0.0206 -0.2642 -0.1010
  143MOL    H3134395   6.587   6.808   5.414  2.2936  1.3498 -2.2307
  143MOL    H3234396   6.805   6.902   5.596  1.1602  0.1937 -0.3368
  143MOL    H3334397   6.759   7.134   5.546 -0.1501 -0.1993  1.5382
  143MOL    H3434398   6.598   7.058   5.579 -0.0462  2.6908 -0.1125
  143MOL    H3534399   6.709   7.146   5.312 -0.1948 -0.7391 -1.3870
  143MOL    H3634400   6.588   7.018   5.334  2.7868 -0.8953 -0.4666
  143MOL    H3734401   6.546   7.177   5.399 -0.9342 -0.6014 -0.5311
  143MOL    C3834402   6.860   6.919   5.390 -0.3150 -0.2436  0.1968
  143MOL    C3934403   6.986   7.009   5.420  0.4063  0.2974  0.3252
  143MOL    C4034404   7.078   7.028   5.292 -0.4599  0.4630 -0.1701
  143MOL    C4134405   7.147   6.901   5.239 -0.5587 -0.0190 -0.2466
  143MOL    H4234406   6.804   6.950   5.301  0.1119 -0.4243 -0.1373
  143MOL    H4334407   6.891   6.817   5.367  0.9331  0.0164  0.6992
  143MOL    H4434408   6.952   7.110   5.443 -1.2832  0.0136 -0.8317
  143MOL    H4534409   7.157   7.094   5.328 -0.6249 -0.2766  1.6223
  143MOL    H4634410   7.029   7.074   5.207  0.7778 -0.5902 -1.4799
  143MOL    H4734411   7.077   6.818   5.242 -0.1956 -0.4606 -2.7995
  143MOL    H4834412   7.187   6.918   5.139 -0.8045 -1.8302 -0.6700
  143MOL    H4934413   7.229   6.874   5.306 -0.8497  0.2628  0.2249
  143MOL    C5034414   7.065   6.976   5.549  0.2472  0.1624 -0.0377
  143MOL    C5134415   7.135   7.101   5.608 -0.0082  0.3128 -0.0473
  143MOL    C5234416   7.283   7.086   5.635 -0.3902 -0.1939 -0.7244
  143MOL    C5334417   7.365   7.046   5.515 -0.3167  0.6616  0.3626
  143MOL    H5434418   7.128   6.889   5.536  2.2354  1.5916 -0.1659
  143MOL    H5534419   7.007   6.917   5.620 -1.6562  0.8181 -0.9943
  143MOL    H5634420   7.133   7.181   5.534 -1.4650 -1.5224 -2.0576
  143MOL    H5734421   7.304   7.015   5.715 -0.0794  0.6906 -0.0188
  143MOL    H5834422   7.330   7.182   5.656 -0.3209 -0.0536 -1.5127
  143MOL    H5934423   7.336   7.102   5.426 -0.7438  2.5698  1.6785
  143MOL    H6034424   7.468   7.076   5.534 -0.7315  2.2701  0.1359
  143MOL    H6134425   7.360   6.939   5.492  1.5908  0.8250 -0.9809
  143MOL    C6234426   7.047   7.148   5.729 -0.4656 -0.3913 -0.2625
  143MOL    C6334427   7.077   7.288   5.787  0.1972 -0.0133  0.1980
  143MOL    C6434428   6.995   7.307   5.916 -0.2291 -0.1154  0.4482
  143MOL    C6534429   6.843   7.294   5.900  0.0568  0.1596 -0.5233
  143MOL    H6634430   7.049   7.082   5.816  0.1204 -0.3548 -0.2510
  143MOL    H6734431   6.940   7.141   5.710 -0.3943  0.3981 -0.9579
  143MOL    H6834432   7.181   7.277   5.816  0.4208  1.3155 -0.0945
  143MOL    H6934433   7.025   7.407   5.946  0.2274  0.5236 -1.9694
  143MOL    H7034434   7.025   7.243   5.999 -2.7592 -1.0915  0.6413
  143MOL    H7134435   6.818   7.308   5.795  2.0409 -1.1724 -1.1900
  143MOL    H7234436   6.829   7.188   5.925 -0.4080  0.3358 -0.0253
  143MOL    H7334437   6.783   7.351   5.971  0.1847  1.1407 -1.2041
  143MOL    C7434438   7.047   7.399   5.683 -0.3624 -0.2195  0.8906
  143MOL    C7534439   7.172   7.464   5.606  0.2122  0.3217 -0.0161
  143MOL    C7634440   7.262   7.549   5.693 -0.1110  0.3297 -0.5951
  143MOL    C7734441   7.409   7.550   5.659 -0.0995 -0.5001 -0.4616
  143MOL    H7834442   6.990   7.476   5.735  0.4129  0.2465  1.0625
  143MOL    H7934443   6.970   7.356   5.620  0.2024  1.4224 -0.9658
  143MOL    H8034444   7.228   7.391   5.547 -0.7844  0.6736 -1.4422
  143MOL    H8134445   7.244   7.515   5.795  1.4932 -1.9008 -1.0233
  143MOL    H8234446   7.214   7.647   5.688 -1.3663 -0.2587 -0.2525
  143MOL    H8334447   7.454   7.451   5.652  1.6453 -0.1706  4.2545
  143MOL    H8434448   7.433   7.592   5.561  1.2636 -1.5312 -0.5777
  143MOL    H8534449   7.468   7.607   5.730 -1.7058  1.5071 -0.6781
  143MOL    C8634450   7.132   7.561   5.493  0.8274 -0.1439  0.4168
  143MOL    C8734451   7.080   7.481   5.367  0.6769  0.1184  0.8380
  143MOL    C8834452   7.209   7.444   5.285 -0.3421  0.2937 -0.2629
  143MOL    C8934453   7.187   7.347   5.169 -0.4259 -0.1804 -0.5711
  143MOL    H9034454   7.216   7.615   5.451 -0.9004 -0.3798 -3.6207
  143MOL    H9134455   7.059   7.630   5.535 -1.0589 -1.3087 -0.8541
  143MOL    H9234456   7.028   7.393   5.405  0.9651 -0.1013  0.7235
  143MOL    H9334457   7.287   7.402   5.349 -1.1492 -1.1334 -0.2010
  143MOL    H9434458   7.245   7.525   5.222  0.6029 -0.0809 -0.2086
  143MOL    H9534459   7.089   7.301   5.181  0.3479 -1.5269  0.7335
  143MOL    H9634460   7.183   7.391   5.069 -3.0189  0.2953 -0.2985
  143MOL    H9734461   7.242   7.253   5.173  1.1999  0.7986  0.2749
  143MOL    C9834462   6.982   7.552   5.276 -0.8019 -0.1131 -0.0917
  143MOL    C9934463   6.845   7.588   5.343 -1.2346  0.2579 -0.0380
  143MOL   C10034464   6.751   7.462   5.357  0.5401 -0.4113  1.4471
  143MOL   C10134465   6.640   7.481   5.457  0.4742  0.5186  0.0726
  143MOL   H10234466   6.964   7.494   5.186  0.5743 -0.7371  0.0088
  143MOL   H10334467   7.030   7.642   5.239 -1.1767 -0.2458 -0.9013
  143MOL   H10434468   6.869   7.623   5.443 -0.0418  0.1771 -0.2803
  143MOL   H10534469   6.810   7.377   5.391 -1.3298 -1.5035  2.0314
  143MOL   H10634470   6.722   7.436   5.255  0.9988  3.4452  0.2449
  143MOL   H10734471   6.579   7.566   5.426  0.3226  0.0746 -0.8823
  143MOL   H10834472   6.580   7.390   5.447  1.6514 -0.0720 -2.0521
  143MOL   H10934473   6.676   7.505   5.556 -2.4189 -0.1383  1.3306
  143MOL   C11034474   6.780   7.705   5.265 -0.2100  0.1442  0.0589
  143MOL   C11134475   6.829   0.145   5.285  0.1948  0.1379 -0.2524
  143MOL   C11234476   6.717   0.247   5.295 -0.1456 -0.1365  0.3442
  143MOL   C11334477   6.639   0.250   5.420 -0.4109 -0.1445 -0.2166
  143MOL   H11434478   6.675   0.004   5.295 -0.3627  1.4044 -0.6402
  143MOL   H11534479   6.771   7.685   5.159  0.6603  0.1876 -0.0219
  143MOL   H11634480   6.882   0.136   5.380  0.9786 -1.5869 -0.8302
  143MOL   H11734481   6.647   0.216   5.218 -0.5366 -2.4455  1.5977
  143MOL   H11834482   6.760   0.344   5.271  0.0663  0.2762  2.2695
  143MOL   H11934483   6.588   0.345   5.436 -1.2754 -0.5325 -0.6440
  143MOL   H12034484   6.560   0.175   5.415  0.0756 -0.7280  0.6748
  143MOL   H12134485   6.696   0.248   5.513 -0.0657  0.4935 -0.4076
  143MOL   C12234486   6.919   0.185   5.170 -0.2316  0.2958  0.1562
  143MOL   C12334487   7.052   0.239   5.219  0.8856  0.1909  0.4401
  143MOL   C12434488   7.034   0.375   5.290  0.0377 -0.3746  0.2490
  143MOL   C12534489   7.159   0.443   5.348  0.0335  0.0365  0.7362
  143MOL   H12634490   6.866   0.253   5.103 -1.5822 -0.1095  0.7920
  143MOL   H12734491   6.944   0.103   5.103 -0.3870  0.6259 -0.3081
  143MOL   H12834492   7.094   0.181   5.301 -2.1237 -0.6456  1.4489
  143MOL   H12934493   6.955   0.365   5.364  0.9203 -4.3615  0.7187
  143MOL   H13034494   6.986   0.452   5.229 -2.6610 -1.8345  0.4874
  143MOL   H13134495   7.216   0.495   5.272  1.5899 -0.0454  1.8313
  143MOL   H13234496   7.137   0.528   5.412  0.2197  1.2653 -0.7969
  143MOL   H13334497   7.229   0.373   5.393 -0.8896 -0.2031  1.8089
  143MOL   C13434498   7.159   0.255   5.104  0.1628  0.4794  0.0468
  143MOL   C13534499   7.243   0.130   5.092  0.0795  0.1819 -0.3336
  143MOL   C13634500   7.374   0.152   5.173  0.3292  0.4339 -0.0864
  143MOL   C13734501   7.464   0.030   5.186  0.0899 -0.7504 -0.3395
  143MOL   H13834502   7.221   0.344   5.117  1.3533 -0.4400  0.7611
  143MOL   H13934503   7.103   0.277   5.013 -2.5780  0.8689  1.7654
  143MOL   H14034504   7.191   0.046   5.137 -1.5706  0.5552 -1.5185
  143MOL   H14134505   7.342   0.185   5.272  1.2708  2.8712 -0.5514
  143MOL   H14234506   7.438   0.233   5.138  0.2556  0.4187 -0.2551
  143MOL   H14334507   7.425   7.645   5.232  2.6547 -0.4316  2.6648
  143MOL   H14434508   7.520   7.705   5.098 -0.4538  1.9443 -1.6798
  143MOL   H14534509   7.542   0.067   5.253 -2.4622  0.5921  1.9990
  143MOL   C14634510   7.271   0.092   4.945 -0.0693  0.0650  0.1080
  143MOL   C14734511   7.162   0.048   4.846 -0.4237 -0.3569 -0.0266
  143MOL   C14834512   7.080   7.637   4.913  0.2797  0.1721 -0.2343
  143MOL   C14934513   6.939   7.621   4.867  0.0955  0.0077  0.1692
  143MOL   H15034514   7.361   0.031   4.942  0.4934  0.8251  1.3141
  143MOL   H15134515   7.320   0.173   4.891 -1.4375  0.2520 -0.8855
  143MOL   H15234516   7.096   0.132   4.826 -2.0495 -1.9521 -1.4399
  143MOL   H15334517   7.072   7.647   5.022 -1.6892  0.8206 -0.4102
  143MOL   H15434518   7.131   7.541   4.901  2.0597  1.1625 -0.7759
  143MOL   H15534519   6.880   0.003   4.893  0.5864  0.7382 -1.1254
  143MOL   H15634520   6.924   7.604   4.761 -0.6719 -1.4800  0.4992
  143MOL   H15734521   6.900   7.533   4.918  5.0387 -3.0196 -0.9765
  143MOL   C15834522   7.208   0.002   4.702  0.5926 -0.3959 -0.1896
  143MOL   C15934523   7.289   0.113   4.618 -0.0795 -0.4546  0.5850
  143MOL   C16034524   7.196   0.213   4.551 -0.0751  0.2949 -0.5018
  143MOL   C16134525   7.091   0.163   4.453  0.0635 -0.1204  0.1204
  143MOL   H16234526   7.130   7.671   4.635  0.8036  0.7508 -1.0935
  143MOL   H16334527   7.271   7.622   4.721  1.2248  0.2549  0.7284
  143MOL   H16434528   7.343   0.176   4.689  1.2095  0.6001 -1.3082
  143MOL   H16534529   7.260   0.276   4.490  0.3781  2.6666  2.3072
  143MOL   H16634530   7.146   0.271   4.628 -0.2460  1.9682 -1.8450
  143MOL   H16734531   7.132   0.115   4.365  0.4459  1.7704 -0.7443
  143MOL   H16834532   7.015   0.098   4.498  2.2883 -1.8140  1.5078
  143MOL   H16934533   7.042   0.251   4.413  2.0730  0.1842 -1.7226
  143MOL   C17034534   7.407   0.054   4.529  0.2947  0.1918 -0.0510
  143MOL   C17134535   7.552   0.009   4.593  0.1697  0.2748  0.8174
  143MOL   C17234536   7.606   0.105   4.701 -0.4368  0.4187  0.2131
  143MOL   C17334537   7.654   0.236   4.643 -1.0336 -0.0112 -0.1238
  143MOL   H17434538   7.431   0.136   4.461  1.1239 -1.0161 -1.2412
  143MOL   H17534539   7.371   7.690   4.453  1.8952  0.1721 -0.8208
  143MOL   H17634540   7.514   7.627   4.644  0.5875  0.1482  0.9156
  143MOL   H17734541   7.686   0.058   4.758  0.1773  0.9049 -0.2423
  143MOL   H17834542   7.526   0.131   4.770 -1.7923 -0.1727 -1.1088
  143MOL   H17934543   7.578   0.306   4.606 -0.0277  1.8523  1.2923
  143MOL   H18034544   7.703   0.290   4.724 -0.6359 -0.2081 -0.2302
  143MOL   H18134545   0.033   0.236   4.574 -0.3977  2.1853  0.6100
  143MOL   C18234546   7.649   7.666   4.487 -0.0628 -0.4161 -0.0492
  143MOL   C18334547   0.072   7.590   4.539 -0.0682  0.2656  0.3115
  143MOL   C18434548   0.192   7.598   4.435  0.0320 -0.4923  0.7517
  143MOL   C18534549   0.154   7.537   4.298  0.5980  0.5311 -0.4481
  143MOL   H18634550   7.693   0.040   4.428  3.2876 -0.7741  1.8277
  143MOL   H18734551   7.597   7.601   4.417  3.8448 -0.6306 -2.9510
  143MOL   H18834552   0.116   7.634   4.629  0.6578 -0.4538  0.3100
  143MOL   H18934553   0.276   7.540   4.473  0.5302  0.2419  0.7968
  143MOL   H19034554   0.222   7.702   4.418  1.8352 -1.3363 -1.4476
  143MOL   H19134555   0.102   7.616   4.245 -0.3983  0.9850  1.1899
  143MOL   H19234556   0.246   7.519   4.241  1.6650  1.8956  0.7844
  143MOL   H19334557   0.084   7.453   4.292  1.3078 -0.1172  0.1289
  143MOL   C19434558   0.034   7.442   4.578  0.3327 -0.4460 -0.2041
  143MOL   C19534559   0.022   7.424   4.732  0.6930  0.1260 -0.0072
  143MOL   C19634560   0.167   7.413   4.797  0.5824 -0.1441  0.5285
  143MOL   C19734561   0.173   7.399   4.950  0.0318 -0.0626 -0.0215
  143MOL   H19834562   0.110   7.374   4.537  0.0706 -0.9723  0.1736
  143MOL   H19934563   7.646   7.410   4.532  1.0345 -0.0056 -2.0079
  143MOL   H20034564   7.689   7.519   4.769 -1.5865 -0.5154 -0.6656
  143MOL   H20134565   0.223   7.503   4.771  0.5334  0.4114  2.2411
  143MOL   H20234566   0.221   7.330   4.752  0.0401  0.8778 -2.0807
  143MOL   H20334567   0.166   7.294   4.979 -0.1519  0.2428  1.0310
  143MOL   H20434568   0.271   7.436   4.980  0.6566 -1.2571 -0.5447
  143MOL   H20534569   0.088   7.451   4.991  1.2031  1.4135  0.5760
  143MOL   C20634570   7.652   7.292   4.769 -0.5146 -0.2708  0.3617
  143MOL   C20734571   7.501   7.306   4.733  0.3635 -0.9105  0.6466
  143MOL   C20834572   7.408   7.338   4.854 -0.3666  0.3998  0.2528
  143MOL   C20934573   7.455   7.466   4.931  0.2342 -0.0133  0.2577
  143MOL   H21034574   7.652   7.246   4.868 -1.6280 -0.0161  0.4991
  143MOL   H21134575   7.703   7.221   4.705  0.3611  1.1224 -0.5223
  143MOL   H21234576   7.487   7.392   4.668  0.1010 -1.2859  0.2061
  143MOL   H21334577   7.405   7.252   4.922 -0.5317 -0.6711 -1.0794
  143MOL   H21434578   7.307   7.359   4.817 -1.2484 -1.3511  1.5857
  143MOL   H21534579   7.481   7.548   4.865  0.1945  0.4599  0.8301
  143MOL   H21634580   7.382   7.508   5.001 -0.6103  0.0384 -0.6443
  143MOL   H21734581   7.540   7.436   4.992  0.0523 -2.8791 -0.7845
  143MOL   C21834582   7.448   7.188   4.660  0.3779 -1.0571 -0.4251
  143MOL   C21934583   7.321   7.211   4.574  0.4669  0.9406  0.3447
  143MOL   C22034584   7.239   7.084   4.545 -0.0339 -0.0327  0.0372
  143MOL   C22134585   7.313   6.981   4.475  0.2373 -0.5936  0.0485
  143MOL   H22234586   7.421   7.121   4.741  0.6268  1.1958  1.5517
  143MOL   H22334587   7.521   7.139   4.596  0.3381 -1.0252 -0.4955
  143MOL   H22434588   7.248   7.274   4.624 -1.0174 -0.8448  0.4507
  143MOL   H22534589   7.150   7.112   4.489 -0.5659  1.4662  1.5642
  143MOL   H22634590   7.200   7.044   4.638 -1.1350 -0.5654 -0.6481
  143MOL   H22734591   7.253   6.891   4.459 -1.0921  0.6222 -2.0146
  143MOL   H22834592   7.345   6.999   4.372 -0.9776 -0.2922 -0.2805
  143MOL   H22934593   7.392   6.953   4.545  0.4432 -0.9917 -0.3352
  143MOL   C23034594   7.359   7.277   4.433 -0.1971 -0.7672 -0.1153
  143MOL   C23134595   7.249   7.352   4.355  0.1631  0.4556  0.7015
  143MOL   C23234596   7.170   7.462   4.433  0.0626 -0.2605 -0.1910
  143MOL   C23334597   7.080   7.531   4.333 -0.3165  0.0751  0.3961
  143MOL   H23434598   7.416   7.211   4.367  0.2909 -0.1602 -0.3046
  143MOL   H23534599   7.435   7.351   4.459 -2.7893  2.1919 -0.7624
  143MOL   H23634600   7.299   7.401   4.271  0.2107 -0.2344  0.3254
  143MOL   H23734601   7.239   7.536   4.474 -0.2511  0.5757 -1.1380
  143MOL   H23834602   7.111   7.419   4.513  1.2798 -0.8348  0.4012
  143MOL   H23934603   7.009   7.599   4.380 -0.7611 -0.7791  0.9934
  143MOL   H24034604   7.126   7.578   4.247  0.1914 -2.4975 -0.7651
  143MOL   H24134605   7.011   7.461   4.286  0.1135  0.7118 -1.2053
  143MOL   H24234606   7.178   7.275   4.323  0.9016 -0.7657  1.9404
  144MOL     C134607   4.889   4.591   5.193  0.2843 -0.2712  0.0595
  144MOL     C234608   4.830   4.572   5.333 -0.0259 -0.0312  0.0267
  144MOL     C334609   4.901   4.660   5.438  0.5003  0.0113 -0.1482
  144MOL     C434610   4.828   4.668   5.575 -1.7797 -0.6022 -0.2678
  144MOL     H534611   4.812   4.547   5.130  0.8001  2.5085 -2.6341
  144MOL     H634612   4.908   4.696   5.171 -1.8812  0.0697 -0.3141
  144MOL     H734613   4.730   4.612   5.316 -0.6425 -1.9512 -0.9552
  144MOL     H834614   4.904   4.762   5.399 -1.4971  0.3200  0.4587
  144MOL     H934615   5.003   4.634   5.466 -0.2040 -1.4527  1.1054
  144MOL    H1034616   4.836   4.576   5.632  3.2191 -0.4546 -0.5558
  144MOL    H1134617   4.870   4.755   5.624  1.7898 -1.4927 -1.6309
  144MOL    H1234618   4.728   4.704   5.549 -0.7304  1.2441 -1.8792
  144MOL    H1334619   4.982   4.539   5.172  1.4669  2.9331 -3.2225
  144MOL    C1434620   4.847   4.426   5.371 -0.5651 -0.2098  0.0786
  144MOL    C1534621   4.714   4.369   5.427  0.5550 -0.0907 -0.0749
  144MOL    C1634622   4.725   4.222   5.468 -0.4278  0.7851 -1.4525
  144MOL    C1734623   4.805   4.210   5.603 -0.2539  0.1856 -0.2469
  144MOL    H1834624   4.934   4.409   5.435  1.2392 -1.3984 -2.5820
  144MOL    H1934625   4.877   4.368   5.284 -1.5597 -2.0973  0.9736
  144MOL    H2034626   4.691   4.429   5.515 -1.9871  0.0028 -0.7715
  144MOL    H2134627   4.760   4.155   5.389  0.6791 -0.0532 -0.2626
  144MOL    H2234628   4.634   4.171   5.499  0.0589  0.0530 -1.2096
  144MOL    H2334629   4.901   4.254   5.577  0.4481 -1.1886 -0.0081
  144MOL    H2434630   4.766   4.260   5.692  1.2326 -0.6320  0.8807
  144MOL    H2534631   4.826   4.105   5.621 -1.3907  0.1347  0.8838
  144MOL    C2634632   4.593   4.378   5.333 -0.2112  0.3289 -0.2144
  144MOL    C2734633   4.450   4.384   5.392 -0.4030 -0.1003 -0.4981
  144MOL    C2834634   4.334   4.325   5.298  0.4808 -0.6797 -0.3125
  144MOL    C2934635   4.346   4.175   5.282  0.0170 -0.2977 -0.2300
  144MOL    H3034636   4.592   4.296   5.261  2.1751 -0.2823  0.4049
  144MOL    H3134637   4.582   4.466   5.269 -2.1910 -0.9032 -1.6240
  144MOL    H3234638   4.466   4.320   5.479 -0.3746  3.3663  2.1660
  144MOL    H3334639   4.344   4.361   5.195 -0.4981 -0.1884 -0.2411
  144MOL    H3434640   4.235   4.355   5.332  0.8314 -0.4578  0.5137
  144MOL    H3534641   4.449   4.140   5.269  1.3445  3.2350  0.2120
  144MOL    H3634642   4.331   4.139   5.384  0.3860  1.8978  0.6183
  144MOL    H3734643   4.279   4.121   5.215  0.4876 -0.9767 -0.1611
  144MOL    C3834644   4.421   4.528   5.451  0.3743 -0.7768  0.8883
  144MOL    C3934645   4.304   4.535   5.554  0.0086  0.9990  0.4472
  144MOL    C4034646   4.263   4.684   5.578  0.3382  0.8922  0.4595
  144MOL    C4134647   4.386   4.766   5.615  0.1301  0.1447 -0.0113
  144MOL    H4234648   4.387   4.590   5.368  0.1051  0.7263  2.1012
  144MOL    H4334649   4.511   4.577   5.488  0.9937 -1.2000 -0.0244
  144MOL    H4434650   4.214   4.502   5.503  0.0919  2.0667 -0.3993
  144MOL    H4534651   4.174   4.701   5.638 -0.2755  1.5553 -0.6287
  144MOL    H4634652   4.230   4.724   5.483 -0.7871  0.9360  0.8704
  144MOL    H4734653   4.460   4.769   5.535  1.1843  1.2413  0.9755
  144MOL    H4834654   4.356   4.864   5.652 -0.9817 -0.3771  0.4844
  144MOL    H4934655   4.437   4.712   5.694 -0.6074  0.6994  0.8509
  144MOL    C5034656   4.320   4.464   5.687 -0.7535 -0.8698  0.3214
  144MOL    C5134657   4.217   4.367   5.745  0.5358 -0.1636  0.6485
  144MOL    C5234658   4.074   4.419   5.758  0.0331  0.4062 -0.5493
  144MOL    C5334659   3.962   4.317   5.750  0.4537  0.3862 -0.0818
  144MOL    H5434660   4.323   4.542   5.763  2.4563  0.3968 -1.0547
  144MOL    H5534661   4.417   4.415   5.691 -0.7206 -0.8054  0.3093
  144MOL    H5634662   4.205   4.299   5.662  1.1472  0.0256  0.3979
  144MOL    H5734663   4.054   4.499   5.687  1.5740  0.5089 -0.8718
  144MOL    H5834664   4.067   4.469   5.855 -1.1275  0.4960 -0.6701
  144MOL    H5934665   4.003   4.228   5.701  1.2830  0.5773  0.2583
  144MOL    H6034666   3.939   4.282   5.850 -1.7715  0.5899 -0.4943
  144MOL    H6134667   3.870   4.349   5.700  0.1651 -1.7355 -0.9632
  144MOL    C6234668   4.255   4.281   5.868  0.0155  0.4324 -0.3585
  144MOL    C6334669   4.386   4.197   5.861  0.3473 -0.1189 -0.0938
  144MOL    C6434670   4.385   4.096   5.746 -0.1412 -0.2253 -0.1504
  144MOL    C6534671   4.276   3.988   5.749 -0.8842  0.4293 -0.4916
  144MOL    H6634672   4.171   4.216   5.895 -1.5914  1.8349 -1.8483
  144MOL    H6734673   4.266   4.349   5.952 -1.2396  1.8691 -1.3336
  144MOL    H6834674   4.467   4.268   5.841  0.5713 -0.1863  0.5798
  144MOL    H6934675   4.480   4.044   5.741  0.3304  0.6541 -0.5726
  144MOL    H7034676   4.376   4.143   5.647 -2.1710 -0.6822 -0.2103
  144MOL    H7134677   4.278   3.922   5.662 -2.8456  0.0070 -0.2425
  144MOL    H7234678   4.284   3.918   5.833 -0.3087  0.7118 -0.3068
  144MOL    H7334679   4.171   4.016   5.745 -0.9362  0.6593  1.5733
  144MOL    C7434680   4.419   4.146   6.002  0.1472  0.0340  0.0900
  144MOL    C7534681   4.531   4.046   6.014 -0.5332  0.1742 -0.1850
  144MOL    C7634682   4.532   3.962   6.136  0.1793 -0.0336  0.1805
  144MOL    C7734683   4.569   4.024   6.272 -0.7079  0.8819 -0.0265
  144MOL    H7834684   4.325   4.100   6.033 -1.4514  0.4751 -3.8506
  144MOL    H7934685   4.432   4.220   6.081 -0.1976  0.0091  0.1705
  144MOL    H8034686   4.494   3.976   5.939 -0.5820 -0.3476  0.3260
  144MOL    H8134687   4.586   3.869   6.125  0.3773 -0.2003  2.2865
  144MOL    H8234688   4.430   3.929   6.156 -0.3183  2.2616  1.6867
  144MOL    H8334689   4.674   4.050   6.290 -1.1049  0.9615  2.3014
  144MOL    H8434690   4.508   4.106   6.310  0.7930  0.8574  2.5031
  144MOL    H8534691   4.557   3.941   6.341 -0.1142  0.1188 -0.8322
  144MOL    C8634692   4.672   4.102   5.977 -0.3382 -0.5136 -0.0297
  144MOL    C8734693   4.800   4.016   5.989 -0.3340 -0.0212 -0.0272
  144MOL    C8834694   4.931   4.099   5.958 -0.0567  0.3340 -0.2065
  144MOL    C8934695   4.971   4.229   6.040 -0.3324 -0.6062 -0.1603
  144MOL    H9034696   4.686   4.186   6.045 -0.0189  0.0112 -0.7411
  144MOL    H9134697   4.662   4.142   5.877  0.9908 -0.4113 -0.1335
  144MOL    H9234698   4.820   3.972   6.087 -0.1827 -0.2713 -0.1703
  144MOL    H9334699   4.935   4.125   5.853  3.1506 -0.0933 -0.2265
  144MOL    H9434700   5.005   4.021   5.972  0.2175  0.2644 -2.0416
  144MOL    H9534701   5.078   4.248   6.037 -0.2144 -1.2827 -0.3712
  144MOL    H9634702   4.915   4.312   5.996 -0.2421 -1.4434 -1.9185
  144MOL    H9734703   4.929   4.229   6.141 -2.8035  1.6686 -1.1182
  144MOL    C9834704   4.791   3.897   5.885  0.4638 -0.3038  0.9277
  144MOL    C9934705   4.882   3.780   5.917  0.0364  0.5212 -1.0729
  144MOL   C10034706   4.889   3.697   5.787  0.5257 -0.1572  0.0107
  144MOL   C10134707   4.980   3.763   5.681  1.0656  0.4304  0.0174
  144MOL   H10234708   4.810   3.941   5.787  0.7451  0.3574  1.2718
  144MOL   H10334709   4.685   3.871   5.883  0.6691 -1.1218  0.6877
  144MOL   H10434710   4.980   3.828   5.929 -0.4771  1.6826 -1.4832
  144MOL   H10534711   4.787   3.671   5.758  0.9967  0.0340 -1.8976
  144MOL   H10634712   4.929   3.600   5.816  2.4398  0.8493  0.8481
  144MOL   H10734713   5.010   3.696   5.601 -1.3495  0.4476 -0.9423
  144MOL   H10834714   4.931   3.849   5.635  1.0565  1.8716  2.5935
  144MOL   H10934715   5.080   3.789   5.716  1.1281  0.1026  0.0838
  144MOL   C11034716   4.842   3.690   6.038  0.3595 -0.2349  0.0288
  144MOL   C11134717   4.943   3.594   6.098  0.4998 -0.6370  0.6837
  144MOL   C11234718   4.878   3.482   6.175 -0.4725  0.3853  0.0500
  144MOL   C11334719   4.756   3.521   6.263 -0.6255  0.2110  0.0194
  144MOL   H11434720   4.766   3.619   6.004 -0.0259 -0.0220  0.4452
  144MOL   H11534721   4.803   3.753   6.118  1.8669  1.0601 -0.2432
  144MOL   H11634722   4.991   3.539   6.018 -1.8687 -1.5402 -0.1323
  144MOL   H11734723   4.958   3.437   6.234  0.3292 -0.2936 -1.5123
  144MOL   H11834724   4.866   3.404   6.099 -0.4960 -1.1344  1.5890
  144MOL   H11934725   4.728   3.436   6.325 -0.7925 -0.0804 -0.4471
  144MOL   H12034726   4.767   3.600   6.337  0.4698  0.9372 -0.9043
  144MOL   H12134727   4.664   3.531   6.205  0.1659 -1.8422 -1.6721
  144MOL   C12234728   5.054   3.669   6.179  0.0277 -0.0438  0.0729
  144MOL   C12334729   5.173   3.576   6.227 -0.4997  0.8909 -0.0940
  144MOL   C12434730   5.157   3.559   6.387  0.4567  0.4748 -0.7354
  144MOL   C12534731   5.256   3.460   6.458  0.6200  0.4945  0.1293
  144MOL   H12634732   5.005   3.714   6.265 -1.4535  0.5794 -1.0838
  144MOL   H12734733   5.093   3.752   6.121  1.0667 -0.8508 -0.4221
  144MOL   H12834734   5.165   3.480   6.176  2.7048  0.1911  0.6041
  144MOL   H12934735   5.054   3.526   6.400  0.4403 -0.0903 -2.1696
  144MOL   H13034736   5.162   3.652   6.443  1.2410 -0.3637  0.6075
  144MOL   H13134737   5.361   3.487   6.452  0.2875  2.0909  1.1512
  144MOL   H13234738   5.231   3.442   6.563 -1.4093  0.4529 -0.3378
  144MOL   H13334739   5.250   3.363   6.408 -1.3093  0.9132 -0.5101
  144MOL   C13434740   5.321   3.628   6.206 -1.0903  0.2262  0.1428
  144MOL   C13534741   5.358   3.643   6.061  0.0865  0.3360  0.8732
  144MOL   C13634742   5.391   3.510   6.003 -0.1777  0.0575 -0.2421
  144MOL   C13734743   5.397   3.514   5.850 -0.6182 -0.4196  0.2038
  144MOL   H13834744   5.396   3.563   6.251 -0.6588 -0.2143 -1.1862
  144MOL   H13934745   5.325   3.724   6.256  0.7459 -0.2004  0.8478
  144MOL   H14034746   5.266   3.675   6.012  0.4376 -0.9373 -0.6751
  144MOL   H14134747   5.326   3.433   6.045  0.2232 -0.3106 -0.2937
  144MOL   H14234748   5.477   3.466   6.054 -1.4430 -2.4118 -0.1411
  144MOL   H14334749   5.459   3.596   5.813 -0.0734 -1.0746 -0.3312
  144MOL   H14434750   5.419   3.417   5.807 -0.9025 -0.1704 -0.5226
  144MOL   H14534751   5.297   3.522   5.806 -0.0494 -1.4920 -1.3295
  144MOL   C14634752   5.475   3.750   6.035  0.1329  0.0704  0.6182
  144MOL   C14734753   5.437   3.903   6.043 -0.1486 -0.5258 -0.5300
  144MOL   C14834754   5.344   3.947   5.920 -0.9370 -0.1931 -0.5798
  144MOL   C14934755   5.284   4.089   5.935 -0.1733  0.8582 -0.0667
  144MOL   H15034756   5.524   3.729   5.940 -0.1109  1.7255  0.1113
  144MOL   H15134757   5.551   3.733   6.111 -0.1457  0.1035  0.9080
  144MOL   H15234758   5.373   3.921   6.130 -1.7440 -1.1641 -1.5513
  144MOL   H15334759   5.255   3.885   5.913 -1.9001  1.2407 -1.2243
  144MOL   H15434760   5.401   3.943   5.828  0.8715  0.2292  0.5003
  144MOL   H15534761   5.357   4.163   5.902 -0.1613  0.8377 -0.0847
  144MOL   H15634762   5.194   4.114   5.879  0.0657  0.6452 -0.5446
  144MOL   H15734763   5.264   4.120   6.038 -3.7107 -1.4169  0.0197
  144MOL   C15834764   5.566   3.992   6.067 -0.0651  0.6936  0.7249
  144MOL   C15934765   5.679   3.966   5.966  0.1655  0.2217 -0.1257
  144MOL   C16034766   5.818   3.950   6.036 -0.2530 -0.5283 -0.6245
  144MOL   C16134767   5.826   3.812   6.106  0.7908 -0.0998  0.2315
  144MOL   H16234768   5.603   3.950   6.160 -0.2597 -1.4965 -0.1408
  144MOL   H16334769   5.523   4.092   6.072 -4.7426 -1.2548  2.5381
  144MOL   H16434770   5.662   3.870   5.917  0.3094  0.2020 -0.1374
  144MOL   H16534771   5.841   4.034   6.102  0.7333 -1.9071  0.8621
  144MOL   H16634772   5.901   3.955   5.966 -2.5897  0.9671 -3.3917
  144MOL   H16734773   5.827   3.729   6.036 -0.7891  0.2450 -0.2111
  144MOL   H16834774   5.901   3.812   6.185  1.4023  1.9465 -0.3208
  144MOL   H16934775   5.740   3.795   6.171  0.7532 -1.4516 -0.1622
  144MOL   C17034776   5.676   4.082   5.871 -0.0742 -0.6191 -0.0269
  144MOL   C17134777   5.761   4.074   5.743  0.4086  0.1504 -1.0272
  144MOL   C17234778   5.789   4.209   5.685  0.4260  0.5220 -0.2144
  144MOL   C17334779   5.896   4.286   5.763  0.6901 -0.3667 -0.1694
  144MOL   H17434780   5.716   4.174   5.912 -0.9991 -0.7302  1.1471
  144MOL   H17534781   5.575   4.100   5.833 -0.2519  0.8017  1.1019
  144MOL   H17634782   5.860   4.041   5.773  0.5608  1.0939 -0.4725
  144MOL   H17734783   5.700   4.267   5.663 -1.1854 -0.6895  2.8463
  144MOL   H17834784   5.836   4.193   5.588  0.7071 -0.1847  0.0343
  144MOL   H17934785   5.860   4.328   5.856  0.0678 -0.2934 -0.4416
  144MOL   H18034786   5.983   4.222   5.779  1.4944  0.0043 -2.8629
  144MOL   H18134787   5.931   4.362   5.693  0.6964 -1.5046 -1.4245
  144MOL   C18234788   5.722   3.964   5.639 -0.0256 -1.0135 -0.4362
  144MOL   C18334789   5.826   3.923   5.539  0.1571  0.2196 -0.2543
  144MOL   C18434790   5.776   3.954   5.405 -0.7209  0.0827 -1.0953
  144MOL   C18534791   5.649   3.886   5.356  0.2327 -0.0447 -0.3252
  144MOL   H18634792   5.643   4.023   5.592  0.4421  0.3592  0.4798
  144MOL   H18734793   5.673   3.878   5.684 -0.4742  0.5185  2.0891
  144MOL   H18834794   5.916   3.982   5.553  0.0216  0.3330  0.1506
  144MOL   H18934795   5.858   3.937   5.336 -0.4090  0.1545 -0.7440
  144MOL   H19034796   5.766   4.062   5.409  0.4643  0.1496  0.3838
  144MOL   H19134797   5.616   3.928   5.261 -1.3213  0.1109  0.2695
  144MOL   H19234798   5.659   3.782   5.328 -2.1726 -0.7900  1.4597
  144MOL   H19334799   5.568   3.905   5.427  0.9421  0.3067  0.4047
  144MOL   C19434800   5.867   3.770   5.556 -0.0140 -0.0910  0.1240
  144MOL   C19534801   5.945   3.737   5.688 -0.7857 -0.2650 -0.1196
  144MOL   C19634802   6.063   3.835   5.731  0.2470 -0.0784  0.6289
  144MOL   C19734803   6.175   3.866   5.629 -0.2811  0.6002  0.7252
  144MOL   H19834804   5.931   3.730   5.477 -0.5456 -2.1809  0.7233
  144MOL   H19934805   5.783   3.702   5.542 -1.8967  2.6368 -2.6061
  144MOL   H20034806   5.867   3.756   5.761 -0.2348 -1.4743  0.8137
  144MOL   H20134807   6.102   3.790   5.822 -0.0271  0.4674  1.0238
  144MOL   H20234808   6.016   3.928   5.764 -2.5468 -0.5212 -1.8327
  144MOL   H20334809   6.221   3.961   5.656  3.5866 -0.7850 -0.5771
  144MOL   H20434810   6.260   3.798   5.626  0.1542  1.0705  1.9387
  144MOL   H20534811   6.134   3.892   5.532  0.7907  0.2748  0.1753
  144MOL   C20634812   5.989   3.588   5.676  0.0059 -0.1185 -0.0831
  144MOL   C20734813   5.890   3.480   5.619  0.5388 -0.4195 -0.0166
  144MOL   C20834814   5.761   3.472   5.710  0.1324 -0.0972 -0.2632
  144MOL   C20934815   5.779   3.401   5.851  0.1496 -0.6207 -0.2053
  144MOL   H21034816   6.033   3.563   5.772  0.3612 -0.6051 -0.3704
  144MOL   H21134817   6.075   3.596   5.609  0.3904  0.7224  0.5028
  144MOL   H21234818   5.854   3.498   5.518 -2.1204 -1.7350  0.6457
  144MOL   H21334819   5.679   3.419   5.663  0.2790 -0.3145 -0.2719
  144MOL   H21434820   5.711   3.569   5.703 -0.1929 -0.2814 -0.5032
  144MOL   H21534821   5.687   3.410   5.908 -0.1039  1.9541 -0.9688
  144MOL   H21634822   5.796   3.294   5.834  1.5770 -0.5722  0.7923
  144MOL   H21734823   5.865   3.437   5.907  0.1534 -1.1853  0.1577
  144MOL   C21834824   5.963   3.341   5.612 -0.2505 -0.4020  0.6725
  144MOL   C21934825   6.070   3.336   5.504 -0.1678  0.1619  0.6585
  144MOL   C22034826   6.018   3.318   5.363  0.0423 -0.1843 -0.0141
  144MOL   C22134827   6.012   3.447   5.280 -0.0782  0.0982 -0.3771
  144MOL   H22234828   5.891   3.266   5.578 -0.6045  0.7045 -1.1060
  144MOL   H22334829   6.003   3.323   5.711  0.0118 -0.5201  0.5456
  144MOL   H22434830   6.122   3.432   5.505  0.3023 -0.0949  2.3420
  144MOL   H22534831   5.916   3.279   5.357  0.9595 -2.4779 -1.4680
  144MOL   H22634832   6.075   3.240   5.313  1.2358  0.0356  0.9849
  144MOL   H22734833   5.933   3.513   5.315 -0.4100  0.1653 -1.2510
  144MOL   H22834834   6.110   3.495   5.286 -0.6294  1.3876 -1.4190
  144MOL   H22934835   5.999   3.423   5.174  0.4462 -1.7894 -0.0408
  144MOL   C23034836   6.184   3.219   5.535  0.0972 -0.1144  0.1811
  144MOL   C23134837   6.264   3.263   5.655 -0.9532 -0.9194  0.4402
  144MOL   C23234838   6.387   3.185   5.694 -0.1133 -0.2181  0.7015
  144MOL   C23334839   6.444   3.227   5.833  0.3231  0.1118  0.1538
  144MOL   H23434840   6.243   3.196   5.446  0.5490 -0.8535  0.6713
  144MOL   H23534841   6.130   3.132   5.574  0.4373 -0.9024 -1.0729
  144MOL   H23634842   6.300   3.364   5.636 -0.3229 -0.9071  1.6479
  144MOL   H23734843   6.462   3.196   5.615 -0.0012 -1.0772  0.6857
  144MOL   H23834844   6.372   3.078   5.682 -1.1354  0.0323 -0.3267
  144MOL   H23934845   6.380   3.200   5.917 -0.3109 -0.7541 -0.5919
  144MOL   H24034846   6.540   3.179   5.854  0.2099  0.0597  0.5612
  144MOL   H24134847   6.468   3.333   5.836 -1.2722  0.5121 -1.1255
  144MOL   H24234848   6.203   3.267   5.746 -2.1330 -1.4865 -0.3059
  145MOL     C134849   2.597   4.066   6.165  0.3062 -0.0811 -0.4014
  145MOL     C234850   2.561   3.986   6.041  0.0953  0.1392 -0.3186
  145MOL     C334851   2.545   4.084   5.918  0.2367 -0.9054 -0.1257
  145MOL     C434852   2.666   4.088   5.828  0.8307 -0.1157 -0.5196
  145MOL     H534853   2.626   3.990   6.237 -0.1592 -1.1463 -1.3170
  145MOL     H634854   2.685   4.125   6.143 -0.3321  0.5047 -1.4674
  145MOL     H734855   2.651   3.931   6.015  0.7037  0.6652  0.6405
  145MOL     H834856   2.520   4.183   5.953 -1.3983 -1.5375  0.5223
  145MOL     H934857   2.462   4.051   5.855 -0.7333  3.2912 -1.1563
  145MOL    H1034858   2.636   4.130   5.732  0.5034 -0.0159 -0.3716
  145MOL    H1134859   2.741   4.148   5.879  0.0169  0.2897  0.1888
  145MOL    H1234860   2.707   3.989   5.806  1.8126 -0.2680  1.8941
  145MOL    H1334861   2.518   4.128   6.206 -2.0088 -2.7598 -0.6238
  145MOL    C1434862   2.444   3.886   6.065 -0.7102  0.2247  0.3507
  145MOL    C1534863   2.390   3.796   5.943  0.2147  1.1241 -0.3619
  145MOL    C1634864   2.261   3.714   5.975  0.5692 -0.0886  0.2132
  145MOL    C1734865   2.148   3.806   6.015  0.0785 -0.0115  0.1310
  145MOL    H1834866   2.355   3.938   6.101 -1.4986 -0.8101 -0.0919
  145MOL    H1934867   2.471   3.820   6.148  0.0609 -1.0479 -0.8935
  145MOL    H2034868   2.371   3.859   5.856  0.5867 -0.4512 -1.6020
  145MOL    H2134869   2.280   3.632   6.044  4.1741 -0.7659 -1.4845
  145MOL    H2234870   2.226   3.670   5.882 -1.8423  0.7240  0.6748
  145MOL    H2334871   2.173   3.856   6.108 -0.4240 -2.9516  1.9300
  145MOL    H2434872   2.131   3.882   5.940 -0.2251  0.5510  0.7670
  145MOL    H2534873   2.048   3.763   6.026  1.1900 -2.3448  1.8137
  145MOL    C2634874   2.504   3.697   5.906 -0.5168 -0.2678 -0.0182
  145MOL    C2734875   2.497   3.645   5.760  0.2311  0.3887 -0.3461
  145MOL    C2834876   2.570   3.505   5.750 -0.0788  0.0389 -0.2831
  145MOL    C2934877   2.725   3.513   5.744 -0.2874 -0.3604 -1.0387
  145MOL    H3034878   2.506   3.611   5.973 -0.0206 -1.0345 -1.0138
  145MOL    H3134879   2.604   3.740   5.905 -0.0412 -1.3961 -2.7091
  145MOL    H3234880   2.391   3.635   5.739  0.4390  0.2545 -1.3577
  145MOL    H3334881   2.531   3.465   5.656  0.7691  0.4098 -0.7891
  145MOL    H3434882   2.544   3.433   5.828  0.5965  0.3819  0.2634
  145MOL    H3534883   2.758   3.560   5.837  0.5498 -2.5415 -0.1887
  145MOL    H3634884   2.769   3.413   5.753  1.8869  0.7293  1.2463
  145MOL    H3734885   2.774   3.562   5.660 -1.4329 -0.6275 -1.8668
  145MOL    C3834886   2.543   3.748   5.657 -0.9774  0.0263  0.1563
  145MOL    C3934887   2.533   3.715   5.505  0.3835 -0.0938 -0.3028
  145MOL    C4034888   2.587   3.831   5.418  0.4781 -0.0599 -0.0377
  145MOL    C4134889   2.739   3.839   5.406  0.3240 -0.2043 -0.1215
  145MOL    H4234890   2.652   3.757   5.662 -0.7712 -2.2538  0.4512
  145MOL    H4334891   2.506   3.849   5.674 -3.8373 -0.8374 -0.7693
  145MOL    H4434892   2.575   3.617   5.480  0.6522 -0.0482 -0.0340
  145MOL    H4534893   2.542   3.925   5.449 -1.3307 -0.6756 -0.7622
  145MOL    H4634894   2.545   3.820   5.318 -1.4508 -1.8739  0.9464
  145MOL    H4734895   2.776   3.896   5.321 -2.2554  1.7766  0.0091
  145MOL    H4834896   2.781   3.877   5.500 -0.6778  1.9763 -0.5304
  145MOL    H4934897   2.775   3.737   5.403 -0.4094 -0.4209 -1.5830
  145MOL    C5034898   2.385   3.698   5.463 -0.6576 -0.2806  0.0005
  145MOL    C5134899   2.333   3.552   5.447 -0.2704  0.4059  1.0048
  145MOL    C5234900   2.360   3.504   5.299  0.0690  0.5328  0.2423
  145MOL    C5334901   2.400   3.355   5.292  0.1112  0.3097 -0.2453
  145MOL    H5434902   2.366   3.738   5.364  0.9452  0.8950  0.1564
  145MOL    H5534903   2.320   3.742   5.539  0.8850 -2.1798  2.5030
  145MOL    H5634904   2.392   3.489   5.514 -0.4682 -2.4189 -1.3699
  145MOL    H5734905   2.444   3.562   5.261  0.4942 -0.2890 -0.0967
  145MOL    H5834906   2.269   3.524   5.243  0.2193  1.0586  0.1849
  145MOL    H5934907   2.330   3.290   5.343 -2.3943  1.2607 -2.3604
  145MOL    H6034908   2.408   3.327   5.187  1.7229  0.7868 -0.2663
  145MOL    H6134909   2.496   3.329   5.337 -0.0495 -0.3712 -0.3000
  145MOL    C6234910   2.183   3.535   5.472  0.1920 -0.0304  0.2293
  145MOL    C6334911   2.136   3.527   5.617  0.3063 -0.3664  0.4497
  145MOL    C6434912   2.157   3.390   5.689 -0.1593  0.3373 -0.5382
  145MOL    C6534913   2.181   3.398   5.844  0.3796 -0.2452  0.6617
  145MOL    H6634914   2.139   3.452   5.417  0.3741  0.5874 -0.8623
  145MOL    H6734915   2.142   3.629   5.435 -1.0273 -0.1608  1.2234
  145MOL    H6834916   2.201   3.594   5.674 -0.4362  0.3402  0.4679
  145MOL    H6934917   2.246   3.347   5.643 -1.1242 -2.4102  0.0669
  145MOL    H7034918   2.082   3.314   5.669 -0.3093  0.3694 -0.1103
  145MOL    H7134919   2.085   3.439   5.876 -0.1044 -1.1673  0.4164
  145MOL    H7234920   2.180   3.295   5.880  0.4023 -0.1029  1.0725
  145MOL    H7334921   2.260   3.454   5.893 -0.3423  0.1566  1.3832
  145MOL    C7434922   1.991   3.589   5.646  0.5950  0.1012 -0.3798
  145MOL    C7534923   1.870   3.498   5.628  1.3017 -0.2807 -0.1233
  145MOL    C7634924   1.838   3.467   5.481 -0.3595 -0.4644 -0.0814
  145MOL    C7734925   1.822   3.573   5.374 -0.2213  0.2675 -0.1799
  145MOL    H7834926   1.980   3.664   5.568  1.1176  0.1062 -0.4537
  145MOL    H7934927   1.985   3.640   5.741 -0.4930  1.0108 -0.9269
  145MOL    H8034928   1.884   3.406   5.684  0.7210  0.1067  0.6582
  145MOL    H8134929   1.747   3.407   5.477 -0.0322 -0.9925  0.2742
  145MOL    H8234930   1.911   3.394   5.445  1.4952  0.3334  1.9650
  145MOL    H8334931   1.761   3.654   5.414 -0.6547 -0.4589  0.6403
  145MOL    H8434932   1.918   3.619   5.349 -1.2817  1.1859 -2.8200
  145MOL    H8534933   1.787   3.528   5.281 -2.1977  2.1311 -0.3600
  145MOL    C8634934   1.752   3.579   5.689 -0.3018  0.1591  0.3429
  145MOL    C8734935   1.610   3.517   5.683 -0.0850 -0.0698  0.3022
  145MOL    C8834936   1.504   3.614   5.753  0.1534  0.4935  0.1765
  145MOL    C8934937   1.362   3.588   5.708 -0.4173 -0.1548  0.4469
  145MOL    H9034938   1.739   3.680   5.650  1.1440  0.1585 -0.1666
  145MOL    H9134939   1.773   3.593   5.795 -1.2019 -1.0098  0.6901
  145MOL    H9234940   1.570   3.511   5.582  0.8514  0.9419 -0.1305
  145MOL    H9334941   1.531   3.718   5.737  4.0814 -0.0621  2.5017
  145MOL    H9434942   1.518   3.617   5.861 -0.4771 -1.6893  0.3364
  145MOL    H9534943   1.356   3.551   5.606 -0.1335  1.7252 -0.2532
  145MOL    H9634944   1.306   3.509   5.760 -1.0777 -0.0095 -0.0448
  145MOL    H9734945   1.300   3.677   5.701 -0.4943 -0.1368  1.2772
  145MOL    C9834946   1.602   3.370   5.747  0.1968  0.4123 -0.0257
  145MOL    C9934947   1.570   3.249   5.658 -0.3045 -0.4064 -0.2733
  145MOL   C10034948   1.431   3.257   5.595 -0.0014  0.3766 -0.0898
  145MOL   C10134949   1.398   3.143   5.500 -0.4118  0.2829 -0.2893
  145MOL   H10234950   1.522   3.379   5.820  0.6573  3.6899  0.1743
  145MOL   H10334951   1.691   3.337   5.802  1.1034  1.7378 -0.6551
  145MOL   H10434952   1.645   3.252   5.579 -1.8506  0.1140 -1.7550
  145MOL   H10534953   1.410   3.351   5.544  2.2484  2.3813  2.5529
  145MOL   H10634954   1.360   3.253   5.678 -0.4026  1.4668 -0.3677
  145MOL   H10734955   1.308   3.166   5.443  0.5023 -0.3523 -2.0177
  145MOL   H10834956   1.481   3.124   5.433  1.0413  1.3650  1.1619
  145MOL   H10934957   1.388   3.048   5.554  0.1523  0.3961  0.0254
  145MOL   C11034958   1.604   3.115   5.738 -0.3438 -0.8978 -0.3585
  145MOL   C11134959   1.753   3.071   5.749 -0.0117  0.0658 -0.3894
  145MOL   C11234960   1.793   2.950   5.661  0.4764  0.1428  0.6536
  145MOL   C11334961   1.753   2.958   5.515 -0.2755 -0.5067 -0.8598
  145MOL   H11434962   1.549   3.029   5.701  1.0488 -1.9929  0.0885
  145MOL   H11534963   1.572   3.129   5.841  3.9689  0.0339  0.9258
  145MOL   H11634964   1.811   3.154   5.709  1.4630 -1.4492 -1.4615
  145MOL   H11734965   1.774   2.849   5.696  4.1549 -1.0829 -0.6100
  145MOL   H11834966   1.901   2.961   5.652  0.5880 -1.7057 -0.7296
  145MOL   H11934967   1.650   2.991   5.498 -0.3454 -0.4321 -0.3130
  145MOL   H12034968   1.811   3.032   5.460 -0.2008  1.0933  1.2611
  145MOL   H12134969   1.772   2.860   5.473  1.2959 -0.9229  0.7450
  145MOL   C12234970   1.787   3.033   5.893 -0.2665 -0.1545 -0.5985
  145MOL   C12334971   1.920   2.953   5.918  0.3415 -0.7053  0.4730
  145MOL   C12434972   1.933   2.891   6.056 -0.6455  0.6062  0.2929
  145MOL   C12534973   1.922   2.994   6.168 -0.3884  0.1906 -0.3157
  145MOL   H12634974   1.710   2.973   5.942 -0.7108  0.8971 -0.0083
  145MOL   H12734975   1.782   3.124   5.952  0.9346 -0.4004 -0.1038
  145MOL   H12834976   1.925   2.869   5.848 -0.2109  0.1414 -0.6039
  145MOL   H12934977   2.021   2.832   6.081  0.9747  3.3012  1.0702
  145MOL   H13034978   1.859   2.811   6.058  0.6601 -0.6042  1.9633
  145MOL   H13134979   2.000   3.067   6.187 -0.1243  0.2035 -1.4292
  145MOL   H13234980   1.835   3.059   6.154 -1.1278 -1.0770 -1.7555
  145MOL   H13334981   1.917   2.943   6.264  2.1844 -2.6610 -1.6116
  145MOL   C13434982   2.046   3.042   5.881  0.3518  0.2093  0.4481
  145MOL   C13534983   2.176   2.959   5.863 -0.1877 -0.8807 -0.3908
  145MOL   C13634984   2.295   2.996   5.952 -0.6009 -0.9983 -0.1110
  145MOL   C13734985   2.419   2.909   5.934 -0.5443 -0.2271 -0.4485
  145MOL   H13834986   2.066   3.122   5.952  2.6437  0.6835 -0.6626
  145MOL   H13934987   2.024   3.107   5.796  2.0764 -1.1071 -1.0664
  145MOL   H14034988   2.154   2.856   5.887  1.6384 -1.3611 -0.6544
  145MOL   H14134989   2.261   2.996   6.056 -0.3990  1.3422 -0.0240
  145MOL   H14234990   2.320   3.102   5.944  1.3955 -1.6491 -3.2610
  145MOL   H14334991   2.438   2.914   5.827  0.1012  3.3065 -0.2413
  145MOL   H14434992   2.503   2.941   5.997  0.6695 -1.1440 -1.5878
  145MOL   H14534993   2.407   2.802   5.947 -0.1328 -0.3132 -0.7698
  145MOL   C14634994   2.204   2.951   5.709 -0.1231  0.0229 -0.2646
  145MOL   C14734995   2.240   2.810   5.655  0.3346  0.1642 -0.2538
  145MOL   C14834996   2.328   2.822   5.525 -0.5503 -0.0416  0.0813
  145MOL   C14934997   2.252   2.863   5.396  0.7317  0.5330  0.2506
  145MOL   H15034998   2.276   3.029   5.686 -1.6871  0.8024 -2.6974
  145MOL   H15134999   2.126   2.997   5.649 -1.4640 -1.6521  0.1408
  145MOL   H15235000   2.309   2.767   5.727  1.0489  0.9531 -0.4539
  145MOL   H15335001   2.376   2.725   5.515 -1.6120 -0.6520  0.7857
  145MOL   H15435002   2.407   2.896   5.541 -0.3341 -0.3173  0.2872
  145MOL   H15535003   2.318   2.859   5.310 -2.0916 -0.0880 -1.9608
  145MOL   H15635004   2.164   2.807   5.363  0.0190  0.9815  1.3629
  145MOL   H15735005   2.214   2.963   5.414 -1.0121  0.2236 -1.5858
  145MOL   C15835006   2.123   2.701   5.633 -0.3468  0.0343 -0.4562
  145MOL   C15935007   2.161   2.558   5.583  0.4031 -0.0015 -0.0058
  145MOL   C16035008   2.042   2.481   5.529 -0.5113 -0.2694  0.0351
  145MOL   C16135009   1.963   2.534   5.394  0.0430 -0.1592 -0.4427
  145MOL   H16235010   2.052   2.737   5.558 -0.7705 -1.7939 -0.9690
  145MOL   H16335011   2.060   2.703   5.722 -1.6954  0.3582 -1.3975
  145MOL   H16435012   2.227   2.562   5.496  2.2798  0.8364  1.4239
  145MOL   H16535013   1.963   2.481   5.604 -1.0205 -0.1652 -0.4914
  145MOL   H16635014   2.068   2.375   5.523 -0.4618 -0.2430 -0.2023
  145MOL   H16735015   2.023   2.574   5.312 -0.0820  0.0974 -0.4114
  145MOL   H16835016   1.911   2.451   5.346  0.4014  0.3322 -1.7116
  145MOL   H16935017   1.889   2.613   5.408 -1.4034 -1.6532  0.5344
  145MOL   C17035018   2.242   2.482   5.694 -0.4580 -0.2998  0.0085
  145MOL   C17135019   2.322   2.356   5.652  0.5790 -0.1784  0.0179
  145MOL   C17235020   2.360   2.275   5.776 -0.7443 -0.4081 -0.8438
  145MOL   C17335021   2.474   2.329   5.871 -0.5871 -0.6669 -0.6042
  145MOL   H17435022   2.174   2.463   5.777  1.3843  0.0157  1.6147
  145MOL   H17535023   2.310   2.556   5.735 -0.3596 -0.5607  0.3180
  145MOL   H17635024   2.250   2.294   5.599  1.0636 -2.9842  2.5140
  145MOL   H17735025   2.388   2.174   5.744  1.9020  1.1600 -3.6786
  145MOL   H17835026   2.270   2.269   5.837 -0.4099  0.9090 -0.2250
  145MOL   H17935027   2.457   2.432   5.902  0.6598 -0.2441 -1.2723
  145MOL   H18035028   2.471   2.255   5.951 -0.7417 -0.8045 -0.7394
  145MOL   H18135029   2.575   2.325   5.830 -0.3333  2.8852 -0.5198
  145MOL   C18235030   2.444   2.379   5.561  0.6145  0.1254 -0.2180
  145MOL   C18335031   2.502   2.254   5.489 -0.1305 -0.6812  0.2305
  145MOL   C18435032   2.644   2.278   5.433  0.0125  0.6145 -0.9670
  145MOL   C18535033   2.751   2.310   5.541  0.6008 -0.0229 -0.3290
  145MOL   H18635034   2.526   2.425   5.617  1.3401 -1.0861 -0.2722
  145MOL   H18735035   2.435   2.459   5.488 -0.3160 -1.4859 -1.9118
  145MOL   H18835036   2.513   2.175   5.563 -0.2797  0.3745  1.3758
  145MOL   H18935037   2.650   2.362   5.365  1.6616 -1.5149 -3.5669
  145MOL   H19035038   2.692   2.189   5.390  1.9798  0.8801  0.6020
  145MOL   H19135039   2.736   2.410   5.581  1.6870  0.6338 -1.5150
  145MOL   H19235040   2.745   2.243   5.626 -2.9434  1.0957  0.3674
  145MOL   H19335041   2.850   2.307   5.493  1.9728 -0.0015  2.4025
  145MOL   C19435042   2.395   2.208   5.378 -0.1151  0.1663 -0.5237
  145MOL   C19535043   2.443   2.102   5.276 -0.0325 -0.0665  0.3943
  145MOL   C19635044   2.335   2.064   5.172  0.3681  0.1224  0.7593
  145MOL   C19735045   2.283   2.185   5.090 -0.2140 -0.1035 -0.7409
  145MOL   H19835046   2.369   2.300   5.327 -1.4551 -0.2107 -0.5272
  145MOL   H19935047   2.307   2.179   5.435  0.7250  2.3711  1.9533
  145MOL   H20035048   2.524   2.143   5.215 -0.0088  0.6611  0.9039
  145MOL   H20135049   2.259   2.009   5.227  0.1340 -0.1276  0.1967
  145MOL   H20235050   2.372   1.990   5.101  0.5374  2.1262 -1.3248
  145MOL   H20335051   2.211   2.144   5.019  1.3050 -0.4914 -2.1079
  145MOL   H20435052   2.231   2.253   5.157  0.9440  0.0559  0.0062
  145MOL   H20535053   2.359   2.247   5.042 -0.2029 -1.9022 -3.1758
  145MOL   C20635054   2.497   1.979   5.351  0.2540 -0.3916 -0.7715
  145MOL   C20735055   2.568   1.870   5.261 -0.5253  0.0938  0.6401
  145MOL   C20835056   2.613   1.745   5.339 -0.4453 -0.8513 -0.4093
  145MOL   C20935057   2.508   1.655   5.397  0.1009  0.2582 -0.3883
  145MOL   H21035058   2.405   1.946   5.399 -0.7783  0.9688 -1.7580
  145MOL   H21135059   2.566   2.001   5.432 -1.3066 -2.0780  1.0546
  145MOL   H21235060   2.497   1.831   5.188 -0.9879 -0.9595  1.6405
  145MOL   H21335061   2.676   1.795   5.413  3.3846 -0.2311 -3.8777
  145MOL   H21435062   2.688   1.688   5.284  1.1261 -1.0203  1.8305
  145MOL   H21535063   2.551   1.594   5.476 -0.4246 -2.2744 -1.9885
  145MOL   H21635064   2.422   1.710   5.435 -0.3711 -0.2270 -0.7441
  145MOL   H21735065   2.468   1.587   5.322  0.3911  0.5346 -0.7988
  145MOL   C21835066   2.672   1.932   5.160  0.2996 -0.5412  0.0157
  145MOL   C21935067   2.753   1.837   5.065  0.3969  0.5361 -0.1537
  145MOL   C22035068   2.844   1.921   4.972 -0.2433  0.0046  1.0236
  145MOL   C22135069   2.962   1.991   5.036  0.4114 -0.3279  0.8145
  145MOL   H22235070   2.743   1.986   5.223 -1.5046 -0.0590  1.6961
  145MOL   H22335071   2.624   2.009   5.098 -2.0459 -1.3145  0.8069
  145MOL   H22435072   2.825   1.778   5.122  1.2046  0.7655 -0.9127
  145MOL   H22535073   2.786   1.992   4.915 -0.0937 -2.7055 -2.7054
  145MOL   H22635074   2.880   1.866   4.885  2.7582  2.3377  0.6835
  145MOL   H22735075   2.932   2.057   5.117  3.0471  3.7772 -1.3480
  145MOL   H22835076   3.027   1.913   5.074 -0.4002 -1.2591  0.3338
  145MOL   H22935077   3.035   2.044   4.974 -0.5051  2.0124  1.6503
  145MOL   C23035078   2.662   1.739   4.993 -0.5062  1.1528  0.1235
  145MOL   C23135079   2.718   1.650   4.873 -0.4020 -0.2378  0.0436
  145MOL   C23235080   2.812   1.542   4.928  0.1160  0.9553  0.0361
  145MOL   C23335081   2.730   1.416   4.956  0.2153  0.1253 -0.8944
  145MOL   H23435082   2.592   1.797   4.933 -0.7904 -0.0972 -0.7518
  145MOL   H23535083   2.611   1.671   5.061  0.7042 -0.1346 -0.2525
  145MOL   H23635084   2.638   1.606   4.813 -1.4684  0.3738  0.9977
  145MOL   H23735085   2.879   1.574   5.008  0.0541  1.7998 -0.2411
  145MOL   H23835086   2.884   1.513   4.852 -0.4469  0.0295 -0.1486
  145MOL   H23935087   2.800   1.338   4.987  0.3543  1.0255  1.1263
  145MOL   H24035088   2.652   1.427   5.031 -0.5229 -0.9082 -1.4896
  145MOL   H24135089   2.691   1.373   4.864  0.4979 -0.9142 -0.5391
  145MOL   H24235090   2.766   1.722   4.807 -2.2596  0.6217 -0.4091
  146MOL     C135091   0.053   2.977   0.645  0.8648 -0.0799 -0.3049
  146MOL     C235092   7.606   2.994   0.674  0.2780 -0.1119 -0.4426
  146MOL     C335093   7.550   3.142   0.676 -0.1542  0.0272 -0.3691
  146MOL     C435094   7.645   3.237   0.746  0.3020 -0.8376  0.0724
  146MOL     H535095   0.079   2.872   0.635  1.5606  0.0323  0.3369
  146MOL     H635096   0.078   3.014   0.545  3.6157  0.3158  0.4814
  146MOL     H735097   7.562   2.958   0.581 -2.5225  2.5110 -0.1904
  146MOL     H835098   7.459   3.147   0.735  0.4764 -1.0586  0.7196
  146MOL     H935099   7.521   3.172   0.575 -0.7569  1.2818  0.1721
  146MOL    H1035100   7.689   3.205   0.840  0.3559 -0.7612  0.0731
  146MOL    H1135101   0.030   3.250   0.688  0.6054 -2.8568  0.0611
  146MOL    H1235102   7.598   3.335   0.760  0.3762 -0.7126 -0.5444
  146MOL    H1335103   0.115   3.021   0.723  0.3917 -0.9196  0.5530
  146MOL    C1435104   7.557   2.915   0.792  0.2181  0.1536  0.1403
  146MOL    C1535105   7.404   2.876   0.793  0.6786 -0.2167 -0.0314
  146MOL    C1635106   7.370   2.846   0.938  0.0727  0.1414  0.1450
  146MOL    C1735107   7.345   2.977   1.019 -0.1068  0.0879 -0.6988
  146MOL    H1835108   7.588   2.968   0.882  3.5852 -1.9880  0.3125
  146MOL    H1935109   7.609   2.823   0.815 -0.0833 -0.4755 -1.6411
  146MOL    H2035110   7.341   2.959   0.761  1.3376  0.2989 -0.0072
  146MOL    H2135111   7.450   2.787   0.982 -0.0767  0.1672  0.4521
  146MOL    H2235112   7.279   2.788   0.955  0.0096  0.1097 -0.2875
  146MOL    H2335113   7.331   3.063   0.954 -1.6553 -0.8709 -1.6635
  146MOL    H2435114   7.262   2.971   1.089  2.1559  1.1338  2.1874
  146MOL    H2535115   7.434   3.001   1.077  0.8644 -2.0736 -1.2451
  146MOL    C2635116   7.386   2.762   0.700 -0.6182 -0.3707  0.1874
  146MOL    C2735117   7.248   2.730   0.639  0.3048 -0.0199  0.1456
  146MOL    C2835118   7.246   2.596   0.573 -0.7031 -0.3003 -0.5883
  146MOL    C2935119   7.257   2.490   0.679 -0.7912  0.0664 -0.0954
  146MOL    H3035120   7.423   2.689   0.770 -0.0645  1.7423  2.1556
  146MOL    H3135121   7.455   2.775   0.616  1.2347 -1.5050  1.5149
  146MOL    H3235122   7.173   2.739   0.717  1.6815  1.6844  1.3231
  146MOL    H3335123   7.322   2.588   0.496 -0.9123  0.6784 -0.9053
  146MOL    H3435124   7.147   2.595   0.528 -0.6715 -1.4391 -0.6258
  146MOL    H3535125   7.191   2.506   0.764 -0.1129 -1.1079  0.6671
  146MOL    H3635126   7.224   2.390   0.650 -0.4661  1.0291 -4.0647
  146MOL    H3735127   7.358   2.485   0.718 -1.3409  1.8936  1.6683
  146MOL    C3835128   7.207   2.844   0.532 -0.3676 -0.4541  0.1441
  146MOL    C3935129   7.056   2.853   0.481  0.4424  0.4646 -0.4564
  146MOL    C4035130   7.039   2.972   0.372  0.4689  0.4721  0.3519
  146MOL    C4135131   6.984   2.921   0.235 -0.3617 -0.0007 -0.3800
  146MOL    H4235132   7.278   2.852   0.449  0.5855  1.4229  1.1262
  146MOL    H4335133   7.234   2.937   0.580 -0.0488 -0.3518 -0.2338
  146MOL    H4435134   7.041   2.760   0.426 -0.2967  0.2740  0.0677
  146MOL    H4535135   7.131   3.029   0.355 -0.3412  2.6000  2.6626
  146MOL    H4635136   6.974   3.048   0.416  2.0482  1.4594  1.0492
  146MOL    H4735137   7.051   2.861   0.175  0.7485  0.1831  0.6594
  146MOL    H4835138   6.886   2.874   0.239 -0.2313 -0.3203 -0.9002
  146MOL    H4935139   6.950   2.992   0.159 -2.4558 -0.1960  0.3457
  146MOL    C5035140   6.948   2.857   0.587 -0.6891 -0.5344 -0.1879
  146MOL    C5135141   6.938   2.983   0.676  0.7067  0.0503  0.1113
  146MOL    C5235142   7.020   2.987   0.809 -0.0648  0.5553 -0.3073
  146MOL    C5335143   6.979   2.873   0.909  0.6103 -0.3821 -0.4134
  146MOL    H5435144   6.952   2.766   0.647  0.2260 -1.2317 -1.2996
  146MOL    H5535145   6.851   2.850   0.537 -0.3793 -1.0519 -0.7110
  146MOL    H5635146   6.986   3.063   0.620  0.6363  0.2845  0.3813
  146MOL    H5735147   7.019   3.084   0.859  0.8573  1.3748 -1.8430
  146MOL    H5835148   7.121   2.966   0.776  0.0571  0.4368  0.1418
  146MOL    H5935149   7.010   2.772   0.885 -1.7084 -2.0907  3.3329
  146MOL    H6035150   7.028   2.893   1.004  0.0363 -0.3432 -0.1235
  146MOL    H6135151   6.870   2.864   0.918  0.7195  0.4887  1.9107
  146MOL    C6235152   6.793   3.035   0.695  0.5281  0.0880 -0.2838
  146MOL    C6335153   6.736   3.129   0.583  0.3201 -0.4591  0.1007
  146MOL    C6435154   6.769   3.277   0.607  0.1778  0.8857 -0.0401
  146MOL    C6535155   6.921   3.312   0.626  0.6145  0.2118 -0.0105
  146MOL    H6635156   6.799   3.084   0.792  0.7314  0.0721 -0.2887
  146MOL    H6735157   6.733   2.945   0.711  0.5552  0.1294  0.0475
  146MOL    H6835158   6.785   3.089   0.494 -0.1746 -3.0776  0.9492
  146MOL    H6935159   6.708   3.312   0.691  1.3084  0.8066  0.8329
  146MOL    H7035160   6.748   3.334   0.516  0.5837  2.3462  0.7595
  146MOL    H7135161   6.962   3.290   0.724  0.5638  2.1029  0.4381
  146MOL    H7235162   6.984   3.272   0.547  1.5970  1.4893  0.1188
  146MOL    H7335163   6.925   3.420   0.636 -4.2412  0.4201  0.9578
  146MOL    C7435164   6.581   3.105   0.577 -0.6422  0.0788  0.0543
  146MOL    C7535165   6.515   3.166   0.453  0.5869 -0.1341  0.7503
  146MOL    C7635166   6.576   3.146   0.314  0.7180  0.6384 -0.2173
  146MOL    C7735167   6.586   2.989   0.294  0.1732 -0.4226 -0.3479
  146MOL    H7835168   6.533   3.151   0.663  2.5991  2.1877  0.7749
  146MOL    H7935169   6.566   2.997   0.575  1.0794 -0.2051  1.4412
  146MOL    H8035170   6.422   3.110   0.440  0.9744 -0.2266 -2.0272
  146MOL    H8135171   6.671   3.201   0.309  0.3497  1.2612 -0.3588
  146MOL    H8235172   6.522   3.187   0.229  1.2895  0.4954 -0.6568
  146MOL    H8335173   6.642   2.965   0.204  0.7531  0.2233 -0.1579
  146MOL    H8435174   6.634   2.928   0.371 -0.4720  0.4100  0.7324
  146MOL    H8535175   6.488   2.945   0.275 -0.6805  1.6150 -0.7256
  146MOL    C8635176   6.471   3.317   0.471  0.0428  0.1088  0.2385
  146MOL    C8735177   6.326   3.350   0.402 -0.4795 -0.4560  0.0235
  146MOL    C8835178   6.305   3.503   0.399  0.1186 -0.0451 -0.4018
  146MOL    C8935179   6.406   3.578   0.318 -0.4670 -0.5164  0.7113
  146MOL    H9035180   6.556   3.379   0.444  0.7391 -0.8743  0.1670
  146MOL    H9135181   6.454   3.345   0.575 -1.1757  3.0969 -0.7240
  146MOL    H9235182   6.331   3.310   0.301 -0.2839  0.8482 -0.4900
  146MOL    H9335183   6.321   3.539   0.500  1.8199  1.9651 -1.3439
  146MOL    H9435184   6.203   3.525   0.370 -0.2208 -0.6265  0.3228
  146MOL    H9535185   6.501   3.590   0.370 -1.2641 -0.3637  2.1345
  146MOL    H9635186   6.420   3.529   0.221  1.4441 -2.5336  1.9612
  146MOL    H9735187   6.364   3.677   0.298  0.3872 -0.1190  0.8125
  146MOL    C9835188   6.217   3.282   0.488 -0.2090  0.0593  0.2516
  146MOL    C9935189   6.134   3.172   0.415 -0.4502 -0.0023 -0.6664
  146MOL   C10035190   6.023   3.236   0.332 -0.6064  0.3651 -0.0130
  146MOL   C10135191   5.967   3.137   0.223  0.3387 -0.2579  0.1369
  146MOL   H10235192   6.142   3.357   0.512 -0.4007  0.2476 -0.8990
  146MOL   H10335193   6.257   3.258   0.586  1.2890  1.3507 -0.0296
  146MOL   H10435194   6.199   3.120   0.346 -0.8075  0.6298 -1.4816
  146MOL   H10535195   6.054   3.324   0.276  0.6643 -1.0986 -1.6462
  146MOL   H10635196   5.942   3.268   0.398  1.4395  3.1612  1.2102
  146MOL   H10735197   6.036   3.107   0.143  0.4258  1.0810 -0.3109
  146MOL   H10835198   5.923   3.048   0.267 -3.0206  1.0174 -0.5299
  146MOL   H10935199   5.889   3.195   0.174  0.7727 -0.7369 -1.1397
  146MOL   C11035200   6.073   3.085   0.533 -0.0226 -0.3619  0.0360
  146MOL   C11135201   6.177   2.991   0.605  0.0624 -0.0081 -0.9557
  146MOL   C11235202   6.233   2.879   0.508 -0.6394 -0.2128  0.3880
  146MOL   C11335203   6.135   2.776   0.447  0.1449 -0.6389 -0.1929
  146MOL   H11435204   5.992   3.024   0.494 -0.4992 -0.2439  0.8262
  146MOL   H11535205   6.034   3.148   0.614 -1.5643 -1.0918 -0.1178
  146MOL   H11635206   6.266   3.048   0.631  0.9097 -1.3700 -0.8106
  146MOL   H11735207   6.309   2.820   0.560 -1.6010 -1.6750  0.1623
  146MOL   H11835208   6.279   2.930   0.423 -0.8738 -0.3767  0.1610
  146MOL   H11935209   6.187   2.732   0.361 -1.7778 -0.7925 -1.3169
  146MOL   H12035210   6.102   2.694   0.511  1.5227  0.4802  2.0167
  146MOL   H12135211   6.046   2.831   0.417 -0.2586 -1.2793 -0.1907
  146MOL   C12235212   6.108   2.928   0.730  0.1431 -0.6107 -0.4445
  146MOL   C12335213   6.202   2.837   0.818  0.3481  0.5035 -0.2201
  146MOL   C12435214   6.130   2.778   0.932  0.5806 -0.1728 -0.2364
  146MOL   C12535215   6.103   2.869   1.053  0.2989 -0.3035 -0.1746
  146MOL   H12635216   6.021   2.869   0.700 -0.0256 -1.3005  1.3782
  146MOL   H12735217   6.055   3.002   0.791 -0.1539 -0.1722 -1.2236
  146MOL   H12835218   6.220   2.750   0.754  1.8175  1.1446 -0.7129
  146MOL   H12935219   6.183   2.697   0.982 -0.1802 -0.2180  0.5210
  146MOL   H13035220   6.042   2.716   0.913  1.7545 -1.3954 -1.8011
  146MOL   H13135221   6.196   2.907   1.094  0.4345 -1.0481  0.2077
  146MOL   H13235222   6.045   2.955   1.019 -0.3947 -0.7292 -0.0786
  146MOL   H13335223   6.052   2.814   1.132  0.3667 -2.0640 -1.3386
  146MOL   C13435224   6.335   2.912   0.844  0.4435  0.2418 -1.2142
  146MOL   C13535225   6.441   2.835   0.909 -0.3744 -0.2828 -0.4333
  146MOL   C13635226   6.561   2.915   0.949 -0.8987 -0.5065 -0.2164
  146MOL   C13735227   6.534   2.992   1.085  0.2282 -0.0154  0.2322
  146MOL   H13835228   6.295   2.997   0.900 -1.1527 -0.7210 -0.8679
  146MOL   H13935229   6.393   2.952   0.761  1.5121  1.1061 -0.0813
  146MOL   H14035230   6.391   2.804   1.001 -2.1084  0.7586 -0.9899
  146MOL   H14135231   6.584   2.976   0.861 -1.3163 -0.7540 -0.4997
  146MOL   H14235232   6.655   2.861   0.956 -0.8859 -0.5595 -0.7358
  146MOL   H14335233   6.629   3.037   1.112  0.9423 -0.2717 -1.7687
  146MOL   H14435234   6.454   3.065   1.081  1.3583  1.2536  0.6828
  146MOL   H14535235   6.512   2.930   1.172  0.6720 -2.1119 -1.0911
  146MOL   C14635236   6.496   2.716   0.831  0.2071 -0.0327 -0.1339
  146MOL   C14735237   6.557   2.603   0.919 -0.3792 -0.4673  0.5146
  146MOL   C14835238   6.635   2.514   0.833  0.3950 -0.2460 -0.2754
  146MOL   C14935239   6.776   2.567   0.824 -0.5497  0.1097 -0.2238
  146MOL   H15035240   6.559   2.751   0.749  0.9641 -1.3806 -0.1418
  146MOL   H15135241   6.416   2.657   0.785  0.0558  1.2748 -1.6279
  146MOL   H15235242   6.626   2.652   0.989  0.5581  2.0121 -2.0636
  146MOL   H15335243   6.602   2.507   0.729  0.3519  0.9782 -0.3431
  146MOL   H15435244   6.638   2.409   0.862 -3.5018 -0.7113 -1.3255
  146MOL   H15535245   6.831   2.599   0.913  1.1171  0.3032 -1.3020
  146MOL   H15635246   6.837   2.504   0.760 -0.7321 -0.6927  0.3918
  146MOL   H15735247   6.766   2.663   0.773  1.6416 -0.3346 -1.5101
  146MOL   C15835248   6.458   2.528   1.004  0.0988 -0.0828  0.0697
  146MOL   C15935249   6.525   2.462   1.124 -0.9627  0.1589 -0.3125
  146MOL   C16035250   6.471   2.320   1.166 -0.4382 -1.0813  0.0084
  146MOL   C16135251   6.464   2.215   1.051 -0.2497  0.0107 -0.3987
  146MOL   H16235252   6.403   2.465   0.935 -0.2222  0.9444 -0.6281
  146MOL   H16335253   6.381   2.597   1.039 -0.4546 -0.3482 -0.6328
  146MOL   H16435254   6.626   2.429   1.097 -1.4399 -2.2884  0.8068
  146MOL   H16535255   6.365   2.331   1.187  0.2276  4.3334  1.2609
  146MOL   H16635256   6.524   2.281   1.253 -0.8203 -1.6996 -0.0401
  146MOL   H16735257   6.435   2.120   1.098 -0.5718  0.2958 -0.0102
  146MOL   H16835258   6.407   2.256   0.968 -1.7661 -0.2693  0.4809
  146MOL   H16935259   6.564   2.196   1.013  0.6806 -1.2490  2.5139
  146MOL   C17035260   6.528   2.562   1.241  0.0110  0.5858 -0.2568
  146MOL   C17135261   6.647   2.548   1.338  0.5507  0.2641 -0.1387
  146MOL   C17235262   6.618   2.591   1.481  0.4298  0.0689  0.3384
  146MOL   C17335263   6.528   2.500   1.560 -0.2001 -0.7934 -0.2980
  146MOL   H17435264   6.429   2.562   1.287 -1.1458 -1.4262 -2.5509
  146MOL   H17535265   6.538   2.664   1.205  0.1909  0.8142  0.4297
  146MOL   H17635266   6.670   2.443   1.360  1.7610  0.5165 -0.1312
  146MOL   H17735267   6.572   2.689   1.471  3.4632  1.3804 -1.5457
  146MOL   H17835268   6.712   2.607   1.535 -1.1556 -0.6372  3.4350
  146MOL   H17935269   6.516   2.542   1.660  1.2092 -1.4162  0.1407
  146MOL   H18035270   6.428   2.482   1.521 -0.0218 -1.0888 -0.6238
  146MOL   H18135271   6.571   2.400   1.561  0.3780 -0.5442 -0.0100
  146MOL   C18235272   6.767   2.612   1.275  0.5181 -0.7200  0.4569
  146MOL   C18335273   6.907   2.579   1.336  0.1602 -0.6931 -0.6337
  146MOL   C18435274   7.026   2.652   1.271  0.3808 -0.4747 -0.4583
  146MOL   C18535275   7.015   2.806   1.279  1.0203 -0.5115 -0.0229
  146MOL   H18635276   6.758   2.720   1.280  2.9738 -0.3642 -1.5397
  146MOL   H18735277   6.784   2.597   1.169  0.3475 -1.1047  0.4808
  146MOL   H18835278   6.897   2.622   1.435 -1.1849 -3.2704  0.3969
  146MOL   H18935279   7.041   2.617   1.169 -0.4922  0.4770 -0.9211
  146MOL   H19035280   7.114   2.627   1.331  0.3765  1.2849  0.3102
  146MOL   H19135281   7.111   2.848   1.250  0.0545  0.7511 -1.4922
  146MOL   H19235282   6.926   2.821   1.218  0.3479 -1.8331  0.6160
  146MOL   H19335283   7.014   2.847   1.381 -0.5047 -3.7103  1.3265
  146MOL   C19435284   6.936   2.425   1.337 -0.2626 -0.4161  0.2432
  146MOL   C19535285   6.925   2.342   1.472  0.6837 -0.2220  0.2591
  146MOL   C19635286   7.016   2.397   1.582  0.4662  0.1809 -0.6034
  146MOL   C19735287   7.164   2.404   1.546  0.4724 -0.0076  0.3931
  146MOL   H19835288   7.031   2.394   1.294 -1.0221 -0.6382 -1.3282
  146MOL   H19935289   6.861   2.376   1.275 -0.5442  0.7817 -0.3725
  146MOL   H20035290   6.818   2.345   1.494  0.7942  1.7782  0.5928
  146MOL   H20135291   6.991   2.334   1.667  0.2849 -1.3662 -1.7758
  146MOL   H20235292   6.980   2.496   1.612 -0.3144 -1.2129  3.2831
  146MOL   H20335293   7.223   2.446   1.628  0.1160 -1.2014  1.2835
  146MOL   H20435294   7.209   2.307   1.523 -1.8378 -1.2970  1.1377
  146MOL   H20535295   7.176   2.479   1.468  0.2141 -0.3131  0.0585
  146MOL   C20635296   6.952   2.185   1.457 -0.2480 -0.0554  0.3839
  146MOL   C20735297   6.859   2.102   1.359 -0.7367  0.5279  0.1617
  146MOL   C20835298   6.718   2.073   1.418 -0.6466 -0.2046 -0.4368
  146MOL   C20935299   6.715   1.976   1.538  0.1419 -0.3249 -0.8758
  146MOL   H21035300   6.950   2.134   1.554  0.3979 -2.5185 -0.8680
  146MOL   H21135301   7.054   2.169   1.422 -0.3481  0.0159  0.0646
  146MOL   H21235302   6.852   2.160   1.267 -3.3030 -2.4759 -1.6605
  146MOL   H21335303   6.649   2.043   1.339  0.0950  0.7309 -1.4442
  146MOL   H21435304   6.674   2.169   1.445  2.7913  0.9945  1.1995
  146MOL   H21535305   6.621   1.994   1.590  1.6160  2.5594  0.9302
  146MOL   H21635306   6.718   1.870   1.514  2.8297 -0.7562  1.0371
  146MOL   H21735307   6.791   1.998   1.613 -2.1439  3.1435  0.5672
  146MOL   C21835308   6.934   1.970   1.315  0.3774  0.8170 -0.6389
  146MOL   C21935309   6.881   1.894   1.195 -0.2646  0.5384 -0.6119
  146MOL   C22035310   6.943   1.748   1.186 -0.0400  0.0709 -0.1601
  146MOL   C22135311   6.875   1.641   1.274  1.0018  0.5738 -0.3503
  146MOL   H22235312   6.939   1.893   1.391  0.4374  3.0359  1.6581
  146MOL   H22335313   7.039   1.996   1.298  0.5050  1.4664  1.0616
  146MOL   H22435314   6.777   1.868   1.215  0.2410 -1.9992 -1.1707
  146MOL   H22535315   7.049   1.753   1.212 -0.6208  2.0685  1.9890
  146MOL   H22635316   6.927   1.721   1.082 -4.6528  1.4516  0.0934
  146MOL   H22735317   6.768   1.659   1.279  1.1454  1.5901 -0.7410
  146MOL   H22835318   6.891   1.542   1.230  1.7085  0.0291  1.1021
  146MOL   H22935319   6.909   1.636   1.378  1.1520  1.5345 -0.3483
  146MOL   C23035320   6.893   1.987   1.067  0.2766 -0.7368 -0.2665
  146MOL   C23135321   7.035   2.017   1.024 -0.0175 -0.7081  0.3984
  146MOL   C23235322   7.038   2.106   0.899  0.2202  0.1946 -0.2364
  146MOL   C23335323   7.042   2.260   0.910 -0.0732 -0.2038 -0.0504
  146MOL   H23435324   6.848   2.085   1.084  3.5887  1.3917 -3.0683
  146MOL   H23535325   6.837   1.960   0.977 -0.6556  1.8532 -0.4825
  146MOL   H23635326   7.105   2.064   1.093 -1.3240 -0.1315  1.3554
  146MOL   H23735327   6.963   2.074   0.827 -1.4630 -1.8951  2.3937
  146MOL   H23835328   7.132   2.090   0.845 -0.4228  2.1697 -2.0264
  146MOL   H23935329   7.038   2.301   0.809  1.3484  3.4748  1.2925
  146MOL   H24035330   6.955   2.307   0.956  0.6759  2.0808 -0.8720
  146MOL   H24135331   7.136   2.289   0.956 -1.4677  1.5172  1.8061
  146MOL   H24235332   7.082   1.922   1.002  1.9655  0.6209 -1.3297
  147MOL     C135333   3.966   2.553   4.571  0.4586  0.1292  0.3291
  147MOL     C235334   3.985   2.515   4.428 -0.2668  0.0550 -0.3087
  147MOL     C335335   4.119   2.437   4.413 -0.6191  0.3604  0.1239
  147MOL     C435336   4.121   2.310   4.490  0.4078  0.9020  0.3456
  147MOL     H535337   3.866   2.593   4.589  0.4092  0.6574 -0.9895
  147MOL     H635338   3.967   2.467   4.638  0.6164  0.7820  1.1670
  147MOL     H735339   3.901   2.449   4.408  1.0474 -1.8365  0.3311
  147MOL     H835340   4.210   2.489   4.443 -0.3874 -0.3241  0.6215
  147MOL     H935341   4.126   2.416   4.307 -0.6712  1.0045 -0.0111
  147MOL    H1035342   4.123   2.324   4.598 -2.3832  1.7037  0.3469
  147MOL    H1135343   4.042   2.236   4.481  0.7681  0.6957 -1.1724
  147MOL    H1235344   4.214   2.259   4.466 -1.1026 -2.2736  1.0684
  147MOL    H1335345   4.040   2.624   4.605  0.0002  0.4007  0.7641
  147MOL    C1435346   3.983   2.635   4.334 -0.0595  0.6996  0.4520
  147MOL    C1535347   3.972   2.606   4.180 -0.6819 -0.0071  0.6504
  147MOL    C1635348   3.966   2.746   4.108 -0.4718 -0.1987  0.0859
  147MOL    C1735349   4.097   2.827   4.103 -0.2032  0.5998 -0.5415
  147MOL    H1835350   4.076   2.691   4.344  1.0021 -0.2760 -3.2177
  147MOL    H1935351   3.896   2.694   4.365 -0.5225 -0.5684  1.6413
  147MOL    H2035352   4.064   2.562   4.141 -0.7656  0.7838 -0.4764
  147MOL    H2135353   3.895   2.811   4.159  0.7818  0.5817  0.8720
  147MOL    H2235354   3.919   2.728   4.011 -2.4909 -0.7137  1.1217
  147MOL    H2335355   4.166   2.798   4.181 -1.1210  1.1779  0.5014
  147MOL    H2435356   4.163   2.797   4.021 -1.1957 -1.6104 -0.5443
  147MOL    H2535357   4.084   2.936   4.109  1.0568  0.8293 -1.6611
  147MOL    C2635358   3.849   2.512   4.137 -0.5949 -0.0533 -0.3239
  147MOL    C2735359   3.821   2.484   3.988  0.2881  0.7770 -0.0896
  147MOL    C2835360   3.694   2.405   3.973  1.0886 -0.1252  0.1536
  147MOL    C2935361   3.563   2.491   3.974  0.1884  0.6115 -0.5906
  147MOL    H3035362   3.757   2.554   4.178 -0.4319 -1.0454  1.1170
  147MOL    H3135363   3.859   2.417   4.190  1.7050 -0.6100 -1.6871
  147MOL    H3235364   3.804   2.582   3.941 -0.7290  0.5115 -0.2811
  147MOL    H3335365   3.697   2.323   4.045 -1.9684 -1.1155 -0.7464
  147MOL    H3435366   3.699   2.367   3.871  1.2082 -0.7652  0.3942
  147MOL    H3535367   3.466   2.440   3.975  0.2090  0.5967  2.0795
  147MOL    H3635368   3.560   2.556   4.061  2.8844 -1.3943  1.0413
  147MOL    H3735369   3.565   2.556   3.886 -0.2186  0.7297 -0.5165
  147MOL    C3835370   3.941   2.419   3.914  0.2485 -0.3728 -0.2476
  147MOL    C3935371   3.975   2.474   3.774  0.0467 -0.0241 -0.2059
  147MOL    C4035372   3.850   2.484   3.679 -0.7371  0.1190  0.3436
  147MOL    C4135373   3.868   2.542   3.540  0.3094 -0.8687  0.3858
  147MOL    H4235374   3.920   2.312   3.910  1.5384 -0.6822  0.8604
  147MOL    H4335375   4.028   2.434   3.977 -0.5855 -0.4127  0.9408
  147MOL    H4435376   4.007   2.577   3.789 -2.1799  0.7462 -0.5807
  147MOL    H4535377   3.770   2.539   3.729  1.0205  2.0633  1.1147
  147MOL    H4635378   3.803   2.388   3.658 -0.8435  0.1790  0.3070
  147MOL    H4735379   3.885   2.649   3.550 -2.1398 -0.5268  1.3083
  147MOL    H4835380   3.948   2.486   3.491 -1.2309 -3.8454  1.1209
  147MOL    H4935381   3.779   2.528   3.479  0.1713  2.7323 -0.3155
  147MOL    C5035382   4.087   2.382   3.712  0.0718 -0.2853 -0.2949
  147MOL    C5135383   4.216   2.383   3.791  0.6285 -0.3890  0.7088
  147MOL    C5235384   4.262   2.527   3.828  0.1853  0.7028  0.3450
  147MOL    C5335385   4.275   2.618   3.705  0.0048  0.2410  0.1368
  147MOL    H5435386   4.115   2.425   3.616  0.3686  0.9299  0.3339
  147MOL    H5535387   4.048   2.280   3.709 -1.4037  0.2528 -0.1342
  147MOL    H5635388   4.193   2.327   3.882  0.0352 -1.3246 -0.0001
  147MOL    H5735389   4.360   2.530   3.875  0.1017 -2.4299  0.8655
  147MOL    H5835390   4.189   2.576   3.892 -1.1547  0.5477 -1.0129
  147MOL    H5935391   4.180   2.664   3.680 -0.4036 -0.1624  0.9363
  147MOL    H6035392   4.352   2.694   3.718  0.1009 -0.3143  3.0481
  147MOL    H6135393   4.307   2.555   3.621  0.6450  1.4612 -0.5434
  147MOL    C6235394   4.344   2.301   3.746  0.5482 -0.6200 -0.4071
  147MOL    C6335395   4.323   2.170   3.659  1.0900 -0.0535 -0.8986
  147MOL    C6435396   4.312   2.046   3.747 -0.1776 -0.5870  0.2771
  147MOL    C6535397   4.211   2.056   3.854 -0.7453  0.3921  0.0633
  147MOL    H6635398   4.415   2.282   3.826  1.6680 -0.8492 -1.4278
  147MOL    H6735399   4.403   2.371   3.687  1.5447 -0.5249  0.6856
  147MOL    H6835400   4.225   2.181   3.613 -0.8017 -0.9867  2.6879
  147MOL    H6935401   4.411   2.031   3.791  0.4738 -1.9964 -1.6338
  147MOL    H7035402   4.293   1.957   3.687 -0.5140 -0.0796 -0.3670
  147MOL    H7135403   4.247   2.119   3.936 -1.9486 -1.1288  1.8206
  147MOL    H7235404   4.120   2.103   3.817 -0.0735 -1.3499 -4.0565
  147MOL    H7335405   4.185   1.958   3.896 -0.4395  0.8867  1.4334
  147MOL    C7435406   4.438   2.151   3.555 -0.1529 -0.4459  0.2414
  147MOL    C7535407   4.423   2.249   3.428 -1.1583  0.4407 -0.3246
  147MOL    C7635408   4.322   2.188   3.333 -0.2907  0.6191  0.6096
  147MOL    C7735409   4.289   2.281   3.211 -0.1434 -0.2285  0.0523
  147MOL    H7835410   4.438   2.047   3.523  0.0112 -0.7515  1.2300
  147MOL    H7935411   4.527   2.168   3.616 -1.5776 -2.1261  2.8686
  147MOL    H8035412   4.394   2.346   3.468  0.6308  1.2672 -0.9539
  147MOL    H8135413   4.225   2.166   3.379  0.0916 -2.2427  0.1299
  147MOL    H8235414   4.357   2.091   3.298 -0.6086  1.2279 -1.4600
  147MOL    H8335415   4.373   2.332   3.165 -0.3260 -1.5733 -1.8335
  147MOL    H8435416   4.232   2.226   3.136  0.6121 -0.5857 -0.2645
  147MOL    H8535417   4.221   2.364   3.228  0.5450  0.3965 -0.2184
  147MOL    C8635418   4.562   2.285   3.368  0.1597 -0.5417 -0.3034
  147MOL    C8735419   4.650   2.375   3.457  0.6278 -0.1703 -0.8377
  147MOL    C8835420   4.607   2.525   3.435  0.1634 -0.0409 -0.3657
  147MOL    C8935421   4.687   2.619   3.531 -0.5483  0.1520 -0.3932
  147MOL    H9035422   4.552   2.334   3.271 -2.2052 -1.3703 -0.5363
  147MOL    H9135423   4.608   2.190   3.340 -2.1276 -1.5890 -0.6812
  147MOL    H9235424   4.630   2.355   3.563  1.7271  1.0641 -0.3769
  147MOL    H9335425   4.498   2.537   3.438  0.4303  2.5932  0.0501
  147MOL    H9435426   4.628   2.560   3.334 -1.0759 -0.3705 -0.7475
  147MOL    H9535427   4.699   2.580   3.633 -1.8855  1.2796  0.2053
  147MOL    H9635428   4.786   2.627   3.487 -1.2121 -0.0227 -1.9567
  147MOL    H9735429   4.643   2.718   3.541  1.3239  0.9393  0.2777
  147MOL    C9835430   4.804   2.353   3.440 -0.3432 -1.0329  0.4164
  147MOL    C9935431   4.842   2.205   3.481 -0.2146 -0.7980  0.5944
  147MOL   C10035432   4.885   2.198   3.631 -0.1317  0.8232 -0.4378
  147MOL   C10135433   5.001   2.285   3.672  0.0331 -0.1163  0.5136
  147MOL   H10235434   4.875   2.427   3.478 -1.0335  0.6191 -1.3761
  147MOL   H10335435   4.818   2.360   3.332 -1.3535 -0.7795  0.2939
  147MOL   H10435436   4.753   2.146   3.503  0.1338 -1.8877 -0.8689
  147MOL   H10535437   4.900   2.096   3.664 -0.6429  1.4441  1.8119
  147MOL   H10635438   4.802   2.238   3.689  0.3343  0.0101  0.8137
  147MOL   H10735439   5.075   2.238   3.607 -2.5014 -0.9566 -1.8732
  147MOL   H10835440   4.979   2.389   3.652 -2.1920 -0.4016  1.3480
  147MOL   H10935441   5.033   2.274   3.776  2.0421 -2.2046 -0.2792
  147MOL   C11035442   4.941   2.123   3.390 -0.4022 -0.2410  0.0751
  147MOL   C11135443   4.879   2.071   3.254  0.9200  0.3077  0.1345
  147MOL   C11235444   4.773   1.965   3.281  0.8083 -0.0842  0.2784
  147MOL   C11335445   4.667   1.948   3.172 -0.4201  0.5787  0.0034
  147MOL   H11435446   4.968   2.031   3.441  2.6207  0.6823  0.2493
  147MOL   H11535447   5.024   2.188   3.361  0.1883 -0.9597  0.1225
  147MOL   H11635448   4.819   2.153   3.213  0.5869  0.2126  0.4229
  147MOL   H11735449   4.721   1.977   3.376 -0.7164 -2.0248 -0.2720
  147MOL   H11835450   4.825   1.870   3.295 -0.2580 -0.7782 -0.3521
  147MOL   H11935451   4.589   1.878   3.198 -0.1520  0.6280  0.9485
  147MOL   H12035452   4.618   2.041   3.142 -1.0719  0.0705 -0.5127
  147MOL   H12135453   4.719   1.911   3.083 -0.6626  1.3249 -0.4578
  147MOL   C12235454   4.984   2.022   3.148  0.3278 -0.1652 -0.0847
  147MOL   C12335455   5.089   2.131   3.099  0.3742 -1.1182 -0.2575
  147MOL   C12435456   5.029   2.216   2.985 -0.4088 -0.4692  0.0680
  147MOL   C12535457   5.111   2.345   2.957 -0.1199 -0.5539  0.8358
  147MOL   H12635458   4.933   1.980   3.060 -1.0957  0.4431  0.4446
  147MOL   H12735459   5.045   1.940   3.185  0.3986  0.6123  1.5111
  147MOL   H12835460   5.116   2.196   3.182  1.4486 -2.7327  0.7081
  147MOL   H12935461   4.933   2.255   3.019 -0.3955 -1.5064  1.3196
  147MOL   H13035462   5.030   2.154   2.896  1.9322 -1.2745  0.6071
  147MOL   H13135463   5.206   2.325   2.906 -1.1991 -0.7409 -1.1310
  147MOL   H13235464   5.048   2.415   2.903  0.1085 -1.5304 -0.7256
  147MOL   H13335465   5.140   2.392   3.051 -1.4104  1.1462  0.3983
  147MOL   C13435466   5.218   2.068   3.047 -0.2742  0.1799  0.1009
  147MOL   C13535467   5.331   2.057   3.153 -0.0860 -0.6315 -0.7007
  147MOL   C13635468   5.385   2.196   3.198  0.0451  0.3700  0.2131
  147MOL   C13735469   5.447   2.186   3.337 -0.2905  0.2490 -0.2013
  147MOL   H13835470   5.260   2.119   2.961  0.4759  0.0658  0.3965
  147MOL   H13935471   5.196   1.972   3.001  0.4223 -0.4841  1.1489
  147MOL   H14035472   5.303   2.003   3.243  1.7114  0.3747  0.5030
  147MOL   H14135473   5.310   2.275   3.193  0.7978  1.0266 -0.8244
  147MOL   H14235474   5.461   2.229   3.128  0.0450  2.9219  1.3546
  147MOL   H14335475   5.501   2.093   3.354 -1.0789 -0.2155 -0.1888
  147MOL   H14435476   5.509   2.273   3.360 -0.5337 -0.1402  2.0919
  147MOL   H14535477   5.370   2.203   3.412 -0.8209 -1.6278 -0.2909
  147MOL   C14635478   5.448   1.978   3.090 -0.6738 -1.0186 -0.2642
  147MOL   C14735479   5.443   1.828   3.079 -0.5843  0.0855  0.1241
  147MOL   C14835480   5.450   1.755   3.213  0.2002  0.8175  0.6486
  147MOL   C14935481   5.403   1.610   3.207 -0.5054  0.1243 -0.2966
  147MOL   H15035482   5.542   1.985   3.146  0.6038 -0.6226 -2.4075
  147MOL   H15135483   5.481   2.033   3.003  0.0017  1.1359  1.3166
  147MOL   H15235484   5.343   1.814   3.039  0.3465  1.1006 -2.6900
  147MOL   H15335485   5.378   1.805   3.277  1.4300  1.3572  1.6289
  147MOL   H15435486   5.550   1.767   3.256  0.1445  2.3163  0.3697
  147MOL   H15535487   5.463   1.542   3.146  3.3217  1.2291  2.0682
  147MOL   H15635488   5.396   1.570   3.308 -2.8133  0.6147 -0.2378
  147MOL   H15735489   5.303   1.611   3.165  0.0521 -0.0795 -1.6431
  147MOL   C15835490   5.549   1.783   2.968 -0.0618 -0.0729 -0.1899
  147MOL   C15935491   5.496   1.776   2.823 -0.8599  0.0838  0.1641
  147MOL   C16035492   5.379   1.666   2.800 -0.0385 -0.2465 -0.3246
  147MOL   C16135493   5.424   1.521   2.833 -0.3966 -0.3110 -0.3109
  147MOL   H16235494   5.574   1.679   2.991 -0.6738  0.0868  1.2952
  147MOL   H16335495   5.640   1.841   2.980 -0.7632  1.3061 -1.4454
  147MOL   H16435496   5.455   1.872   2.791 -1.9408 -1.2230 -2.5384
  147MOL   H16535497   5.335   1.672   2.700 -0.8382 -0.6558 -0.0054
  147MOL   H16635498   5.298   1.702   2.863 -0.1003  0.4786 -0.8160
  147MOL   H16735499   5.519   1.497   2.784  0.9266  0.7543  1.6294
  147MOL   H16835500   5.425   1.499   2.940  0.6778  0.0187 -0.2458
  147MOL   H16935501   5.346   1.456   2.795  1.2141 -2.6137  0.2315
  147MOL   C17035502   5.612   1.746   2.724  0.4485  0.8491 -0.1415
  147MOL   C17135503   5.678   1.875   2.676  0.5831  0.0817  0.4364
  147MOL   C17235504   5.596   1.961   2.568 -0.1229 -0.1691  0.2130
  147MOL   C17335505   5.586   1.877   2.435 -0.0040 -0.7031 -0.2592
  147MOL   H17435506   5.584   1.681   2.641 -2.9445  0.2605  1.3665
  147MOL   H17535507   5.687   1.697   2.785  0.2393 -0.5610 -0.9983
  147MOL   H17635508   5.671   1.939   2.764 -0.1153 -0.1049  0.5189
  147MOL   H17735509   5.651   2.046   2.529 -0.8661 -0.3116 -1.1593
  147MOL   H17835510   5.495   1.994   2.593 -0.6483  0.2630 -2.3847
  147MOL   H17935511   5.524   1.789   2.448  0.2582 -0.6935  1.2603
  147MOL   H18035512   5.563   1.951   2.359 -0.4971  0.3877  0.9150
  147MOL   H18135513   5.680   1.833   2.403 -0.5284  0.3604 -3.3540
  147MOL   C18235514   5.820   1.834   2.628 -0.3945  0.0635  0.0140
  147MOL   C18335515   5.923   1.790   2.736  1.0525 -0.0412 -0.3661
  147MOL   C18435516   5.954   1.915   2.821  0.2815 -0.0091  0.0894
  147MOL   C18535517   6.022   1.891   2.955  0.1277  0.2757  0.0869
  147MOL   H18635518   5.868   1.916   2.573  1.6469 -0.4292  1.0289
  147MOL   H18735519   5.804   1.749   2.562  0.6584 -0.1233 -0.0077
  147MOL   H18835520   5.887   1.715   2.806  1.4684  0.2528  0.1622
  147MOL   H18935521   5.867   1.977   2.843 -2.7121 -3.1631 -2.3486
  147MOL   H19035522   6.022   1.981   2.767  1.7571 -1.1420  0.5508
  147MOL   H19135523   6.121   1.845   2.943 -1.1344 -2.7643  0.9758
  147MOL   H19235524   6.025   1.978   3.021 -0.7754  0.2483  0.1617
  147MOL   H19335525   5.971   1.811   3.008 -0.2391  0.4770  0.0369
  147MOL   C19435526   6.051   1.748   2.651 -0.0773  0.4966 -0.1327
  147MOL   C19535527   6.041   1.615   2.578 -0.3790 -0.5170 -0.1201
  147MOL   C19635528   6.006   1.499   2.673  0.1786 -0.0617 -0.1045
  147MOL   C19735529   5.892   1.412   2.630 -0.0459 -0.2374 -0.2046
  147MOL   H19835530   6.136   1.731   2.717 -0.6803 -0.9312  0.3079
  147MOL   H19935531   6.074   1.814   2.568  0.5367 -0.2303 -0.5403
  147MOL   H20035532   5.953   1.618   2.514  0.1642  1.5402 -0.8235
  147MOL   H20135533   5.988   1.524   2.777  1.6603 -1.7826  0.5931
  147MOL   H20235534   6.093   1.436   2.693 -1.4306 -1.3688  3.1739
  147MOL   H20335535   5.797   1.463   2.638 -0.6454 -1.6106  1.9882
  147MOL   H20435536   5.898   1.387   2.524 -0.8264 -1.5630  0.0523
  147MOL   H20535537   5.877   1.321   2.689  0.0516  0.1777  0.4702
  147MOL   C20635538   6.158   1.587   2.484  0.4117  0.3014 -0.7177
  147MOL   C20735539   6.178   1.677   2.359 -0.0954 -0.6311  0.5850
  147MOL   C20835540   6.283   1.786   2.389  0.3944  0.4656 -0.3987
  147MOL   C20935541   6.348   1.847   2.267 -0.3684  0.9992  0.2977
  147MOL   H21035542   6.135   1.488   2.444  1.4234 -2.1767  4.5215
  147MOL   H21135543   6.249   1.572   2.540  1.2759  2.7454 -1.3975
  147MOL   H21235544   6.224   1.606   2.291 -3.4015 -1.6708 -0.6623
  147MOL   H21335545   6.375   1.751   2.437 -0.7111  2.5674  3.4615
  147MOL   H21435546   6.234   1.857   2.455 -0.5170 -0.9797  0.5074
  147MOL   H21535547   6.376   1.766   2.200  0.6318  1.9147 -0.4297
  147MOL   H21635548   6.273   1.905   2.212  0.0995 -0.4545 -1.9469
  147MOL   H21735549   6.430   1.917   2.285 -0.1899  0.8098  0.2173
  147MOL   C21835550   6.061   1.730   2.280 -0.1781  0.2920  0.4048
  147MOL   C21935551   5.953   1.639   2.226  0.3411 -0.1744 -0.3072
  147MOL   C22035552   5.996   1.524   2.129  0.1505  0.2427  0.3074
  147MOL   C22135553   6.026   1.559   1.984  0.7209 -0.3750 -0.1762
  147MOL   H22235554   6.101   1.770   2.187 -0.4960 -1.1541 -0.3758
  147MOL   H22335555   6.026   1.816   2.337  0.3564  0.3581  0.6414
  147MOL   H22435556   5.913   1.595   2.317 -0.3528 -0.1967 -0.6235
  147MOL   H22535557   5.918   1.448   2.129 -0.6115  1.0062 -0.7134
  147MOL   H22635558   6.087   1.472   2.160  0.7868 -0.5715 -2.7289
  147MOL   H22735559   5.929   1.563   1.934  0.1272  1.6811  1.0650
  147MOL   H22835560   6.076   1.654   1.966 -0.1344 -0.2801 -2.1482
  147MOL   H22935561   6.079   1.480   1.931 -0.2347 -0.7118 -0.6435
  147MOL   C23035562   5.842   1.737   2.171  0.7199 -0.6062  0.0076
  147MOL   C23135563   5.728   1.655   2.127 -0.1293  0.2586 -0.2678
  147MOL   C23235564   5.596   1.742   2.099 -0.2419  0.0124  0.7699
  147MOL   C23335565   5.467   1.661   2.060 -0.1615 -0.0579  0.4352
  147MOL   H23435566   5.875   1.803   2.090 -0.4072 -0.5072 -0.3919
  147MOL   H23535567   5.816   1.799   2.256  0.3317 -1.5747  0.5994
  147MOL   H23635568   5.757   1.607   2.034 -1.0924 -2.3650  0.7593
  147MOL   H23735569   5.620   1.817   2.024 -1.1809 -0.6887 -0.2246
  147MOL   H23835570   5.585   1.804   2.189  2.9479  1.6057  0.1666
  147MOL   H23935571   5.470   1.600   1.969  0.2526  0.2791  0.2201
  147MOL   H24035572   5.445   1.590   2.140 -0.5695  0.8689  1.1497
  147MOL   H24135573   5.380   1.725   2.073 -0.7481 -0.2619 -2.1368
  147MOL   H24235574   5.716   1.568   2.192 -0.2906 -0.4728 -1.2703
  148MOL     C135575   4.914   5.629   6.353  0.0964  0.3377 -0.8688
  148MOL     C235576   4.989   5.501   6.396  0.1295 -0.2586  0.1260
  148MOL     C335577   4.902   5.375   6.384  0.3019 -0.6655  0.3198
  148MOL     C435578   4.979   5.250   6.411 -0.5036  0.5876 -0.6007
  148MOL     H535579   4.866   5.615   6.256 -0.2174 -1.5462 -0.4637
  148MOL     H635580   4.829   5.659   6.414 -0.9650  0.5571 -2.4085
  148MOL     H735581   5.082   5.498   6.340 -0.1003  1.3170 -0.3809
  148MOL     H835582   4.869   5.371   6.280  0.8325 -0.5755  0.1445
  148MOL     H935583   4.813   5.386   6.445 -0.2636  1.3141 -0.8201
  148MOL    H1035584   4.918   5.160   6.399  0.9982 -0.3403 -1.3086
  148MOL    H1135585   5.067   5.239   6.348 -1.6023 -2.2974 -1.7278
  148MOL    H1235586   5.010   5.244   6.516  2.2068  1.0760 -1.3510
  148MOL    H1335587   4.982   5.714   6.342  0.1682  0.4177  0.1753
  148MOL    C1435588   5.034   5.517   6.544 -0.7423 -0.4855 -0.5983
  148MOL    C1535589   5.135   5.636   6.579 -0.1066  0.1401  0.4914
  148MOL    C1635590   5.269   5.619   6.513 -0.2828 -0.2668  0.1794
  148MOL    C1735591   5.356   5.497   6.537  0.6485 -0.1239  0.2550
  148MOL    H1835592   5.084   5.427   6.580  1.8273  1.8878  1.9695
  148MOL    H1935593   4.940   5.531   6.598 -0.2859  2.5055 -0.4970
  148MOL    H2035594   5.089   5.727   6.540 -1.7666 -0.9221 -0.0713
  148MOL    H2135595   5.327   5.709   6.536 -0.6605 -0.4075  1.7305
  148MOL    H2235596   5.266   5.625   6.404  1.8926  0.3820  0.1206
  148MOL    H2335597   5.447   5.498   6.477  0.4768  1.8194 -0.0275
  148MOL    H2435598   5.375   5.494   6.644  0.2981 -1.9463  0.2728
  148MOL    H2535599   5.301   5.410   6.502  0.7228 -1.4058  3.2185
  148MOL    C2635600   5.156   5.660   6.730 -0.1489  0.1094  0.1252
  148MOL    C2735601   5.025   5.674   6.818 -0.6167  0.3747  1.0541
  148MOL    C2835602   4.939   5.793   6.780  0.4286 -0.3560  0.6260
  148MOL    C2935603   5.009   5.929   6.797 -0.0319 -0.7179  0.1025
  148MOL    H3035604   5.227   5.740   6.747  1.9279 -1.7745  0.5896
  148MOL    H3135605   5.198   5.569   6.774  3.1385  0.8918 -1.3030
  148MOL    H3235606   4.958   5.592   6.794  0.4356  0.4977 -2.5442
  148MOL    H3335607   4.845   5.786   6.835 -0.5200 -2.0454 -1.1061
  148MOL    H3435608   4.918   5.782   6.673  1.5427 -1.4046  0.5013
  148MOL    H3535609   5.029   5.933   6.904 -1.8394  0.2395  0.4245
  148MOL    H3635610   5.100   5.919   6.737  0.1539  2.9523 -0.3673
  148MOL    H3735611   4.952   6.017   6.765  1.2152 -0.5798 -1.8612
  148MOL    C3835612   5.055   5.657   6.967  0.0745  0.0082  0.2896
  148MOL    C3935613   5.125   5.528   7.019  0.6645 -0.3126  0.2761
  148MOL    C4035614   5.062   5.396   6.970 -0.5776 -0.8817  0.2810
  148MOL    C4135615   5.139   5.265   7.001  0.3339 -0.5159  0.3582
  148MOL    H4235616   4.954   5.665   7.006 -0.3293  0.1868 -0.7880
  148MOL    H4335617   5.105   5.747   7.003  1.1238 -0.4394 -0.0380
  148MOL    H4435618   5.220   5.531   6.965  0.6818  0.1158  0.3272
  148MOL    H4535619   5.028   5.399   6.866 -0.1756 -0.7927  0.1539
  148MOL    H4635620   4.965   5.385   7.018 -1.0816  1.2620 -0.1965
  148MOL    H4735621   5.101   5.181   6.944 -0.7132  0.2171 -0.0456
  148MOL    H4835622   5.243   5.283   6.973 -0.5879  1.4131 -2.0215
  148MOL    H4935623   5.129   5.246   7.108  0.3599 -0.2924  0.4010
  148MOL    C5035624   5.147   5.530   7.176  0.0066  0.4960 -0.0942
  148MOL    C5135625   5.271   5.610   7.215 -0.4302 -0.9303 -0.4358
  148MOL    C5235626   5.401   5.527   7.221 -0.3579  0.2593  0.9991
  148MOL    C5335627   5.523   5.601   7.173 -0.0912  0.0923  0.4921
  148MOL    H5435628   5.160   5.429   7.215 -0.8918  0.8100  1.0356
  148MOL    H5535629   5.057   5.557   7.231 -0.4527 -0.7261 -0.2329
  148MOL    H5635630   5.292   5.685   7.139  4.1692 -2.1963 -0.5827
  148MOL    H5735631   5.393   5.435   7.164  2.2235  2.3736 -2.9705
  148MOL    H5835632   5.422   5.501   7.325  1.8977  0.9611  0.7529
  148MOL    H5935633   5.609   5.534   7.181 -2.0110 -2.2590  2.0358
  148MOL    H6035634   5.496   5.610   7.067 -0.6417 -2.6481  0.3529
  148MOL    H6135635   5.546   5.699   7.215  0.8810  0.0544  0.0584
  148MOL    C6235636   5.247   5.686   7.347  0.6181 -0.6138  0.3160
  148MOL    C6335637   5.343   5.799   7.380 -0.5844 -0.2409  0.2477
  148MOL    C6435638   5.320   5.863   7.526  0.2074 -0.5981  0.5652
  148MOL    C6535639   5.359   5.775   7.646 -0.0142  0.8633  0.0638
  148MOL    H6635640   5.253   5.606   7.421  1.9678 -2.5190 -1.8101
  148MOL    H6735641   5.147   5.731   7.353  0.7222 -0.2096 -0.8623
  148MOL    H6835642   5.440   5.750   7.381 -1.0908 -1.2929 -1.3997
  148MOL    H6935643   5.219   5.903   7.533  0.5165  0.7648 -2.1545
  148MOL    H7035644   5.380   5.954   7.535 -1.7081  1.1262 -2.9560
  148MOL    H7135645   5.364   5.836   0.031 -0.4107 -0.8110  1.2290
  148MOL    H7235646   5.301   5.683   7.651 -0.4343  1.1450  0.4906
  148MOL    H7335647   5.461   5.747   7.623 -0.3448  1.0242 -1.6533
  148MOL    C7435648   5.359   5.915   7.281  0.8598  0.2705  0.2684
  148MOL    C7535649   5.238   6.021   7.283  0.5143  0.6333  0.1398
  148MOL    C7635650   5.123   5.992   7.189  0.0374  0.2235 -0.5183
  148MOL    C7735651   4.992   6.046   7.237 -0.4804  0.0826  0.0346
  148MOL    H7835652   5.389   5.877   7.183  2.8285  3.1650 -0.3005
  148MOL    H7935653   5.451   5.965   7.310  1.0975 -1.3124  2.3307
  148MOL    H8035654   5.186   6.027   7.378 -0.0948  3.3596 -0.3139
  148MOL    H8135655   5.109   5.884   7.175 -0.3739  0.7917 -5.1863
  148MOL    H8235656   5.157   6.031   7.093  2.2567 -0.4147 -0.0418
  148MOL    H8335657   4.972   6.014   7.339  1.5002  0.4629  0.5479
  148MOL    H8435658   4.970   6.152   7.228  0.3583  0.4382  1.9939
  148MOL    H8535659   4.912   6.014   7.169 -2.7552  2.8492  1.2735
  148MOL    C8635660   5.300   6.160   7.252  0.7731 -0.1515  0.3945
  148MOL    C8735661   5.339   6.234   7.376 -0.2364 -0.4351  0.1683
  148MOL    C8835662   5.233   6.335   7.421  0.0223  0.1557 -0.5256
  148MOL    C8935663   5.231   6.369   7.570  0.4092  0.2995  0.8567
  148MOL    H9035664   5.220   6.213   7.200  0.5060  0.8391  1.7737
  148MOL    H9135665   5.388   6.148   7.190  1.1851 -2.3449  1.3686
  148MOL    H9235666   5.350   6.166   7.461 -1.0061 -0.9766 -0.1594
  148MOL    H9335667   5.140   6.278   7.418  0.3575 -0.5215  1.0849
  148MOL    H9435668   5.210   6.427   7.367 -1.2776 -0.4909 -1.1005
  148MOL    H9535669   5.330   6.410   7.592  0.8264  0.6230 -1.4957
  148MOL    H9635670   5.160   6.445   7.601  0.8904  0.8105  0.7170
  148MOL    H9735671   5.231   6.278   7.629  1.5710 -0.8973 -0.9431
  148MOL    C9835672   5.475   6.311   7.353 -0.9232 -0.3861  0.7435
  148MOL    C9935673   5.608   6.221   7.359 -0.1261  0.6218 -0.4693
  148MOL   C10035674   5.628   6.172   7.505 -0.0234 -0.1325 -0.6726
  148MOL   C10135675   5.721   6.052   7.518  0.8920 -0.0704 -0.3788
  148MOL   H10235676   5.486   6.397   7.419 -2.6747  0.5977 -0.2100
  148MOL   H10335677   5.459   6.357   7.256  0.6747  0.5492  0.9050
  148MOL   H10435678   5.596   6.129   7.301  2.7680  0.0676 -0.2617
  148MOL   H10535679   5.530   6.143   7.543 -0.9225  0.4413 -2.4828
  148MOL   H10635680   5.664   6.260   7.558 -0.0513  0.0603 -0.9728
  148MOL   H10735681   5.679   5.962   7.472  1.8666 -1.8313  2.0898
  148MOL   H10835682   5.823   6.066   7.484  0.4194 -0.4089 -1.9898
  148MOL   H10935683   5.724   6.034   7.625 -1.1780  0.5441 -0.1903
  148MOL   C11035684   5.738   6.288   7.309 -0.1694 -1.1118  0.7308
  148MOL   C11135685   5.752   6.310   7.148 -0.3018  0.5415 -0.0916
  148MOL   C11235686   5.735   6.178   7.079  0.2914  0.2704  0.5304
  148MOL   C11335687   5.836   6.067   7.104 -0.4466  0.3390 -0.1490
  148MOL   H11435688   5.821   6.231   7.350  1.6848 -0.9636 -2.6515
  148MOL   H11535689   5.741   6.382   7.364  3.4037 -0.4280 -0.4961
  148MOL   H11635690   5.681   6.389   7.123 -0.6580  0.1520 -0.3078
  148MOL   H11735691   5.746   6.194   6.972 -1.1668  2.8884  0.7213
  148MOL   H11835692   5.635   6.136   7.096  1.2879 -1.4622  2.2518
  148MOL   H11935693   5.803   5.972   7.062 -1.5603 -0.5434  2.5955
  148MOL   H12035694   5.936   6.078   7.063 -1.1890  3.1616 -1.3260
  148MOL   H12135695   5.860   6.047   7.208 -0.2367 -1.4347 -0.5288
  148MOL   C12235696   5.889   6.375   7.115  0.1743  0.5092  0.6372
  148MOL   C12335697   5.894   6.523   7.163  0.5180  0.3848 -0.4927
  148MOL   C12435698   5.836   6.613   7.052  0.0060  0.2778  0.2719
  148MOL   C12535699   5.780   6.753   7.090 -0.6037  0.2935 -0.5249
  148MOL   H12635700   5.896   6.373   7.006 -0.3728 -1.3032  0.6106
  148MOL   H12735701   5.966   6.315   7.163 -2.2343 -1.1808  2.5276
  148MOL   H12835702   5.824   6.535   7.247 -1.6228 -1.2422 -1.9928
  148MOL   H12935703   5.749   6.562   7.009  0.2146 -0.8654  1.1880
  148MOL   H13035704   5.908   6.622   6.971  1.5065 -1.3035  1.3852
  148MOL   H13135705   5.747   6.808   7.002 -0.9605  1.8188  0.5274
  148MOL   H13235706   5.711   6.747   7.174 -0.4014 -1.3930 -0.4668
  148MOL   H13335707   5.862   6.814   7.128 -2.5177  1.3434  2.1000
  148MOL   C13435708   6.042   6.557   7.191 -0.2967 -0.5544 -0.3689
  148MOL   C13535709   6.094   6.533   7.336  0.1842  0.0112  0.0515
  148MOL   C13635710   6.015   6.620   7.437 -0.2816 -0.5175 -0.3642
  148MOL   C13735711   6.021   6.566   7.578  0.6488  0.0421 -0.3906
  148MOL   H13835712   6.065   6.663   7.181  1.3724 -1.0364 -1.9239
  148MOL   H13935713   6.097   6.500   7.116 -1.2590  0.6999 -2.0709
  148MOL   H14035714   6.069   6.428   7.349 -1.4912  0.2623 -0.9195
  148MOL   H14135715   5.911   6.637   7.407 -0.1835  3.4031  1.1843
  148MOL   H14235716   6.071   6.713   7.447  0.2491 -0.8328 -0.4245
  148MOL   H14335717   5.971   6.470   7.571 -0.2958  0.5858 -1.2934
  148MOL   H14435718   6.125   6.548   7.604  0.1797 -1.4427  0.5064
  148MOL   H14535719   5.965   6.616   7.657  1.1369 -0.1909  0.1131
  148MOL   C14635720   6.246   6.560   7.345  0.5226  0.4583  0.0915
  148MOL   C14735721   6.339   6.482   7.250 -0.4831 -0.5894 -0.2134
  148MOL   C14835722   6.311   6.332   7.261 -0.3252  0.4098 -0.2386
  148MOL   C14935723   6.322   6.268   7.405  0.0041 -0.2450 -0.3152
  148MOL   H15035724   6.276   6.533   7.447 -0.3773  1.1542  0.5549
  148MOL   H15135725   6.274   6.665   7.335  0.6166  0.6919  2.3996
  148MOL   H15235726   6.313   6.516   7.150 -1.6758 -0.6059  0.0843
  148MOL   H15335727   6.381   6.269   7.206 -0.4501  1.1586 -1.2705
  148MOL   H15435728   6.219   6.303   7.212 -0.3011 -1.5386  0.8470
  148MOL   H15535729   6.297   6.166   7.377  0.0292  0.2064 -2.0501
  148MOL   H15635730   6.421   6.273   7.451 -0.2438  0.8590  0.1198
  148MOL   H15735731   6.243   6.295   7.475 -1.6869 -1.2524 -1.7774
  148MOL   C15835732   6.487   6.518   7.274  0.6941 -0.0601  0.3813
  148MOL   C15935733   6.589   6.507   7.156 -0.2506 -1.2352  0.1234
  148MOL   C16035734   6.736   6.454   7.197  0.0116 -0.4537  0.3768
  148MOL   C16135735   6.811   6.541   7.303 -0.5209  0.1385 -0.0581
  148MOL   H16235736   6.520   6.446   7.348 -0.2441 -0.4649  0.4207
  148MOL   H16335737   6.492   6.615   7.323  0.7641 -1.3023  2.9475
  148MOL   H16435738   6.543   6.440   7.083 -0.4312  0.0311 -0.9375
  148MOL   H16535739   6.791   6.438   7.105  0.3867  2.4184  0.0399
  148MOL   H16635740   6.729   6.354   7.238  1.9904 -1.2294 -1.1250
  148MOL   H16735741   6.763   6.555   7.400  1.5872 -0.7164  1.1471
  148MOL   H16835742   6.909   6.494   7.300 -0.2586  0.7516 -1.4764
  148MOL   H16935743   6.839   6.641   7.270 -0.0715  0.2459  0.6320
  148MOL   C17035744   6.612   6.639   7.075 -0.4981  0.1915 -0.0821
  148MOL   C17135745   6.664   6.615   6.927  0.6293  0.1404 -0.1016
  148MOL   C17235746   6.813   6.666   6.902  0.3843  0.7280 -0.5169
  148MOL   C17335747   6.862   6.630   6.761  0.3285  0.4605  0.5071
  148MOL   H17435748   6.673   6.705   7.136 -1.8057  1.7822 -0.4612
  148MOL   H17535749   6.521   6.698   7.085  0.6331  1.7979  0.8520
  148MOL   H17635750   6.672   6.507   6.912 -0.2516 -0.1145  1.2471
  148MOL   H17735751   6.873   6.619   6.980  0.0650  0.7701 -0.2454
  148MOL   H17835752   6.809   6.771   6.928 -1.5746  0.2782  1.1613
  148MOL   H17935753   6.804   6.547   6.722  1.3373  0.0358 -0.1082
  148MOL   H18035754   6.850   6.704   6.682 -1.1712 -2.3402 -1.9994
  148MOL   H18135755   6.960   6.583   6.759  0.2596  0.2470  1.8210
  148MOL   C18235756   6.568   6.680   6.823 -0.1991  0.3277 -0.1944
  148MOL   C18335757   6.426   6.640   6.823  0.5092 -0.4169  0.8128
  148MOL   C18435758   6.386   6.494   6.822 -0.0266  0.2425  1.3141
  148MOL   C18535759   6.459   6.411   6.707  0.3578  0.0359  0.0720
  148MOL   H18635760   6.613   6.667   6.724 -0.8368  3.3120 -0.9311
  148MOL   H18735761   6.583   6.788   6.828 -1.3169  0.4682  0.2192
  148MOL   H18835762   6.394   6.675   6.921  0.5619  2.5087 -0.1539
  148MOL   H18935763   6.279   6.479   6.808  0.5045 -1.9501 -0.5701
  148MOL   H19035764   6.417   6.449   6.917 -0.2334 -2.2952  0.2137
  148MOL   H19135765   6.445   6.455   6.608 -0.4146 -1.9146 -0.7014
  148MOL   H19235766   6.568   6.413   6.713  0.5247 -0.1171 -2.3632
  148MOL   H19335767   6.424   6.308   6.699 -2.0790  0.7681  1.0544
  148MOL   C19435768   6.337   6.720   6.720 -0.2528  0.1614 -0.2817
  148MOL   C19535769   6.303   6.865   6.766  0.2704 -0.8217 -0.3969
  148MOL   C19635770   6.182   6.869   6.863 -0.0859 -0.3651 -0.4752
  148MOL   C19735771   6.191   6.989   6.971  0.1241 -0.3624 -0.0014
  148MOL   H19835772   6.248   6.664   6.689  1.5297 -3.3966  0.7990
  148MOL   H19935773   6.402   6.724   6.633 -1.1162  2.2736 -0.8577
  148MOL   H20035774   6.388   6.905   6.821 -1.1975 -0.2511  1.4965
  148MOL   H20135775   6.172   6.774   6.916  0.1820  0.4687  1.1108
  148MOL   H20235776   6.090   6.888   6.808  0.4913  0.0248 -1.3072
  148MOL   H20335777   6.220   7.072   6.907  1.7487 -0.8387  0.0722
  148MOL   H20435778   6.094   7.013   7.013  0.6632  0.3468  0.8503
  148MOL   H20535779   6.272   6.973   7.043  0.7579 -0.9501 -0.8279
  148MOL   C20635780   6.281   6.971   6.654  0.0614  0.4076 -0.1668
  148MOL   C20735781   6.397   6.999   6.559  0.1388 -0.8898 -0.1174
  148MOL   C20835782   6.525   7.047   6.628  0.5665  0.4430  0.2295
  148MOL   C20935783   6.516   7.186   6.681 -0.7486 -0.3606 -0.0574
  148MOL   H21035784   6.244   7.066   6.694 -2.5048 -0.6507  0.0978
  148MOL   H21135785   6.203   6.926   6.593  0.5174 -0.9959  0.2616
  148MOL   H21235786   6.423   6.916   6.493 -0.8013 -2.0774  0.9896
  148MOL   H21335787   6.591   7.059   6.542  0.9625 -3.2755 -0.0592
  148MOL   H21435788   6.575   6.972   6.689 -0.6295 -1.4411 -1.0345
  148MOL   H21535789   6.488   7.256   6.603  0.9312  0.1719 -0.1880
  148MOL   H21635790   6.431   7.205   6.748 -0.1786  0.3467  0.4680
  148MOL   H21735791   6.606   7.228   6.724 -0.5087 -0.7623 -0.1660
  148MOL   C21835792   6.358   7.104   6.452  0.0566 -0.3321  0.2169
  148MOL   C21935793   6.276   7.047   6.329  0.1458  0.2185 -0.1129
  148MOL   C22035794   6.370   6.993   6.219 -0.1413  0.1465 -0.0486
  148MOL   C22135795   6.451   7.096   6.137  0.5266 -0.2794 -0.3411
  148MOL   H22235796   6.441   7.161   6.411 -0.1923  1.4772  2.1537
  148MOL   H22335797   6.296   7.176   6.505 -0.1820 -1.2765  1.2394
  148MOL   H22435798   6.215   6.965   6.366 -0.1850 -0.8666 -2.9727
  148MOL   H22535799   6.319   6.921   6.155 -0.6333  0.4213  0.0299
  148MOL   H22635800   6.436   6.932   6.281  1.1697  1.8900  0.3234
  148MOL   H22735801   6.505   7.157   6.209  1.6124 -2.1611  0.4985
  148MOL   H22835802   6.527   7.033   6.090 -0.2531 -0.6992 -1.0541
  148MOL   H22935803   6.395   7.159   6.069  2.0613  1.5705  0.0760
  148MOL   C23035804   6.176   7.163   6.280 -0.4109  0.2687  0.2317
  148MOL   C23135805   6.090   7.119   6.158  0.0903  0.2885 -0.0548
  148MOL   C23235806   5.966   7.211   6.147  0.5932  0.1882  0.1637
  148MOL   C23335807   5.870   7.171   6.036 -0.2686  0.6615  0.5653
  148MOL   H23435808   6.241   7.249   6.266 -0.6291  0.2690 -0.8691
  148MOL   H23535809   6.115   7.181   6.369  0.4474 -0.7926  1.0445
  148MOL   H23635810   6.151   7.121   6.068  1.4626 -2.2231  0.7661
  148MOL   H23735811   5.991   7.316   6.133 -0.4322  0.5673  1.1114
  148MOL   H23835812   5.914   7.190   6.241  2.0908  0.0831  1.0005
  148MOL   H23935813   5.824   7.077   6.069  0.7552 -0.3073 -0.7140
  148MOL   H24035814   5.783   7.236   6.034 -0.7128  0.0272 -1.7880
  148MOL   H24135815   5.922   7.156   5.942 -0.3213 -1.7091  0.8641
  148MOL   H24235816   6.063   7.017   6.185 -1.4176  0.4646 -0.8134
  149MOL     C135817   5.634   1.249   4.146  0.0649 -0.0419 -0.0382
  149MOL     C235818   5.674   1.322   4.274  0.4761 -0.1137 -0.9961
  149MOL     C335819   5.819   1.386   4.261  0.1570 -0.1752  0.0063
  149MOL     C435820   5.865   1.495   4.361  0.1794 -0.0181 -0.2670
  149MOL     H535821   5.659   1.309   4.059 -0.0085  1.7198  1.1411
  149MOL     H635822   5.682   1.153   4.126 -0.0312 -0.1053  0.0364
  149MOL     H735823   5.609   1.409   4.271  0.9673  0.2160 -2.9050
  149MOL     H835824   5.809   1.434   4.163  0.3240  2.6385  1.3098
  149MOL     H935825   5.900   1.315   4.247  0.7834  0.2708  1.3397
  149MOL    H1035826   5.884   1.456   4.461  0.3700  2.3570  0.6561
  149MOL    H1135827   5.950   1.546   4.315  1.3790 -1.8312 -0.0914
  149MOL    H1235828   5.791   1.575   4.371 -0.5658 -0.9396  1.7001
  149MOL    H1335829   5.526   1.232   4.147  0.0323  0.1730  0.2089
  149MOL    C1435830   5.650   1.244   4.403  0.4162 -0.5931 -0.9381
  149MOL    C1535831   5.505   1.189   4.438  0.0682  0.0206 -0.7211
  149MOL    C1635832   5.398   1.305   4.423  0.2862  0.5720 -0.1661
  149MOL    C1735833   5.438   1.433   4.489 -0.3181  0.7107  0.3833
  149MOL    H1835834   5.691   1.309   4.481 -1.2592 -0.7844  0.1095
  149MOL    H1935835   5.728   1.169   4.415  0.3685 -0.5820 -0.5777
  149MOL    H2035836   5.476   1.114   4.365 -0.6995  0.1852 -0.5882
  149MOL    H2135837   5.297   1.286   4.458 -0.4034  2.7434 -0.9171
  149MOL    H2235838   5.367   1.319   4.320  0.8224  3.3239  0.0250
  149MOL    H2335839   5.506   1.422   4.573 -1.2114  2.6942  1.4215
  149MOL    H2435840   5.483   1.500   4.416 -0.7813 -0.9219 -1.4325
  149MOL    H2535841   5.360   1.495   4.535 -1.5849 -0.7705  0.2811
  149MOL    C2635842   5.499   1.133   4.585  0.0477 -0.3091 -0.3146
  149MOL    C2735843   5.579   1.002   4.628 -0.4824 -0.1434 -0.2084
  149MOL    C2835844   5.531   0.877   4.548 -0.6472  0.9875  0.2463
  149MOL    C2935845   5.606   0.747   4.556  0.2097  0.1026 -0.3138
  149MOL    H3035846   5.394   1.115   4.606 -0.0824  0.0505 -0.6692
  149MOL    H3135847   5.542   1.210   4.649  0.2448 -1.6672  1.2629
  149MOL    H3235848   5.680   1.029   4.599 -0.7092  0.6364 -0.2819
  149MOL    H3335849   5.538   0.905   4.443  3.2306  1.6720  0.6094
  149MOL    H3435850   5.428   0.848   4.570 -0.9296  0.3525 -1.7751
  149MOL    H3535851   5.585   0.709   4.656  1.9120  1.5057  0.6223
  149MOL    H3635852   5.586   0.682   4.471  3.1054 -0.6597 -0.4563
  149MOL    H3735853   5.713   0.768   4.547  0.0831  1.0237  0.2376
  149MOL    C3835854   5.581   0.986   4.782 -0.4757 -0.1881  0.2601
  149MOL    C3935855   5.460   0.922   4.850 -0.4508  0.1541  0.2773
  149MOL    C4035856   5.381   1.022   4.944 -0.0245  0.0857 -0.2478
  149MOL    C4135857   5.455   1.085   5.062  0.1446 -0.2656 -0.9089
  149MOL    H4235858   5.604   1.083   4.828 -1.9754  0.8092 -1.0185
  149MOL    H4335859   5.670   0.929   4.807  0.0261 -0.2982 -1.6823
  149MOL    H4435860   5.397   0.885   4.769  1.0306  0.0480 -0.8397
  149MOL    H4535861   5.289   0.975   4.980 -0.1496 -0.4363 -1.2381
  149MOL    H4635862   5.344   1.097   4.875  0.6105  0.2719 -0.3961
  149MOL    H4735863   5.388   1.149   5.119  0.2447  1.2179 -2.3906
  149MOL    H4835864   5.508   1.017   5.129  0.6902 -0.7693 -1.8352
  149MOL    H4935865   5.537   1.149   5.029  1.2095 -0.5441  1.1125
  149MOL    C5035866   5.507   0.795   4.922 -0.0693  0.6799  0.5940
  149MOL    C5135867   5.397   0.699   4.973  0.3794 -0.7350 -0.2892
  149MOL    C5235868   5.430   0.608   5.089 -0.3599  0.1198  0.0311
  149MOL    C5335869   5.538   0.513   5.046 -0.6250 -0.5348  0.3291
  149MOL    H5435870   5.575   0.823   5.002  0.9718 -1.2525  0.4021
  149MOL    H5535871   5.576   0.726   4.875  0.5515  1.8413 -0.2126
  149MOL    H5635872   5.330   0.768   5.024 -1.4405 -2.8415  0.1984
  149MOL    H5735873   5.337   0.561   5.119 -0.2013 -0.8295 -0.9425
  149MOL    H5835874   5.466   0.662   5.177 -2.9925  0.9033  0.6487
  149MOL    H5935875   5.540   0.462   4.950 -1.0979 -2.9974  1.6071
  149MOL    H6035876   5.625   0.579   5.042  0.1331 -1.5117  0.4491
  149MOL    H6135877   5.581   0.445   5.120  1.6042  0.5299  0.0592
  149MOL    C6235878   5.303   0.645   4.864  0.2235  0.5708  0.0087
  149MOL    C6335879   5.152   0.677   4.870  0.5516 -0.2488 -0.6842
  149MOL    C6435880   5.083   0.629   4.999 -0.5633  0.0891  0.7233
  149MOL    C6535881   5.070   0.486   5.027 -0.2855  0.8723  0.1893
  149MOL    H6635882   5.301   0.536   4.865 -0.0951  0.5614 -0.8403
  149MOL    H6735883   5.350   0.668   4.769  1.0250 -0.3710  0.1691
  149MOL    H6835884   5.153   0.785   4.888 -1.8078 -0.5130  1.2588
  149MOL    H6935885   4.980   0.663   4.995  0.0243  2.1883  2.4674
  149MOL    H7035886   5.118   0.684   5.087 -0.3048  0.6872  0.2497
  149MOL    H7135887   5.167   0.443   5.052 -0.3992 -0.7132 -1.9338
  149MOL    H7235888   5.020   0.466   5.122 -0.4922 -0.3520 -0.1687
  149MOL    H7335889   5.000   0.430   4.965  0.8816 -1.2206  0.7006
  149MOL    C7435890   5.065   0.642   4.747 -0.3495  0.1427  0.0461
  149MOL    C7535891   5.108   0.725   4.621  0.4536  1.0123  0.0039
  149MOL    C7635892   5.054   0.868   4.630  0.0731  0.4350 -0.0626
  149MOL    C7735893   5.135   0.972   4.550  0.3504 -0.6502  0.2852
  149MOL    H7835894   4.960   0.662   4.770 -0.6332 -0.9482 -0.3134
  149MOL    H7935895   5.085   0.538   4.724  1.7247  1.2274 -3.4156
  149MOL    H8035896   5.217   0.723   4.615  0.4297 -1.0190 -0.2766
  149MOL    H8135897   5.063   0.898   4.735  3.5217  1.8058 -0.6496
  149MOL    H8235898   4.949   0.864   4.602  0.1817  0.4755 -0.4806
  149MOL    H8335899   5.102   1.073   4.576 -0.0244 -1.0971  1.5830
  149MOL    H8435900   5.237   0.962   4.589  0.2956 -3.4802 -0.2333
  149MOL    H8535901   5.129   0.952   4.444  3.6924  1.2303 -0.3607
  149MOL    C8635902   5.064   0.659   4.494 -0.4755 -0.1803 -0.8464
  149MOL    C8735903   5.157   0.539   4.440 -0.0468 -0.6355 -0.6028
  149MOL    C8835904   5.306   0.575   4.405 -0.2451  0.7303 -0.0581
  149MOL    C8935905   5.401   0.463   4.381  0.3867 -0.2870  0.3812
  149MOL    H9035906   5.068   0.737   4.418  0.7414  1.1760  0.6066
  149MOL    H9135907   4.958   0.637   4.501 -1.1561  2.6939 -1.4809
  149MOL    H9235908   5.167   0.465   4.519  2.3164  0.1170 -0.1597
  149MOL    H9335909   5.338   0.622   4.498 -0.7092 -0.9336  0.9580
  149MOL    H9435910   5.320   0.648   4.324  0.3618 -0.7997 -1.3528
  149MOL    H9535911   5.423   0.416   4.477 -0.1974 -3.0009 -0.7647
  149MOL    H9635912   5.363   0.402   4.299  1.9265  0.7329 -1.1170
  149MOL    H9735913   5.504   0.483   4.350  0.3021 -2.1100 -1.1902
  149MOL    C9835914   5.090   0.475   4.319  0.4283 -0.4266 -0.6214
  149MOL    C9935915   4.961   0.399   4.352 -0.3055 -0.0294  0.0977
  149MOL   C10035916   4.972   0.245   4.356 -0.2009 -0.3603  0.0291
  149MOL   C10135917   5.061   0.195   4.474 -0.1271  0.2665  0.1236
  149MOL   H10235918   5.171   0.415   4.278  2.4161 -0.4237  3.0543
  149MOL   H10335919   5.067   0.552   4.246 -1.0386 -0.5540 -0.2941
  149MOL   H10435920   4.920   0.422   4.451  0.8847  0.7710  0.4183
  149MOL   H10535921   5.003   0.214   4.257 -2.9595  2.0002 -1.6526
  149MOL   H10635922   4.877   0.197   4.378  0.3938 -1.2447  0.7139
  149MOL   H10735923   5.061   0.086   4.480  0.5868  0.1947 -0.8878
  149MOL   H10835924   5.166   0.217   4.455 -0.7303  1.7957 -1.5339
  149MOL   H10935925   5.052   0.234   4.575 -0.9026  0.3556  0.0231
  149MOL   C11035926   4.857   0.435   4.241  0.2706 -0.8458 -0.6339
  149MOL   C11135927   4.808   0.583   4.244  0.4197  0.2576 -0.1635
  149MOL   C11235928   4.693   0.587   4.340  0.0771  0.0949  0.1373
  149MOL   C11335929   4.633   0.723   4.380 -0.4546  0.5996 -0.0843
  149MOL   H11435930   4.775   0.363   4.245  1.7464 -2.4502  1.3227
  149MOL   H11535931   4.908   0.404   4.149  0.7677 -1.8328 -0.0298
  149MOL   H11635932   4.882   0.656   4.277 -0.1190  1.1666 -0.9358
  149MOL   H11735933   4.738   0.552   4.433 -1.3991 -0.9707  0.4681
  149MOL   H11835934   4.610   0.519   4.317  0.6111 -0.0319 -1.5329
  149MOL   H11935935   4.714   0.779   4.427  1.9528 -2.4436 -0.4551
  149MOL   H12035936   4.592   0.776   4.294 -3.2622  1.2962  1.6326
  149MOL   H12135937   4.565   0.702   4.463 -0.6370  0.0003 -0.3840
  149MOL   C12235938   4.750   0.633   4.112 -0.1476 -0.2182 -0.3532
  149MOL   C12335939   4.871   0.659   4.014 -0.6953  0.4336  0.0422
  149MOL   C12435940   4.872   0.810   3.986  0.1106 -0.0348  0.5477
  149MOL   C12535941   4.929   0.902   4.094  0.1064  0.3757 -0.1280
  149MOL   H12635942   4.702   0.728   4.136 -2.0158 -1.4863  1.0902
  149MOL   H12735943   4.683   0.556   4.072 -0.6924 -0.4000  0.9046
  149MOL   H12835944   4.964   0.634   4.066 -0.8115 -1.1408 -0.4896
  149MOL   H12935945   4.770   0.842   3.968 -0.3625 -2.6248 -1.7243
  149MOL   H13035946   4.923   0.828   3.892 -1.5364  2.1536  0.0575
  149MOL   H13135947   4.894   0.875   4.194  0.1275  1.3164  0.1442
  149MOL   H13235948   5.037   0.902   4.081 -0.0328 -1.9857 -1.5321
  149MOL   H13335949   4.884   1.000   4.077 -2.7760 -0.8690  0.1149
  149MOL   C13435950   4.857   0.581   3.880 -0.1604  0.0279 -1.0647
  149MOL   C13535951   4.995   0.562   3.812 -0.2009 -0.5540  0.0845
  149MOL   C13635952   4.993   0.505   3.668 -0.0134  0.3360  0.4796
  149MOL   C13735953   4.950   0.606   3.562 -0.2120  0.4549  0.0444
  149MOL   H13835954   4.782   0.637   3.825 -0.4557  0.7514  0.0542
  149MOL   H13935955   4.818   0.480   3.892 -2.1338  0.6754 -1.9578
  149MOL   H14035956   5.028   0.665   3.801 -1.9492  0.0382  0.3173
  149MOL   H14135957   4.930   0.416   3.658  0.7584 -0.5027  2.6911
  149MOL   H14235958   5.086   0.469   3.625  0.0264 -1.6317  2.1080
  149MOL   H14335959   4.934   0.562   3.463  0.2047 -0.7724  0.5228
  149MOL   H14435960   4.854   0.649   3.590  0.7242  1.2518  2.1705
  149MOL   H14535961   5.023   0.687   3.555  0.1636  0.2583  1.6033
  149MOL   C14635962   5.089   0.473   3.909  0.1041  0.2460  0.5598
  149MOL   C14735963   5.241   0.521   3.916  0.1237 -0.2856 -0.9210
  149MOL   C14835964   5.312   0.407   3.981  0.5629  0.4523 -0.2271
  149MOL   C14935965   5.334   0.287   3.881 -0.2818  0.0019 -0.0676
  149MOL   H15035966   5.079   0.369   3.878  1.1266  0.0432  0.8928
  149MOL   H15135967   5.062   0.479   4.014  1.0947  1.0800  0.7856
  149MOL   H15235968   5.285   0.536   3.817 -0.1632  0.5346 -0.9283
  149MOL   H15335969   5.252   0.371   4.065 -0.3772 -1.0653 -1.5328
  149MOL   H15435970   5.406   0.454   4.010  0.9368 -1.6232  2.2033
  149MOL   H15535971   5.362   0.195   3.931 -1.3212 -0.5254 -0.4187
  149MOL   H15635972   5.249   0.240   3.831  0.3610 -0.1935 -0.9881
  149MOL   H15735973   5.422   0.304   3.819  0.9384 -2.5774  0.9024
  149MOL   C15835974   5.268   0.649   4.008 -0.1190 -0.6117 -0.0532
  149MOL   C15935975   5.395   0.724   3.978  0.2136  0.2258  0.5435
  149MOL   C16035976   5.424   0.821   4.094  0.2632 -0.8742 -0.5991
  149MOL   C16135977   5.314   0.929   4.122 -0.3788  0.3951  0.2535
  149MOL   H16235978   5.255   0.631   4.115  1.2229  0.8559  0.3756
  149MOL   H16335979   5.192   0.725   3.989  0.6647  0.0503 -0.5705
  149MOL   H16435980   5.474   0.649   3.972 -0.2457 -0.1876 -0.4091
  149MOL   H16535981   5.520   0.869   4.075 -0.2740  0.5233  0.1219
  149MOL   H16635982   5.450   0.764   4.183  0.7829  0.7787  0.3309
  149MOL   H16735983   5.285   0.975   4.027 -0.3905  0.0363  0.0838
  149MOL   H16835984   5.231   0.868   4.159 -0.7016  0.0163 -1.0688
  149MOL   H16935985   5.345   1.006   4.192  0.8777  3.4066 -3.4658
  149MOL   C17035986   5.386   0.797   3.835  0.1484 -0.0113 -0.4722
  149MOL   C17135987   5.521   0.833   3.770 -0.0706 -0.0072  0.4013
  149MOL   C17235988   5.555   0.981   3.802 -0.3100 -0.1909 -0.8741
  149MOL   C17335989   5.475   1.083   3.730  0.1647 -0.0280 -0.8825
  149MOL   H17435990   5.314   0.878   3.842  0.7993  0.3528  2.7380
  149MOL   H17535991   5.347   0.719   3.769  0.5198 -0.7706  0.1976
  149MOL   H17635992   5.600   0.780   3.822  0.3035  0.8774  0.7387
  149MOL   H17735993   5.660   1.002   3.780 -0.5170  0.1542 -1.5348
  149MOL   H17835994   5.528   1.001   3.905  0.0448 -0.0085 -0.8149
  149MOL   H17935995   5.480   1.187   3.763  2.3977 -0.3899  0.0293
  149MOL   H18035996   5.510   1.081   3.627 -0.4326  3.0696 -1.1728
  149MOL   H18135997   5.370   1.052   3.731  0.6202 -1.6000  0.7445
  149MOL   C18235998   5.529   0.796   3.620 -1.1442  0.8764 -0.0478
  149MOL   C18335999   5.560   0.642   3.589  0.0550 -0.0727  0.3760
  149MOL   C18436000   5.688   0.583   3.651 -0.3118  0.0057 -0.1646
  149MOL   C18536001   5.818   0.643   3.598 -0.6012 -0.5087 -0.3925
  149MOL   H18636002   5.602   0.854   3.564 -0.4300 -0.0094 -0.0628
  149MOL   H18736003   5.441   0.831   3.566 -0.5357  2.2990 -0.1408
  149MOL   H18836004   5.479   0.587   3.637 -0.7025  0.1381 -0.6231
  149MOL   H18936005   5.689   0.476   3.629  2.5453  0.2579 -1.5108
  149MOL   H19036006   5.685   0.586   3.760  3.3012  0.2761 -0.0204
  149MOL   H19136007   5.902   0.611   3.659 -1.2460  2.0182  1.9360
  149MOL   H19236008   5.827   0.608   3.495 -3.3879  0.3100 -0.9612
  149MOL   H19336009   5.821   0.752   3.604  1.8399 -0.6480  1.2718
  149MOL   C19436010   5.546   0.600   3.439  0.5770  0.3274  0.3865
  149MOL   C19536011   5.392   0.574   3.392 -0.1461 -0.1514  0.8429
  149MOL   C19636012   5.322   0.453   3.464 -0.0717 -0.8410  0.5494
  149MOL   C19736013   5.390   0.318   3.440 -0.0338 -0.0644  0.3036
  149MOL   H19836014   5.599   0.510   3.409 -0.2138 -0.2568  0.7333
  149MOL   H19936015   5.589   0.682   3.381 -2.2363 -0.9646 -3.7308
  149MOL   H20036016   5.325   0.657   3.415 -0.8803  0.0404 -1.8079
  149MOL   H20136017   5.222   0.452   3.420  0.2676  0.4027 -0.2939
  149MOL   H20236018   5.312   0.476   3.570 -0.6565 -0.2858  0.3761
  149MOL   H20336019   5.481   0.301   3.497 -0.9243  0.1031  1.7895
  149MOL   H20436020   5.334   0.229   3.470  0.0142 -0.0363  0.4767
  149MOL   H20536021   5.425   0.319   3.337  1.3580  1.4128  0.7777
  149MOL   C20636022   5.376   0.561   3.236  0.1158 -0.3665 -0.1598
  149MOL   C20736023   5.393   0.693   3.158  0.1947  0.2621  0.6913
  149MOL   C20836024   5.275   0.785   3.187 -0.2770  0.5855 -0.2479
  149MOL   C20936025   5.318   0.930   3.214 -0.0598 -0.3992  0.3805
  149MOL   H21036026   5.275   0.527   3.216  1.1297 -1.7154 -3.3328
  149MOL   H21136027   5.439   0.478   3.205  0.5953  0.1375 -0.5599
  149MOL   H21236028   5.487   0.741   3.183  0.2296  1.1104 -0.9799
  149MOL   H21336029   5.206   0.747   3.262  0.4701  1.0475  0.6840
  149MOL   H21436030   5.225   0.788   3.090  0.4951 -0.6916 -0.6923
  149MOL   H21536031   5.387   0.984   3.149 -0.2198  1.5737  1.8026
  149MOL   H21636032   5.232   0.997   3.216  1.9201  2.2276  0.4930
  149MOL   H21736033   5.364   0.935   3.313 -2.1270 -0.2287  1.3687
  149MOL   C21836034   5.393   0.651   3.005  0.4009 -0.1843 -0.0851
  149MOL   C21936035   5.489   0.546   2.950 -0.8140 -0.3514 -0.5777
  149MOL   C22036036   5.633   0.570   2.994  0.0911  0.3270  0.0363
  149MOL   C22136037   5.679   0.712   2.966  0.1356  0.3645 -0.4719
  149MOL   H22236038   5.370   0.742   2.950  0.5070  0.6185  1.1832
  149MOL   H22336039   5.294   0.605   2.997  0.9837 -1.4973  0.0541
  149MOL   H22436040   5.447   0.453   2.989  2.0783 -1.7502 -0.6629
  149MOL   H22536041   5.706   0.507   2.944 -0.8578 -0.7727  0.0192
  149MOL   H22636042   5.625   0.559   3.102 -1.6114  1.3004  0.0416
  149MOL   H22736043   5.597   0.781   2.985  0.4393  0.4929  0.4121
  149MOL   H22836044   5.766   0.736   3.027 -1.1846 -0.6058  1.8436
  149MOL   H22936045   5.708   0.734   2.863 -0.2461  0.7800 -0.4925
  149MOL   C23036046   5.487   0.542   2.794 -0.0869  0.3673 -0.5696
  149MOL   C23136047   5.346   0.517   2.733 -0.3978 -0.0514 -0.2953
  149MOL   C23236048   5.345   0.485   2.580 -0.9856 -0.3086 -0.3081
  149MOL   C23336049   5.384   0.608   2.501  0.3036 -0.4659 -0.0836
  149MOL   H23436050   5.563   0.473   2.759  1.0955  1.3634  0.0226
  149MOL   H23536051   5.519   0.637   2.753  1.0610  0.5529  0.7443
  149MOL   H23636052   5.309   0.426   2.781  1.5436 -0.8941 -0.3539
  149MOL   H23736053   5.243   0.455   2.557 -0.9513  1.3798 -2.8588
  149MOL   H23836054   5.420   0.408   2.560 -0.4175  0.4839 -1.2891
  149MOL   H23936055   5.395   0.578   2.397  1.6399  2.3723 -0.8141
  149MOL   H24036056   5.309   0.688   2.502 -0.5054 -1.2052 -0.9113
  149MOL   H24136057   5.472   0.665   2.531 -1.4161  1.8379  0.7394
  149MOL   H24236058   5.273   0.595   2.756 -1.3586 -1.0291 -0.0147
  150MOL     C136059   4.493   2.944   4.117  0.1612  0.1009 -0.3246
  150MOL     C236060   4.527   3.008   4.254 -0.3536 -1.1479  0.0977
  150MOL     C336061   4.520   2.905   4.370 -0.1896 -0.4883 -0.0488
  150MOL     C436062   4.603   2.937   4.501 -0.3081  0.5004  0.1307
  150MOL     H536063   4.582   2.892   4.081  0.2952  0.9306 -1.2269
  150MOL     H636064   4.411   2.872   4.128 -0.4647  0.7665 -0.5970
  150MOL     H736065   4.629   3.042   4.238 -1.3590  1.0083 -2.0210
  150MOL     H836066   4.560   2.811   4.332  0.1126 -0.4379  0.1439
  150MOL     H936067   4.416   2.888   4.399  0.2759  0.0453  2.0345
  150MOL    H1036068   4.634   2.846   4.553  0.2722  0.7378  0.1985
  150MOL    H1136069   4.686   2.993   4.457  2.0325 -3.7157 -1.1188
  150MOL    H1236070   4.549   2.985   4.583 -0.8507 -1.8707  1.2032
  150MOL    H1336071   4.452   3.006   4.037 -1.4724 -0.9560 -0.3435
  150MOL    C1436072   4.436   3.132   4.293 -0.3536  0.7669 -0.4663
  150MOL    C1536073   4.452   3.270   4.225 -0.0487 -0.0182  0.7976
  150MOL    C1636074   4.394   3.275   4.079  0.5091  0.2336  0.0841
  150MOL    C1736075   4.332   3.414   4.053 -0.6786 -0.2999 -0.3651
  150MOL    H1836076   4.455   3.148   4.399  0.2463  1.2698 -0.6470
  150MOL    H1936077   4.330   3.111   4.282 -0.3958  1.5332 -1.5331
  150MOL    H2036078   4.387   3.335   4.283 -0.8894 -0.0048 -0.1415
  150MOL    H2136079   4.308   3.208   4.075 -0.0667  0.6911  3.2794
  150MOL    H2236080   4.467   3.248   4.003 -0.1019 -0.0090 -0.4146
  150MOL    H2336081   4.247   3.400   3.986 -0.2504  0.4283 -1.0631
  150MOL    H2436082   4.285   3.456   4.142 -0.6066  1.9153 -1.3295
  150MOL    H2536083   4.410   3.477   4.011  0.8734 -2.4164 -0.7484
  150MOL    C2636084   4.594   3.333   4.232 -0.0760 -0.5220  0.1386
  150MOL    C2736085   4.663   3.362   4.369 -0.4869  0.3073  0.4874
  150MOL    C2836086   4.570   3.434   4.464 -0.0651 -0.4349 -0.1748
  150MOL    C2936087   4.626   3.482   4.589 -0.1480  1.0622 -0.2836
  150MOL    H3036088   4.589   3.427   4.178  0.6606  0.0891  1.1029
  150MOL    H3136089   4.653   3.268   4.168  1.0865 -0.6026  1.2626
  150MOL    H3236090   4.682   3.266   4.416  0.8176  0.4853  0.3477
  150MOL    H3336091   4.495   3.357   4.481 -0.7410  0.6421  1.8904
  150MOL    H3436092   4.523   3.516   4.409 -1.6441 -0.4195  1.1519
  150MOL    H3536093   4.552   3.539   4.645  2.0220  1.3722  2.4035
  150MOL    H3636094   4.643   3.393   4.651 -0.8707  2.1906  1.5817
  150MOL    H3736095   4.717   3.541   4.577  0.4825  0.7117  2.3700
  150MOL    C3836096   4.796   3.438   4.343 -0.8295 -0.0775 -0.0754
  150MOL    C3936097   4.912   3.381   4.429  0.8321  0.0644  0.1624
  150MOL    C4036098   5.029   3.472   4.445 -0.1135  0.2134  0.1518
  150MOL    C4136099   5.112   3.515   4.318  0.9664  0.0923  0.8629
  150MOL    H4236100   4.785   3.546   4.354  1.4154  0.3125 -1.4827
  150MOL    H4336101   4.820   3.429   4.237  0.4556 -0.8410  0.2726
  150MOL    H4436102   4.868   3.370   4.528  0.4524  2.5836  0.3028
  150MOL    H4536103   5.082   3.424   4.528  0.8371 -2.2418 -1.8187
  150MOL    H4636104   4.989   3.562   4.491  0.2511 -0.2316  1.3501
  150MOL    H4736105   5.158   3.428   4.272  0.5611  0.0906  0.4536
  150MOL    H4836106   5.051   3.556   4.237 -1.6016 -3.2249  0.9762
  150MOL    H4936107   5.196   3.580   4.342  0.1037  1.3634  0.4928
  150MOL    C5036108   4.946   3.241   4.364 -0.2259  0.1691  0.0144
  150MOL    C5136109   5.054   3.155   4.435 -0.4375 -0.3859  0.3067
  150MOL    C5236110   5.136   3.072   4.330  0.1949  0.2398  0.2369
  150MOL    C5336111   5.051   2.951   4.272 -0.5048  0.1004 -0.0815
  150MOL    H5436112   4.982   3.272   4.266 -1.7437  2.5832  0.1672
  150MOL    H5536113   4.856   3.181   4.346 -0.9851  0.8708  1.4175
  150MOL    H5636114   5.128   3.219   4.483  1.0698 -1.2611 -0.8146
  150MOL    H5736115   5.229   3.035   4.374  0.9337 -0.0081 -1.4691
  150MOL    H5836116   5.172   3.138   4.251 -2.1000  0.4884 -0.6413
  150MOL    H5936117   5.088   2.898   4.185 -1.9237  1.4792 -1.5502
  150MOL    H6036118   5.028   2.871   4.343 -0.2666 -1.8141 -2.1218
  150MOL    H6136119   4.952   2.978   4.236 -0.4269 -0.4433 -0.7054
  150MOL    C6236120   4.996   3.067   4.546  0.0460  0.5013 -0.0076
  150MOL    C6336121   5.103   3.003   4.634  0.0045  0.1044  0.2721
  150MOL    C6436122   5.055   2.873   4.701 -0.3636 -0.0097 -0.7915
  150MOL    C6536123   4.941   2.891   4.814 -0.2571 -0.6001  0.3165
  150MOL    H6636124   4.929   2.989   4.510 -0.0926  0.3840  0.5027
  150MOL    H6736125   4.934   3.124   4.615  0.0877 -0.8673  1.1649
  150MOL    H6836126   5.187   2.970   4.572  0.5587  0.7390  0.6720
  150MOL    H6936127   5.137   2.811   4.737 -0.4863  1.6008  2.4477
  150MOL    H7036128   5.001   2.817   4.625 -0.2895 -2.0459  0.6150
  150MOL    H7136129   4.985   2.932   4.904 -0.9824 -0.3601  0.5701
  150MOL    H7236130   4.857   2.954   4.785  0.0944 -0.0106  0.5806
  150MOL    H7336131   4.891   2.796   4.837 -1.6854 -0.1511 -0.8821
  150MOL    C7436132   5.153   3.100   4.740 -0.1428 -0.1969 -0.0118
  150MOL    C7536133   5.288   3.060   4.820 -0.2242  0.2238 -0.5732
  150MOL    C7636134   5.315   3.155   4.937 -0.2289 -0.0331  0.3028
  150MOL    C7736135   5.338   3.304   4.901 -0.0921  0.9654  0.3955
  150MOL    H7836136   5.071   3.114   4.811  0.3394  0.0269  0.5111
  150MOL    H7936137   5.168   3.199   4.697 -0.1720 -1.0226 -1.9739
  150MOL    H8036138   5.283   2.962   4.868 -1.6920 -0.0116 -1.1726
  150MOL    H8136139   5.405   3.116   4.985  0.5254  1.2690 -0.0400
  150MOL    H8236140   5.237   3.146   5.013 -0.4783 -3.5309 -0.2618
  150MOL    H8336141   5.251   3.357   4.862 -0.4150 -0.7780 -1.3507
  150MOL    H8436142   5.369   3.367   4.984  1.7334 -1.4191  1.5950
  150MOL    H8536143   5.419   3.311   4.828 -0.4368  0.4435 -0.0454
  150MOL    C8636144   5.401   3.048   4.717 -0.1407  0.9512 -0.6836
  150MOL    C8736145   5.525   2.953   4.758  0.5720 -0.7196  0.3180
  150MOL    C8836146   5.648   3.000   4.672 -0.0789  0.9013 -0.1238
  150MOL    C8936147   5.703   3.150   4.679 -0.1153  0.3364 -0.0641
  150MOL    H9036148   5.438   3.148   4.696  1.0470  0.9008  1.1009
  150MOL    H9136149   5.373   2.998   4.624  0.7404  1.6968 -1.3567
  150MOL    H9236150   5.551   2.981   4.860 -1.2884 -3.8646  1.7473
  150MOL    H9336151   5.638   2.976   4.566  1.4165 -0.4881  0.0344
  150MOL    H9436152   5.726   2.928   4.693 -3.7236 -3.6200 -1.1999
  150MOL    H9536153   5.747   3.167   4.777  2.9702 -2.3954 -0.8521
  150MOL    H9636154   5.791   3.163   4.614 -1.2969 -0.6630 -1.9121
  150MOL    H9736155   5.640   3.232   4.645  0.6499  0.6646 -0.7202
  150MOL    C9836156   5.505   2.800   4.759  0.9605  0.7269 -0.1550
  150MOL    C9936157   5.607   2.722   4.840 -0.2506  0.0560 -0.0835
  150MOL   C10036158   5.641   2.587   4.764  0.0601  0.0489 -1.4068
  150MOL   C10136159   5.766   2.584   4.672 -0.0091 -0.2874 -0.6253
  150MOL   H10236160   5.498   2.778   4.653 -2.3780  2.0370 -0.2684
  150MOL   H10336161   5.407   2.773   4.796  1.6148 -1.4571  0.0572
  150MOL   H10436162   5.696   2.785   4.840  0.2559 -0.6163  2.5494
  150MOL   H10536163   5.553   2.560   4.706 -0.8521 -1.7326  0.7456
  150MOL   H10636164   5.651   2.499   4.828 -2.5635  0.9049  0.2363
  150MOL   H10736165   5.770   2.659   4.593 -2.4496  0.9343  0.3398
  150MOL   H10836166   5.857   2.582   4.732  0.6611  0.9566 -1.5693
  150MOL   H10936167   5.770   2.491   4.616 -1.0959 -0.4941 -0.3555
  150MOL   C11036168   5.552   2.715   4.984  0.0462  0.1761 -0.1781
  150MOL   C11136169   5.654   2.674   5.098  0.1383 -0.1711  0.5228
  150MOL   C11236170   5.580   2.638   5.227  0.7538  0.2435 -0.5576
  150MOL   C11336171   5.494   2.747   5.285  0.5276  0.4076 -0.4924
  150MOL   H11436172   5.461   2.655   4.981  0.0905  0.0056  1.2513
  150MOL   H11536173   5.519   2.813   5.018  0.0561  0.1123  0.0204
  150MOL   H11636174   5.709   2.587   5.061 -1.4111 -0.4966 -1.0619
  150MOL   H11736175   5.660   2.607   5.294 -1.0752 -1.9590  0.6979
  150MOL   H11836176   5.520   2.548   5.214 -0.0654  0.7610 -0.3925
  150MOL   H11936177   5.538   2.847   5.285  0.7093  0.3278 -0.4760
  150MOL   H12036178   5.403   2.757   5.226 -0.0517  3.9358  0.8848
  150MOL   H12136179   5.465   2.714   5.385  0.3883 -0.4409 -0.8065
  150MOL   C12236180   5.756   2.783   5.131  0.3478  0.5328 -0.2454
  150MOL   C12336181   5.901   2.771   5.066 -0.8219  0.1890  0.2357
  150MOL   C12436182   5.979   2.638   5.070  0.3063  0.3454  0.1641
  150MOL   C12536183   6.000   2.572   5.209  0.1480  0.6197  0.0355
  150MOL   H12636184   5.770   2.799   5.238 -2.0636  3.0001 -0.2549
  150MOL   H12736185   5.706   2.876   5.106 -1.3466 -0.5263 -0.8677
  150MOL   H12836186   5.880   2.785   4.960 -4.3484  1.3176  1.0259
  150MOL   H12936187   6.074   2.650   5.018 -0.8139  2.1002 -1.5767
  150MOL   H13036188   5.924   2.571   5.003 -2.4932  2.4938  0.2078
  150MOL   H13136189   6.055   2.641   5.272  1.4717 -2.2123  2.0699
  150MOL   H13236190   5.899   2.553   5.245 -0.4492 -0.8129 -2.2673
  150MOL   H13336191   6.051   2.479   5.186  1.2895  1.1213  0.5141
  150MOL   C13436192   5.981   2.886   5.118 -0.1229 -0.0074 -0.8054
  150MOL   C13536193   6.095   2.933   5.035 -0.4938 -0.2069  0.4895
  150MOL   C13636194   6.196   3.020   5.105 -0.7234  0.1068 -0.3717
  150MOL   C13736195   6.295   2.944   5.202  0.4562 -0.2167  0.2126
  150MOL   H13836196   6.015   2.877   5.222  0.5818  0.1651 -1.0196
  150MOL   H13936197   5.919   2.976   5.120 -0.0285  0.0434  0.5175
  150MOL   H14036198   6.152   2.846   5.002  2.0272  2.0684 -1.3740
  150MOL   H14136199   6.152   3.109   5.149 -0.3840 -0.1495  0.4992
  150MOL   H14236200   6.269   3.056   5.032  0.1780  2.1993  1.4896
  150MOL   H14336201   6.346   3.025   5.254  0.0038  0.1311  0.1133
  150MOL   H14436202   6.242   2.894   5.283 -1.5768 -3.2071 -2.8236
  150MOL   H14536203   6.378   2.888   5.158  0.6383  0.0269  0.2498
  150MOL   C14636204   6.045   3.008   4.911  0.7320 -0.1601  0.1243
  150MOL   C14736205   6.131   2.979   4.785 -0.4218 -0.4947  0.0325
  150MOL   C14836206   6.155   3.102   4.697 -0.1164  0.8762 -0.5689
  150MOL   C14936207   6.215   3.233   4.763  0.3932 -0.1173  0.1881
  150MOL   H15036208   6.048   3.115   4.929  0.8409  0.2004 -1.9456
  150MOL   H15136209   5.941   2.988   4.885  0.1000  0.9623  1.7605
  150MOL   H15236210   6.228   2.944   4.821 -0.1454 -0.9189 -1.0912
  150MOL   H15336211   6.055   3.123   4.660 -0.0416  2.4947  0.1262
  150MOL   H15436212   6.215   3.058   4.617 -0.5238 -2.2345  0.7566
  150MOL   H15536213   6.233   3.317   4.696  1.8601 -0.9599 -0.5155
  150MOL   H15636214   6.144   3.286   4.825 -0.3103 -0.2176 -0.5158
  150MOL   H15736215   6.313   3.227   4.810  1.9197 -1.4936 -3.0064
  150MOL   C15836216   6.081   2.850   4.713  0.7117 -0.3609 -0.4802
  150MOL   C15936217   6.186   2.766   4.641 -0.4598  0.4296  0.3310
  150MOL   C16036218   6.128   2.680   4.531 -0.4708  0.1882  0.3117
  150MOL   C16136219   6.051   2.758   4.419 -0.1194 -0.9588 -0.5051
  150MOL   H16236220   6.011   2.886   4.638  1.1817 -0.2577 -0.8656
  150MOL   H16336221   6.020   2.776   4.765 -0.3970  0.7354 -0.2175
  150MOL   H16436222   6.255   2.833   4.588  0.1161 -0.7198 -0.3999
  150MOL   H16536223   6.061   2.602   4.564  0.6395  0.1289  2.5148
  150MOL   H16636224   6.209   2.636   4.473  0.1002  1.9408 -0.2712
  150MOL   H16736225   6.081   2.862   4.426 -1.0446 -0.6188 -1.5678
  150MOL   H16836226   6.075   2.709   4.324 -0.2793 -2.2126  0.0842
  150MOL   H16936227   5.943   2.747   4.428 -0.3485  1.7731  0.5364
  150MOL   C17036228   6.273   2.679   4.725 -0.0324 -0.8166 -0.0489
  150MOL   C17136229   6.426   2.682   4.698 -0.3091 -0.4318 -0.9089
  150MOL   C17236230   6.492   2.551   4.740  1.6116  0.0867  0.1070
  150MOL   C17336231   6.493   2.537   4.895  0.3121 -0.3103 -0.6857
  150MOL   H17436232   6.237   2.577   4.709 -1.8548 -0.0649 -0.8482
  150MOL   H17536233   6.245   2.685   4.830 -1.9100  0.9400 -0.6263
  150MOL   H17636234   6.431   2.679   4.589  2.1325 -1.1532 -0.8133
  150MOL   H17736235   6.584   2.538   4.684  0.5461  0.9041 -1.8878
  150MOL   H17836236   6.432   2.467   4.705 -0.2506  0.8379  1.3722
  150MOL   H17936237   6.387   2.531   4.922  0.2457  0.3567 -0.7892
  150MOL   H18036238   6.526   2.441   4.933  1.6493  0.9779  1.4629
  150MOL   H18136239   6.542   2.622   4.942  0.0262  0.2815 -1.4516
  150MOL   C18236240   6.486   2.813   4.755  0.0236  0.6477  0.4221
  150MOL   C18336241   6.630   2.834   4.710 -0.1263  0.0625  0.2402
  150MOL   C18436242   6.704   2.905   4.828 -0.0611 -0.1374 -0.4880
  150MOL   C18536243   6.739   2.817   4.949 -0.8953 -0.1890  0.4113
  150MOL   H18636244   6.473   2.816   4.863  1.7268  1.8064  0.6107
  150MOL   H18736245   6.423   2.897   4.724  0.5440  0.6512 -0.6708
  150MOL   H18836246   6.679   2.737   4.700  1.8642  1.2342 -2.1592
  150MOL   H18936247   6.653   2.990   4.874  0.2390  0.5837 -1.4739
  150MOL   H19036248   6.797   2.943   4.786  1.5597 -0.9230  2.2106
  150MOL   H19136249   6.802   2.871   5.020  2.7420 -3.3078 -0.2954
  150MOL   H19236250   6.651   2.792   5.009  0.0296 -1.7818  1.1362
  150MOL   H19336251   6.793   2.725   4.928 -2.1546 -0.8668  0.0961
  150MOL   C19436252   6.627   2.912   4.584  0.2044  0.1105  0.3512
  150MOL   C19536253   6.661   2.839   4.452 -0.0038 -0.2218  0.0463
  150MOL   C19636254   6.804   2.786   4.451 -0.4434 -0.7835  0.1924
  150MOL   C19736255   6.925   2.875   4.450 -0.0221 -0.6060 -0.0772
  150MOL   H19836256   6.700   2.993   4.587 -1.7765  1.9080  1.8767
  150MOL   H19936257   6.538   2.975   4.578  1.9670  2.6754  0.2967
  150MOL   H20036258   6.599   2.750   4.448  1.3435 -1.1831  0.4937
  150MOL   H20136259   6.811   2.735   4.354  1.3654 -0.6629  0.2419
  150MOL   H20236260   6.819   2.708   4.526 -1.0250 -0.1174  0.9981
  150MOL   H20336261   7.012   2.824   4.490  0.2114  0.2853  0.5884
  150MOL   H20436262   6.933   2.910   4.347 -0.0612  0.0550  0.1398
  150MOL   H20536263   6.907   2.954   4.524 -2.1568  1.2627 -2.4901
  150MOL   C20636264   6.631   2.934   4.325 -0.3486 -0.1983 -0.4024
  150MOL   C20736265   6.503   2.905   4.245 -0.1104 -0.9521  0.2459
  150MOL   C20836266   6.498   2.763   4.178 -0.2664  0.6117  0.0828
  150MOL   C20936267   6.619   2.716   4.095 -0.5641  0.1622  0.2640
  150MOL   H21036268   6.719   2.927   4.261  0.4990  1.7321  0.5024
  150MOL   H21136269   6.635   3.039   4.353  0.6114 -0.5971  1.0159
  150MOL   H21236270   6.426   2.894   4.322  0.3012 -2.6218  0.4255
  150MOL   H21336271   6.415   2.772   4.109  1.0347  0.4039 -1.5312
  150MOL   H21436272   6.464   2.691   4.254 -1.7825  1.7066  0.4545
  150MOL   H21536273   6.590   2.624   4.045 -2.1158  1.4270 -1.2333
  150MOL   H21636274   6.649   2.795   4.026 -0.2197  0.8501  1.1761
  150MOL   H21736275   6.708   2.698   4.156 -0.8217 -3.0865 -0.2255
  150MOL   C21836276   6.478   3.029   4.151 -0.4291 -0.5656  0.3696
  150MOL   C21936277   6.343   3.040   4.079 -0.2467  0.2395 -0.9484
  150MOL   C22036278   6.348   3.137   3.961 -0.5018 -0.9035  0.1949
  150MOL   C22136279   6.228   3.131   3.869  0.1417 -0.5694 -0.3945
  150MOL   H22236280   6.562   3.028   4.080  0.0091  1.3981  0.8392
  150MOL   H22336281   6.487   3.119   4.212  2.5307  0.2916 -1.2090
  150MOL   H22436282   6.311   2.947   4.034 -0.7960  0.2348 -0.5470
  150MOL   H22536283   6.433   3.115   3.896  0.4830  1.8846  0.4922
  150MOL   H22636284   6.362   3.241   3.988  1.3336 -1.2663  0.6945
  150MOL   H22736285   6.126   3.127   3.906  0.0018 -0.9943 -0.8158
  150MOL   H22836286   6.226   3.220   3.806  0.9514 -1.2691 -1.4276
  150MOL   H22936287   6.232   3.045   3.801 -0.2275 -0.4876 -0.5198
  150MOL   C23036288   6.227   3.071   4.177  0.6245 -0.1678  0.1848
  150MOL   C23136289   6.220   3.209   4.241 -0.6473  0.0210 -0.4022
  150MOL   C23236290   6.082   3.233   4.311  0.5756 -0.1545 -0.5678
  150MOL   C23336291   6.089   3.336   4.423 -0.1566  0.0797  0.3507
  150MOL   H23436292   6.207   2.998   4.255 -1.6868  2.8034  2.4729
  150MOL   H23536293   6.138   3.053   4.117  1.3554  1.4451 -1.4370
  150MOL   H23636294   6.312   3.219   4.297 -1.1086  1.0141  0.1833
  150MOL   H23736295   6.056   3.136   4.354 -1.1817 -0.2655 -1.8441
  150MOL   H23836296   5.994   3.259   4.252 -0.3207 -1.0333  0.3528
  150MOL   H23936297   6.024   3.320   4.509 -2.2758  2.7123 -0.7099
  150MOL   H24036298   6.191   3.334   4.461 -0.4907  1.1027  1.3195
  150MOL   H24136299   6.075   3.439   4.392 -2.1842 -0.3509 -0.1999
  150MOL   H24236300   6.234   3.290   4.170  2.6631 -1.2317 -1.2493
  151MOL     C136301   6.421   1.547   3.823 -0.5239  0.4449 -0.0720
  151MOL     C236302   6.443   1.569   3.972  0.3082 -0.9998  0.1359
  151MOL     C336303   6.347   1.666   4.037 -0.2208 -0.9473  0.0288
  151MOL     C436304   6.204   1.609   4.048 -0.5419 -0.4095  0.6537
  151MOL     H536305   6.394   1.639   3.772 -1.8633 -1.1636 -2.3405
  151MOL     H636306   6.498   1.494   3.767 -1.2365 -0.4493 -0.2229
  151MOL     H736307   6.428   1.468   4.010 -0.4347  0.7713  4.9113
  151MOL     H836308   6.344   1.764   3.989  1.2451 -1.1103 -0.4248
  151MOL     H936309   6.380   1.694   4.137  0.4016  0.4390 -0.5467
  151MOL    H1036310   6.199   1.552   4.140 -1.0266 -1.3302  0.0691
  151MOL    H1136311   6.145   1.700   4.066 -1.2308 -0.7459  0.1281
  151MOL    H1236312   6.163   1.558   3.961 -0.0567  1.7015 -0.8792
  151MOL    H1336313   6.337   1.481   3.801  0.4401 -1.3248  1.4338
  151MOL    C1436314   6.589   1.600   4.003 -0.3451  0.0094  0.0284
  151MOL    C1536315   6.640   1.587   4.149  0.4191 -0.6212 -0.2089
  151MOL    C1636316   6.780   1.647   4.149  0.3454  0.2142  0.2302
  151MOL    C1736317   6.841   1.688   4.282  0.6378 -0.0777  0.2124
  151MOL    H1836318   6.604   1.707   3.990  0.6737  0.1466  2.1414
  151MOL    H1936319   6.656   1.560   3.927 -2.5503 -0.2127 -1.8582
  151MOL    H2036320   6.565   1.644   4.204  2.8809  1.9570  0.5532
  151MOL    H2136321   6.797   1.731   4.082  2.8205 -1.3115 -1.1030
  151MOL    H2236322   6.848   1.578   4.100  0.3462 -0.2924  0.9464
  151MOL    H2336323   6.838   1.602   4.349 -0.9831  1.2278  1.8686
  151MOL    H2436324   6.935   1.742   4.272 -0.8122  2.5108  0.2769
  151MOL    H2536325   6.775   1.763   4.323  2.1734  0.3428  1.9937
  151MOL    C2636326   6.646   1.443   4.204  0.3066  0.3584 -0.4711
  151MOL    C2736327   6.575   1.433   4.335 -0.1230  0.3958  0.7551
  151MOL    C2836328   6.636   1.319   4.421 -1.0960  0.1430 -0.1399
  151MOL    C2936329   6.765   1.355   4.498  0.9838  0.6444  0.0570
  151MOL    H3036330   6.750   1.420   4.229  0.3804  0.8988 -0.2856
  151MOL    H3136331   6.608   1.374   4.128 -1.0307  1.0179 -0.4045
  151MOL    H3236332   6.595   1.528   4.384 -1.7567  0.7399  0.7936
  151MOL    H3336333   6.655   1.238   4.349  0.1372 -0.1042  0.4501
  151MOL    H3436334   6.561   1.286   4.493  1.4633 -2.3982  1.4921
  151MOL    H3536335   6.744   1.446   4.554 -0.1778  1.0373 -1.0196
  151MOL    H3636336   6.782   1.269   4.563 -0.9506  0.7721  0.7568
  151MOL    H3736337   6.846   1.358   4.425  0.0473  0.5939 -0.9986
  151MOL    C3836338   6.424   1.410   4.308  0.0329 -0.2951  0.0180
  151MOL    C3936339   6.342   1.459   4.426  0.5337  0.7581  0.7490
  151MOL    C4036340   6.203   1.389   4.423  0.1334 -0.2015  0.6161
  151MOL    C4136341   6.194   1.246   4.464 -0.2163 -0.2471 -0.0818
  151MOL    H4236342   6.404   1.308   4.275  1.9383  0.0549 -2.3532
  151MOL    H4336343   6.391   1.448   4.211  0.3180 -2.5789 -0.9895
  151MOL    H4436344   6.405   1.424   4.508 -0.2988 -2.3462  0.0972
  151MOL    H4536345   6.155   1.402   4.326 -1.0769  0.1659  1.2485
  151MOL    H4636346   6.141   1.446   4.493  0.0709  1.7840 -1.0143
  151MOL    H4736347   6.240   1.229   4.561 -0.5140 -1.7587 -0.1934
  151MOL    H4836348   6.089   1.220   4.471  0.1903 -2.0314 -0.5691
  151MOL    H4936349   6.240   1.172   4.399 -0.6917 -1.4157  0.8864
  151MOL    C5036350   6.324   1.610   4.425  0.3367  0.3178  0.0964
  151MOL    C5136351   6.322   1.674   4.568 -0.0120 -0.1408  0.4541
  151MOL    C5236352   6.268   1.822   4.571 -0.2501 -0.7655  0.7113
  151MOL    C5336353   6.122   1.828   4.525  0.4208  0.2841  0.1497
  151MOL    H5436354   6.242   1.648   4.363  0.6888 -0.6134 -0.9503
  151MOL    H5536355   6.397   1.662   4.363  1.5491 -0.5639  0.7621
  151MOL    H5636356   6.257   1.602   4.619 -1.6201  0.6960 -0.3625
  151MOL    H5736357   6.325   1.895   4.514  0.9728 -1.1316  1.4311
  151MOL    H5836358   6.258   1.861   4.672  1.8449  2.2445 -0.1667
  151MOL    H5936359   6.107   1.830   4.417  0.7313  0.8295  0.1124
  151MOL    H6036360   6.074   1.738   4.564  0.6840  0.1246  0.1089
  151MOL    H6136361   6.056   1.904   4.567 -0.6409 -0.3608 -0.3497
  151MOL    C6236362   6.462   1.669   4.634  0.0657  0.1072 -0.4627
  151MOL    C6336363   6.466   1.682   4.791 -0.2626  0.9599  0.1550
  151MOL    C6436364   6.597   1.743   4.838  0.0512  0.1790 -0.6931
  151MOL    C6536365   6.714   1.668   4.779  0.0718  0.8017  0.4704
  151MOL    H6636366   6.524   1.749   4.593 -0.4028  0.5069 -0.4019
  151MOL    H6736367   6.515   1.581   4.599 -0.0758  0.0005 -0.4083
  151MOL    H6836368   6.393   1.759   4.815 -1.9925 -0.2906 -0.9704
  151MOL    H6936369   6.612   1.746   4.946  0.9775  2.7283 -0.8493
  151MOL    H7036370   6.598   1.850   4.816  0.2368 -0.2475 -2.8395
  151MOL    H7136371   6.689   1.562   4.778  3.1197  0.0374  0.4761
  151MOL    H7236372   6.743   1.705   4.680 -0.8172  2.4021  0.7766
  151MOL    H7336373   6.811   1.688   4.823 -0.5025  1.8267  1.3120
  151MOL    C7436374   6.420   1.557   4.865 -0.2873  0.9692 -0.4459
  151MOL    C7536375   6.286   1.568   4.938  0.1762 -0.2681 -0.0793
  151MOL    C7636376   6.302   1.659   5.065  0.2527 -0.3255  0.1717
  151MOL    C7736377   6.169   1.709   5.127  0.1765  0.0603  0.4501
  151MOL    H7836378   6.497   1.515   4.929 -1.0741 -1.5529 -1.0910
  151MOL    H7936379   6.412   1.478   4.791  1.9665 -0.1200  0.4384
  151MOL    H8036380   6.228   1.625   4.865  0.7623  0.2178 -0.1725
  151MOL    H8136381   6.375   1.736   5.040 -1.0432  1.0966  0.6747
  151MOL    H8236382   6.353   1.595   5.136  2.5246  0.6137 -0.5695
  151MOL    H8336383   6.112   1.770   5.056  0.2775 -1.2287 -0.7763
  151MOL    H8436384   6.114   1.625   5.169 -0.8217  0.5388  0.1156
  151MOL    H8536385   6.199   1.773   5.209 -0.7641 -0.5832  1.3019
  151MOL    C8636386   6.214   1.434   4.968 -0.1944  0.0081  0.0192
  151MOL    C8736387   6.179   1.348   4.842  0.5822  0.4184  0.7825
  151MOL    C8836388   6.035   1.384   4.783  0.4013 -0.4062 -0.1192
  151MOL    C8936389   5.924   1.336   4.878  0.7977  0.8714 -0.0716
  151MOL    H9036390   6.125   1.455   5.028  1.1536  0.9227  1.7517
  151MOL    H9136391   6.288   1.382   5.029 -0.1995 -0.0416 -0.0185
  151MOL    H9236392   6.253   1.371   4.765 -0.1086  2.3590  0.6778
  151MOL    H9336393   6.024   1.338   4.685 -1.6295 -1.3657  0.5224
  151MOL    H9436394   6.030   1.490   4.758 -0.4233 -0.2492  0.6584
  151MOL    H9536395   5.901   1.230   4.870  0.2383  1.0564 -0.9886
  151MOL    H9636396   5.927   1.365   4.983  3.1342 -1.9996  0.7185
  151MOL    H9736397   5.836   1.388   4.842  1.1096  1.3279 -0.1799
  151MOL    C9836398   6.200   1.194   4.861  0.2542 -0.4561  0.2134
  151MOL    C9936399   6.346   1.152   4.885  1.0036  0.1437 -0.4991
  151MOL   C10036400   6.433   1.173   4.758 -0.1339 -0.0751  0.8849
  151MOL   C10136401   6.584   1.198   4.805  0.2967  0.7982 -0.2364
  151MOL   H10236402   6.170   1.133   4.775  0.5481 -1.0781  0.5473
  151MOL   H10336403   6.134   1.167   4.942  1.6566  2.0898  2.2799
  151MOL   H10436404   6.382   1.213   4.968 -1.4231  0.6039  0.2476
  151MOL   H10536405   6.418   1.268   4.707  1.6698  0.2827  0.9767
  151MOL   H10636406   6.425   1.089   4.688  0.9049  1.0438 -0.6310
  151MOL   H10736407   6.653   1.172   4.726 -0.5761 -0.8369 -0.4952
  151MOL   H10836408   6.602   1.299   4.841 -0.0568  0.8824 -0.2953
  151MOL   H10936409   6.608   1.131   4.889  0.4631 -1.6656 -2.1846
  151MOL   C11036410   6.355   1.007   4.945 -0.0701 -0.6796 -0.0726
  151MOL   C11136411   6.300   0.987   5.091  0.3966 -0.6959 -0.1323
  151MOL   C11236412   6.415   0.998   5.201  0.5458  0.1125  0.0043
  151MOL   C11336413   6.492   1.131   5.194 -0.4049  1.0274  0.4863
  151MOL   H11436414   6.459   0.976   4.935 -0.1537 -0.8075 -0.5803
  151MOL   H11536415   6.316   0.929   4.880  1.6069 -2.9884  1.6386
  151MOL   H11636416   6.239   1.072   5.118  1.3707  0.5379 -1.6971
  151MOL   H11736417   6.484   0.915   5.187 -1.0786 -1.3681  0.5129
  151MOL   H11836418   6.359   0.994   5.295 -0.0687 -1.1636 -0.4110
  151MOL   H11936419   6.543   1.152   5.100 -0.8720 -0.9401 -0.2142
  151MOL   H12036420   6.435   1.221   5.219 -1.1212  0.6832  0.1073
  151MOL   H12136421   6.578   1.122   5.261 -0.4885  1.0165  0.5944
  151MOL   C12236422   6.217   0.859   5.109 -0.3411  0.1802 -0.0146
  151MOL   C12336423   6.075   0.855   5.041  0.3087 -0.3606  0.3932
  151MOL   C12436424   5.988   0.966   5.109  0.5358 -0.1514  0.9659
  151MOL   C12536425   5.840   0.964   5.056 -0.0514  0.3914  0.2345
  151MOL   H12636426   6.183   0.833   5.210  0.2306  0.9348  0.3715
  151MOL   H12736427   6.279   0.777   5.073 -0.3782  0.5648 -0.9491
  151MOL   H12836428   6.095   0.881   4.937 -0.3961 -1.4680 -0.0354
  151MOL   H12936429   6.018   1.067   5.083 -0.9487  0.4101  1.4290
  151MOL   H13036430   5.995   0.959   5.218 -0.6348  2.0173  1.2011
  151MOL   H13136431   5.831   0.974   4.948 -0.6162  3.3308  0.5296
  151MOL   H13236432   5.785   0.873   5.079 -1.8873  1.4643  0.1247
  151MOL   H13336433   5.783   1.047   5.096 -1.1223 -0.8868  1.3989
  151MOL   C13436434   6.018   0.716   5.046 -0.8089 -0.2566 -0.6794
  151MOL   C13536435   6.096   0.600   4.974  0.0129 -0.0906 -0.6876
  151MOL   C13636436   6.099   0.629   4.824 -0.4315 -0.3648 -0.3629
  151MOL   C13736437   5.973   0.636   4.744 -0.5185  0.4822 -0.4123
  151MOL   H13836438   5.914   0.724   5.015 -0.6237  0.2898 -1.1790
  151MOL   H13936439   5.999   0.695   5.151  0.0069 -0.3059 -0.5342
  151MOL   H14036440   6.202   0.592   4.999 -0.4188 -0.4058  1.1810
  151MOL   H14136441   6.155   0.554   4.767 -0.2019 -0.3495 -0.1605
  151MOL   H14236442   6.140   0.727   4.799  0.7539  0.0183  2.7868
  151MOL   H14336443   5.922   0.543   4.721  0.0988  0.6484 -2.6192
  151MOL   H14436444   5.903   0.706   4.789  0.8529  0.7111  1.4255
  151MOL   H14536445   5.996   0.679   4.646 -0.4007  1.4202  0.0150
  151MOL   C14636446   6.030   0.464   4.994  0.5501  0.1079  0.3133
  151MOL   C14736447   6.026   0.411   5.137 -0.3417  0.7802  0.2931
  151MOL   C14836448   6.162   0.422   5.221 -0.0496 -0.0335  0.0994
  151MOL   C14936449   6.263   0.308   5.205  0.1354  0.7734 -0.1011
  151MOL   H15036450   6.094   0.389   4.948 -0.7346 -1.3482  0.8400
  151MOL   H15136451   5.934   0.458   4.941 -0.5790 -1.0332  2.4191
  151MOL   H15236452   5.952   0.477   5.181 -2.0653 -0.2527 -0.9769
  151MOL   H15336453   6.123   0.437   5.321 -0.8468 -0.2261 -0.1835
  151MOL   H15436454   6.220   0.513   5.202  1.0318 -0.7030  0.1974
  151MOL   H15536455   6.359   0.347   5.240  0.6111 -1.3583  1.0295
  151MOL   H15636456   6.240   0.228   5.274  1.4170  0.6539  0.2064
  151MOL   H15736457   6.280   0.261   5.107  1.4822 -2.2460  1.5084
  151MOL   C15836458   5.960   0.265   5.144 -0.1712 -0.0531  0.5973
  151MOL   C15936459   5.918   0.209   5.286  0.3957  0.0352  0.2362
  151MOL   C16036460   5.878   0.067   5.281  0.6487  0.1210  0.5437
  151MOL   C16136461   5.991   7.668   5.286  0.2660 -0.0462  1.2493
  151MOL   H16236462   6.038   0.197   5.110 -0.1828 -1.7518  3.7292
  151MOL   H16336463   5.876   0.260   5.075  0.6051 -0.1279 -0.3426
  151MOL   H16436464   6.005   0.215   5.352 -0.1202  0.7996  0.8504
  151MOL   H16536465   5.810   0.049   5.197 -0.3650 -0.5079  1.4869
  151MOL   H16636466   5.828   0.048   5.376 -2.0569 -0.2466 -0.8770
  151MOL   H16736467   6.057   7.696   5.369  0.2658 -1.9461  1.9118
  151MOL   H16836468   5.958   7.564   5.295 -1.8711  0.3045 -1.7790
  151MOL   H16936469   6.043   7.674   5.190 -0.0594  3.6117  1.2287
  151MOL   C17036470   5.806   0.299   5.344 -0.2191  0.6812  0.5294
  151MOL   C17136471   5.808   0.317   5.497  0.7174  0.2004 -0.1541
  151MOL   C17236472   5.786   0.195   5.581 -0.1259 -0.5121 -0.5180
  151MOL   C17336473   5.641   0.132   5.571  0.4207 -0.1344 -0.2078
  151MOL   H17436474   5.712   0.261   5.306 -0.3499 -0.4332  1.9289
  151MOL   H17536475   5.801   0.397   5.297  0.2515 -0.1142 -1.2181
  151MOL   H17636476   5.910   0.344   5.523  0.3419  1.1319  0.3582
  151MOL   H17736477   5.793   0.225   5.685  1.0322  1.9055 -1.2731
  151MOL   H17836478   5.874   0.132   5.567  1.9984  1.7560  2.1563
  151MOL   H17936479   5.638   0.048   5.640  0.3177 -0.9760 -1.2165
  151MOL   H18036480   5.565   0.205   5.598  0.4235 -0.9624  2.1133
  151MOL   H18136481   5.625   0.109   5.466  0.4360  2.0099 -0.7068
  151MOL   C18236482   5.720   0.435   5.536 -0.4229  1.0375  0.2237
  151MOL   C18336483   5.767   0.577   5.504  0.0676 -0.3118 -0.5956
  151MOL   C18436484   5.920   0.600   5.521  0.3733  0.2883 -0.7199
  151MOL   C18536485   5.968   0.735   5.477  0.1211  0.3108 -0.6342
  151MOL   H18636486   5.715   0.433   5.645 -1.4841 -2.8131  0.1702
  151MOL   H18736487   5.616   0.421   5.506 -0.2184 -1.5630  0.5831
  151MOL   H18836488   5.750   0.600   5.399  1.3440 -0.4148 -0.8201
  151MOL   H18936489   5.964   0.526   5.455  1.6342  0.2653  0.1327
  151MOL   H19036490   5.962   0.580   5.620 -2.2843  2.0311  0.8258
  151MOL   H19136491   5.934   0.759   5.377 -0.6318 -2.8632 -1.1975
  151MOL   H19236492   5.935   0.812   5.547 -1.0756 -1.0949  0.3980
  151MOL   H19336493   6.076   0.747   5.487 -0.0238 -0.0684  1.9370
  151MOL   C19436494   5.675   0.684   5.578  0.7562 -0.3312 -0.4277
  151MOL   C19536495   5.538   0.721   5.518  0.9608  0.8026 -0.3427
  151MOL   C19636496   5.547   0.844   5.418 -0.7355 -0.0787 -0.2167
  151MOL   C19736497   5.591   0.974   5.484 -0.2846 -0.7146  0.4753
  151MOL   H19836498   5.712   0.779   5.616 -0.9783  0.0770  0.3045
  151MOL   H19936499   5.655   0.625   5.668  1.7843 -2.4385 -1.5410
  151MOL   H20036500   5.519   0.648   5.439 -1.8714 -1.0656  1.9663
  151MOL   H20136501   5.452   0.858   5.366  0.3501  1.8513 -1.7804
  151MOL   H20236502   5.618   0.826   5.337  1.8265  2.5272  1.3554
  151MOL   H20336503   5.683   0.979   5.543  0.0856  1.0164 -0.2391
  151MOL   H20436504   5.603   1.059   5.417  1.7040 -0.7115  0.7864
  151MOL   H20536505   5.509   1.007   5.547 -0.5055 -0.4874  0.0720
  151MOL   C20636506   5.416   0.737   5.620  1.4893  0.4048  0.6127
  151MOL   C20736507   5.349   0.603   5.647  0.1568 -0.5644  0.6215
  151MOL   C20836508   5.228   0.582   5.549 -0.3970 -0.1128  0.3489
  151MOL   C20936509   5.261   0.588   5.402  0.3060 -0.2527  0.1551
  151MOL   H21036510   5.347   0.816   5.589  0.7937 -0.9880 -1.4734
  151MOL   H21136511   5.453   0.780   5.713  1.3240  0.1940  0.7760
  151MOL   H21236512   5.431   0.531   5.647 -1.7628 -2.8142 -0.8319
  151MOL   H21336513   5.149   0.653   5.571 -0.5456 -0.5925  1.4051
  151MOL   H21436514   5.184   0.483   5.563 -1.3597  0.2516 -0.0347
  151MOL   H21536515   5.280   0.689   5.363 -1.1334 -1.1960 -3.1578
  151MOL   H21636516   5.328   0.510   5.367 -0.7176 -0.3382 -1.6976
  151MOL   H21736517   5.170   0.577   5.343  0.0222 -0.8359  0.7014
  151MOL   C21836518   5.285   0.597   5.779  0.2654 -0.3250 -0.2470
  151MOL   C21936519   5.384   0.579   5.905 -0.1603 -0.7024 -0.5598
  151MOL   C22036520   5.430   0.433   5.916  0.3019  0.4830  0.3852
  151MOL   C22136521   5.566   0.421   5.983 -0.1201 -0.5080  0.4077
  151MOL   H22236522   5.205   0.524   5.783 -0.2810  0.2784 -0.0635
  151MOL   H22336523   5.238   0.695   5.786  2.0293  0.7648 -2.7869
  151MOL   H22436524   5.470   0.645   5.894  1.0121 -2.3008 -1.2171
  151MOL   H22536525   5.438   0.384   5.819  0.3003 -1.1483  1.1987
  151MOL   H22636526   5.367   0.354   5.956  3.8580 -2.9917 -0.5813
  151MOL   H22736527   5.598   0.317   5.972  0.9557 -0.1552  0.0717
  151MOL   H22836528   5.641   0.481   5.931 -0.6431 -0.1893  0.0145
  151MOL   H22936529   5.565   0.440   6.090  0.6881 -1.9953  0.6912
  151MOL   C23036530   5.324   0.631   6.037  0.1784  0.1647  0.3243
  151MOL   C23136531   5.317   0.786   6.061  0.3977  0.2871  0.0559
  151MOL   C23236532   5.225   0.837   6.173  0.0039 -0.3737 -0.0481
  151MOL   C23336533   5.252   0.988   6.222  0.0075 -0.4419 -0.2169
  151MOL   H23436534   5.385   0.590   6.118  3.4814  1.2108 -1.5260
  151MOL   H23536535   5.231   0.575   6.039  0.4526 -0.2497  1.7966
  151MOL   H23636536   5.417   0.823   6.082  0.7196 -0.2228 -0.5435
  151MOL   H23736537   5.238   0.767   6.255 -1.1243 -0.3896  0.1246
  151MOL   H23836538   5.124   0.808   6.144  0.2786 -2.8664  1.4002
  151MOL   H23936539   5.167   1.018   6.284 -0.4077 -2.3812  0.1962
  151MOL   H24036540   5.348   0.992   6.273 -0.1776  2.9068 -0.0518
  151MOL   H24136541   5.247   1.052   6.135 -1.5116  0.2011  0.3235
  151MOL   H24236542   5.281   0.830   5.968 -1.2025 -1.8402 -0.3867
  152MOL     C136543   1.694   6.952   4.492  0.6798  0.2527 -0.4561
  152MOL     C236544   1.572   6.864   4.540  0.2972 -0.7017  0.0361
  152MOL     C336545   1.445   6.898   4.446  0.2208 -0.6939 -0.7639
  152MOL     C436546   1.463   6.862   4.301  0.0217 -0.2176 -0.4695
  152MOL     H536547   1.770   6.934   4.568 -0.7603 -2.9242  0.3196
  152MOL     H636548   1.736   6.921   4.396  2.0905 -0.3254  0.3319
  152MOL     H736549   1.600   6.759   4.535 -4.1215 -1.9641  0.0553
  152MOL     H836550   1.425   7.005   4.457  2.1887 -0.4463  0.5581
  152MOL     H936551   1.361   6.845   4.491  0.3016  1.3994  1.9787
  152MOL    H1036552   1.368   6.887   4.252  0.4211 -1.9293 -2.2012
  152MOL    H1136553   1.543   6.917   4.252  0.8841 -0.1104  1.0464
  152MOL    H1236554   1.488   6.756   4.298  0.3765 -0.1875  1.1878
  152MOL    H1336555   1.663   7.056   4.496  4.1065  1.2941  0.6228
  152MOL    C1436556   1.529   6.884   4.689 -0.5821 -0.0642 -0.4266
  152MOL    C1536557   1.620   6.824   4.799  0.0373  0.8221 -0.2988
  152MOL    C1636558   1.585   6.673   4.828 -0.3352  1.0105  0.4355
  152MOL    C1736559   1.675   6.587   4.928  0.5199  0.9114 -0.5391
  152MOL    H1836560   1.431   6.840   4.707 -0.4308  0.4981  1.9376
  152MOL    H1936561   1.516   6.993   4.692 -2.4924 -0.2819  0.2901
  152MOL    H2036562   1.720   6.845   4.760  0.2580 -0.2874 -0.3409
  152MOL    H2136563   1.586   6.627   4.729 -2.0942  0.5763  0.6140
  152MOL    H2236564   1.482   6.673   4.863 -0.5576 -2.1587 -0.0322
  152MOL    H2336565   1.773   6.566   4.885  0.9120 -0.3625  0.9299
  152MOL    H2436566   1.706   6.640   5.017 -0.5774 -0.3665  0.6439
  152MOL    H2536567   1.624   6.497   4.963  2.4684  0.5568  1.4766
  152MOL    C2636568   1.609   6.907   4.931  0.6755 -0.4374 -0.2391
  152MOL    C2736569   1.491   6.888   5.022 -0.0680 -0.2740  0.2480
  152MOL    C2836570   1.374   6.969   4.981  0.7634 -0.7276 -0.0226
  152MOL    C2936571   1.243   6.940   5.048 -0.3964 -0.5609 -0.2886
  152MOL    H3036572   1.618   7.015   4.919 -2.7797 -0.0009  0.5255
  152MOL    H3136573   1.701   6.879   4.982  0.6013 -0.2943 -0.0241
  152MOL    H3236574   1.439   6.793   5.017 -0.9745  0.2467 -0.4990
  152MOL    H3336575   1.349   6.947   4.877 -0.3905  2.2472 -0.4409
  152MOL    H3436576   1.405   7.072   5.001 -2.7927 -0.4656  5.0479
  152MOL    H3536577   1.166   6.987   4.986  0.0056 -0.2914 -0.5824
  152MOL    H3636578   1.240   6.833   5.069  1.4151 -1.2561 -3.2912
  152MOL    H3736579   1.234   6.991   5.144  0.3900 -1.2269  0.1405
  152MOL    C3836580   1.532   6.927   5.162 -0.1594  0.6800 -0.1927
  152MOL    C3936581   1.619   6.819   5.236  0.2079 -0.0799 -0.9583
  152MOL    C4036582   1.544   6.684   5.243 -0.3746 -0.0268  0.0401
  152MOL    C4136583   1.408   6.687   5.317 -0.3232 -0.5654  1.0026
  152MOL    H4236584   1.445   6.948   5.224 -0.0905  1.0970 -0.2356
  152MOL    H4336585   1.579   7.026   5.161 -0.6613  0.9452  1.3937
  152MOL    H4436586   1.715   6.803   5.188  0.4728  1.0524 -0.8245
  152MOL    H4536587   1.605   6.615   5.300  1.9811  1.8428 -0.1424
  152MOL    H4636588   1.527   6.629   5.150  0.4239 -1.1643  0.5593
  152MOL    H4736589   1.432   6.683   5.424 -0.3546  0.4325  1.0549
  152MOL    H4836590   1.351   6.778   5.298  1.4796  0.2458 -0.7333
  152MOL    H4936591   1.349   6.602   5.284  0.3719 -0.0450 -1.6777
  152MOL    C5036592   1.647   6.868   5.378 -0.1514 -0.1381 -0.2804
  152MOL    C5136593   1.733   6.996   5.393 -0.1047 -0.9274 -0.0878
  152MOL    C5236594   1.873   6.983   5.333 -0.4829 -1.2471 -0.2556
  152MOL    C5336595   1.968   7.106   5.340  0.0150 -0.3006  0.0075
  152MOL    H5436596   1.707   6.787   5.420  0.4146 -0.7122 -2.1150
  152MOL    H5536597   1.555   6.874   5.437 -0.3811 -1.9294 -0.4225
  152MOL    H5636598   1.691   7.076   5.334  0.4520  0.1242  0.9157
  152MOL    H5736599   1.866   6.956   5.227 -0.6958 -1.7104 -0.1279
  152MOL    H5836600   1.919   6.892   5.372 -2.1699 -1.5834  0.9834
  152MOL    H5936601   2.017   7.102   5.437  1.3521  2.1953 -0.5207
  152MOL    H6036602   2.028   7.102   5.249  0.5408 -1.6814  0.4009
  152MOL    H6136603   1.929   7.207   5.341  0.3017 -0.1936  2.0438
  152MOL    C6236604   1.747   7.044   5.538 -0.6649 -0.2617  0.8666
  152MOL    C6336605   1.615   7.093   5.603 -0.2513  0.4002 -0.7391
  152MOL    C6436606   1.553   7.222   5.539 -0.1345 -0.4960 -0.1973
  152MOL    C6536607   1.655   7.334   5.516 -0.1475  0.6065  0.1681
  152MOL    H6636608   1.821   7.123   5.552 -0.7645  0.3388 -1.6359
  152MOL    H6736609   1.781   6.963   5.602 -0.6255  0.2589  1.5126
  152MOL    H6836610   1.549   7.007   5.595 -2.2488  1.6669  1.5953
  152MOL    H6936611   1.469   7.258   5.599 -0.1710 -1.4115  0.3110
  152MOL    H7036612   1.510   7.200   5.442  1.6587  0.1310 -1.1519
  152MOL    H7136613   1.721   7.315   5.431 -0.8633  1.6414 -0.6399
  152MOL    H7236614   1.589   7.420   5.506  0.1606  1.0940  2.1980
  152MOL    H7336615   1.696   7.361   5.613 -0.5975  0.8396  0.2998
  152MOL    C7436616   1.643   7.114   5.754 -0.4648  0.6482 -0.0619
  152MOL    C7536617   1.524   7.117   5.845  0.3903 -0.6679 -0.1520
  152MOL    C7636618   1.555   7.174   5.986  0.5419 -0.4137  0.0308
  152MOL    C7736619   1.576   7.318   5.984 -0.4524 -0.1536 -0.0547
  152MOL    H7836620   1.709   7.201   5.761 -2.3853  2.1822 -0.6101
  152MOL    H7936621   1.707   7.033   5.790  1.0858  0.3239 -3.3387
  152MOL    H8036622   1.448   7.180   5.799 -3.3901 -2.8907  2.7409
  152MOL    H8136623   1.646   7.126   6.022  1.2545  1.4353  0.7419
  152MOL    H8236624   1.465   7.159   6.046  0.8008 -1.3783  0.1955
  152MOL    H8336625   1.507   7.373   5.920  0.4863  0.7550 -0.2903
  152MOL    H8436626   1.563   7.348   6.088 -0.2957 -1.6801  0.4225
  152MOL    H8536627   1.677   7.348   5.957  0.0807 -1.3270  0.5927
  152MOL    C8636628   1.467   6.978   5.862 -0.2584 -0.1387 -0.4004
  152MOL    C8736629   1.304   6.973   5.866  0.2096  0.0784  0.8541
  152MOL    C8836630   1.245   6.844   5.930 -0.0389  0.2639  0.0072
  152MOL    C8936631   1.099   6.840   5.967  0.4671 -0.3155 -0.2764
  152MOL    H9036632   1.508   6.935   5.953  0.1182  0.6685 -0.1887
  152MOL    H9136633   1.495   6.911   5.781 -1.4389 -1.4723  0.2697
  152MOL    H9236634   1.266   7.052   5.932 -0.7195 -1.8889  2.7520
  152MOL    H9336635   1.315   6.820   6.011 -0.0002  0.1616 -0.0574
  152MOL    H9436636   1.253   6.767   5.854  0.3343  1.1516 -0.8554
  152MOL    H9536637   1.031   6.862   5.885  0.3938  0.3207 -0.0495
  152MOL    H9636638   1.073   6.744   6.011 -0.2976  0.1440  0.2708
  152MOL    H9736639   1.077   6.912   6.046 -0.3287 -1.4457  0.5442
  152MOL    C9836640   1.255   6.987   5.726  0.6840  0.3204 -0.1271
  152MOL    C9936641   1.125   7.085   5.709  0.0966  0.5157 -0.2117
  152MOL   C10036642   1.030   7.005   5.612 -0.5125 -0.1964 -0.4548
  152MOL   C10136643   1.091   6.988   5.467 -0.7145  0.2332  0.0674
  152MOL   H10236644   1.227   6.886   5.694  1.3843  0.7404 -2.1586
  152MOL   H10336645   1.334   7.016   5.657  1.8731 -1.7291  0.3315
  152MOL   H10436646   1.077   7.095   5.806  0.6397 -0.0938  0.1316
  152MOL   H10536647   0.937   7.062   5.612 -0.3724  0.0509  1.6631
  152MOL   H10636648   1.014   6.906   5.655  0.1920 -0.4275 -0.7188
  152MOL   H10736649   1.066   6.891   5.423  4.1016 -0.7157 -0.9569
  152MOL   H10836650   1.067   7.073   5.404 -2.4136  0.7101  1.3500
  152MOL   H10936651   1.200   6.976   5.466 -0.9654 -2.4844 -0.6695
  152MOL   C11036652   1.174   7.223   5.658  0.4765 -0.2403 -0.1251
  152MOL   C11136653   1.103   7.334   5.728 -0.5470 -0.6043 -0.4879
  152MOL   C11236654   1.089   7.456   5.637 -0.7728 -0.0745 -0.2682
  152MOL   C11336655   1.219   7.521   5.589 -0.0101  0.4629 -0.0943
  152MOL   H11436656   1.161   7.227   5.550  0.9272 -0.3970 -0.1850
  152MOL   H11536657   1.279   7.242   5.683  0.4061 -0.2098  0.1458
  152MOL   H11636658   0.998   7.304   5.735 -0.4893 -0.7697 -0.3208
  152MOL   H11736659   1.030   7.534   5.684  1.8681  1.6072  0.3701
  152MOL   H11836660   1.032   7.431   5.547  0.9394 -0.4582 -1.2753
  152MOL   H11936661   1.205   7.611   5.530 -0.1404  2.1155  2.3897
  152MOL   H12036662   1.260   7.563   5.681 -1.6126  1.5873  0.1201
  152MOL   H12136663   1.289   7.458   5.534  0.0418  1.1828 -0.8549
  152MOL   C12236664   1.159   7.366   5.869  0.5958 -0.5089 -1.0442
  152MOL   C12336665   1.059   7.451   5.961  0.2838 -0.9489 -0.3301
  152MOL   C12436666   1.135   7.513   6.085 -0.2358 -0.2029 -0.1980
  152MOL   C12536667   1.071   7.634   6.148 -0.2466 -0.3306 -0.2873
  152MOL   H12636668   1.254   7.419   5.862 -1.0864  2.5174 -1.6202
  152MOL   H12736669   1.186   7.278   5.928 -1.8407 -0.2733  0.5120
  152MOL   H12836670   1.018   7.532   5.901 -0.2026 -0.4818  0.6221
  152MOL   H12936671   1.238   7.538   6.060  0.3124 -0.6024  1.6230
  152MOL   H13036672   1.146   7.442   6.167 -0.2301  0.7466  0.6416
  152MOL   H13136673   0.974   7.601   6.183  0.7961 -1.7977  1.3266
  152MOL   H13236674   1.146   7.685   6.209  1.1165 -1.7857 -0.7191
  152MOL   H13336675   1.060   0.007   6.073  3.6413  0.8550  0.2288
  152MOL   C13436676   0.938   7.356   6.001  0.5774  0.0093  0.7311
  152MOL   C13536677   0.792   7.395   5.956 -0.1770  0.1197  0.3757
  152MOL   C13636678   0.733   7.516   6.040  0.8077 -0.2338  0.0811
  152MOL   C13736679   0.681   7.479   6.186 -0.1692  0.3834  0.1821
  152MOL   H13836680   0.934   7.342   6.109 -0.5308 -2.1933  0.4250
  152MOL   H13936681   0.961   7.256   5.963  1.3555  0.7132 -0.6997
  152MOL   H14036682   0.796   7.442   5.858 -2.3736  0.5810  0.5004
  152MOL   H14136683   0.653   7.556   5.978  2.3016  1.1984 -0.9591
  152MOL   H14236684   0.809   7.592   6.056 -0.5553  0.6125  2.7853
  152MOL   H14336685   0.605   7.401   6.183 -0.0222  0.3007 -1.7000
  152MOL   H14436686   0.767   7.440   6.239  0.1117  1.5183  0.5814
  152MOL   H14536687   0.655   7.565   6.248 -1.0259 -0.9399  1.7160
  152MOL   C14636688   0.695   7.275   5.961  0.5005  0.6332  0.0583
  152MOL   C14736689   0.700   7.177   5.840 -0.4256  0.4191 -0.6239
  152MOL   C14836690   0.674   7.241   5.698 -0.3624 -0.0638 -0.0477
  152MOL   C14936691   0.554   7.313   5.666  0.0121 -0.2910  0.0585
  152MOL   H15036692   0.595   7.318   5.965 -0.6443 -1.9735  0.7580
  152MOL   H15136693   0.710   7.220   6.054 -0.6898  0.3776  0.1078
  152MOL   H15236694   0.800   7.134   5.836 -1.1866 -1.2647 -3.1835
  152MOL   H15336695   0.687   7.156   5.631  0.8114 -1.7298  2.2301
  152MOL   H15436696   0.757   7.307   5.674  0.3615 -1.0895 -0.4310
  152MOL   H15536697   0.571   7.382   5.583 -2.6312  0.0558 -0.2242
  152MOL   H15636698   0.476   7.242   5.637  0.3468  0.4180 -2.7125
  152MOL   H15736699   0.513   7.367   5.751  0.3137  0.9328 -0.5575
  152MOL   C15836700   0.586   7.074   5.868 -0.4038 -0.0786  0.0495
  152MOL   C15936701   0.626   6.947   5.942 -0.1523 -0.2230  0.4427
  152MOL   C16036702   0.680   6.981   6.080  0.0906 -0.1754  0.1758
  152MOL   C16136703   0.689   6.869   6.183 -0.3658  0.8817  0.1718
  152MOL   H16236704   0.554   7.053   5.766 -0.2266 -2.2393  0.4069
  152MOL   H16336705   0.498   7.115   5.919  2.1486  2.8798  2.2755
  152MOL   H16436706   0.533   6.895   5.964  0.0681 -1.2026 -0.8959
  152MOL   H16536707   0.615   7.051   6.132 -1.3335 -1.5063  0.2151
  152MOL   H16636708   0.780   7.021   6.065 -0.3015  0.8880  0.3251
  152MOL   H16736709   0.592   6.819   6.189  1.1639 -2.4767 -1.7084
  152MOL   H16836710   0.763   6.792   6.160  1.2405  2.7138 -0.9850
  152MOL   H16936711   0.711   6.915   6.279  0.6382 -1.3809  1.0575
  152MOL   C17036712   0.710   6.862   5.851  0.1473 -0.0209  0.2930
  152MOL   C17136713   0.619   6.808   5.741  0.2400 -0.1104  0.5015
  152MOL   C17236714   0.618   6.652   5.738  0.4139  0.0878 -0.0690
  152MOL   C17336715   0.548   6.594   5.871 -0.4915  0.2419  0.1223
  152MOL   H17436716   0.766   6.781   5.898  1.0948 -0.4352 -1.4867
  152MOL   H17536717   0.796   6.919   5.815 -0.3422  1.0855  0.8584
  152MOL   H17636718   0.515   6.832   5.764  0.8445  3.9018 -0.6546
  152MOL   H17736719   0.712   6.603   5.715 -0.4025 -1.5811  0.0869
  152MOL   H17836720   0.562   6.613   5.653  1.2602  0.3329 -0.7377
  152MOL   H17936721   0.525   6.489   5.852  0.8951  0.3956 -2.7332
  152MOL   H18036722   0.609   6.613   5.959  1.1631  0.6240 -1.0781
  152MOL   H18136723   0.451   6.643   5.882 -0.8791 -0.6142  0.5345
  152MOL   C18236724   0.666   6.855   5.599  0.3265 -0.0544  0.7573
  152MOL   C18336725   0.550   6.860   5.492  0.0641 -0.4923  0.8143
  152MOL   C18436726   0.600   6.797   5.362 -0.9618 -0.0052  0.1715
  152MOL   C18536727   0.608   6.646   5.377  0.5552  0.4740  0.2646
  152MOL   H18636728   0.749   6.796   5.559 -0.4877 -0.7781  0.1026
  152MOL   H18736729   0.714   6.953   5.605  3.1045 -1.2432 -0.7344
  152MOL   H18836730   0.477   6.790   5.533  0.0447 -1.0468 -0.1313
  152MOL   H18936731   0.690   6.848   5.328  0.0945  0.1534  3.1050
  152MOL   H19036732   0.524   6.821   5.287 -2.3420  1.6639  2.0291
  152MOL   H19136733   0.518   6.595   5.412 -0.0748  0.0431 -1.9047
  152MOL   H19236734   0.612   6.606   5.275  1.6250 -1.4279  1.0285
  152MOL   H19336735   0.694   6.597   5.423  0.8923 -0.0484 -0.8940
  152MOL   C19436736   0.494   7.001   5.474  0.1151  0.0422  0.1791
  152MOL   C19536737   0.361   7.006   5.392 -0.5433  0.6107  0.0066
  152MOL   C19636738   0.355   7.116   5.278 -0.1327 -0.1889 -0.4759
  152MOL   C19736739   0.375   7.257   5.335  0.3366 -0.1673  0.6347
  152MOL   H19836740   0.566   7.056   5.412 -1.1475  2.1340  0.5207
  152MOL   H19936741   0.486   7.044   5.573  0.0418 -0.9554  0.6082
  152MOL   H20036742   0.345   6.908   5.346  2.7384 -0.8483  1.8018
  152MOL   H20136743   0.265   7.104   5.219 -0.7291 -2.6703  0.8332
  152MOL   H20236744   0.431   7.102   5.202  0.6596 -1.1100  0.4548
  152MOL   H20336745   0.455   7.266   5.409 -0.3262  0.0555  1.3414
  152MOL   H20436746   0.404   7.323   5.254  0.5462 -1.9874 -0.7980
  152MOL   H20536747   0.282   7.287   5.383 -1.8189 -2.2406 -2.1057
  152MOL   C20636748   0.241   7.017   5.489 -0.3411  0.6613  0.1363
  152MOL   C20736749   0.194   6.896   5.577  0.9425 -0.0175  0.2741
  152MOL   C20836750   0.176   6.760   5.508  0.4069 -0.3637 -0.3545
  152MOL   C20936751   0.152   6.628   5.584 -0.9626  0.7161  0.8735
  152MOL   H21036752   0.153   7.044   5.431 -1.9344 -0.1184  2.1191
  152MOL   H21136753   0.257   7.102   5.556  1.3610  0.0880  0.4705
  152MOL   H21236754   0.269   6.883   5.655 -0.4074 -0.5446  1.5327
  152MOL   H21336755   0.268   6.749   5.449  1.3580 -1.0544  1.2221
  152MOL   H21436756   0.096   6.764   5.434  0.6711 -1.5205 -0.7116
  152MOL   H21536757   0.048   6.607   5.610 -0.8790 -0.4741  0.2437
  152MOL   H21636758   0.182   6.549   5.516  2.8616  1.0361  2.0872
  152MOL   H21736759   0.221   6.615   5.667 -1.3624  2.2383  1.4703
  152MOL   C21836760   0.068   6.922   5.665  0.4400  0.2160  0.6008
  152MOL   C21936761   0.063   7.045   5.762 -0.5113 -0.0701  0.8681
  152MOL   C22036762   0.186   7.057   5.850 -0.3923  0.8582 -0.2018
  152MOL   C22136763   0.204   6.933   5.943  0.3673 -0.2022  0.5618
  152MOL   H22236764   0.056   6.833   5.728  1.2612 -0.1986  0.1826
  152MOL   H22336765   7.687   6.926   5.600  0.4934 -1.4631  0.3841
  152MOL   H22436766   0.055   7.123   5.686 -2.7113 -1.1535 -0.0528
  152MOL   H22536767   0.168   7.140   5.918 -1.4367  0.1268  0.4319
  152MOL   H22636768   0.279   7.077   5.796 -0.5586  0.1734 -0.7499
  152MOL   H22736769   0.228   6.837   5.896 -0.2248 -0.1712  0.1950
  152MOL   H22836770   0.286   6.957   6.011 -0.0015  1.1257  0.5439
  152MOL   H22936771   0.112   6.914   5.998  0.1391  0.8873  0.5642
  152MOL   C23036772   7.631   7.067   5.830 -0.6863  0.0385  0.2204
  152MOL   C23136773   7.595   7.208   5.867 -0.0196  0.5039 -0.3793
  152MOL   C23236774   7.479   7.208   5.964  0.1245  0.5113 -0.2911
  152MOL   C23336775   7.452   7.351   6.019  0.3839 -0.4425 -1.0649
  152MOL   H23436776   7.640   7.016   5.926 -0.3513 -1.3522 -0.5386
  152MOL   H23536777   7.565   7.003   5.772  0.7342  0.3912 -1.8386
  152MOL   H23636778   7.681   7.258   5.910 -0.9927  1.1185  0.8510
  152MOL   H23736779   7.496   7.152   6.056  1.1035  2.4201  0.7311
  152MOL   H23836780   7.397   7.151   5.922 -1.9795  0.3057  3.7956
  152MOL   H23936781   7.379   7.348   6.100  1.5013 -0.6104 -0.0628
  152MOL   H24036782   7.539   7.408   6.052  1.2417 -2.0830 -0.4605
  152MOL   H24136783   7.399   7.395   5.934  0.5438  3.7164  0.8536
  152MOL   H24236784   7.565   7.266   5.780  1.1665  1.1110 -0.3855
  153MOL     C136785   2.813   7.480   4.831  0.1465  0.4639 -0.2267
  153MOL     C236786   2.805   7.366   4.936  0.5302 -0.4539  0.1644
  153MOL     C336787   2.684   7.398   5.028  0.1462  0.6226  0.5192
  153MOL     C436788   2.540   7.392   4.961  0.1920  0.3756 -0.4740
  153MOL     H536789   2.863   7.447   4.740 -1.3700 -0.5070 -0.7179
  153MOL     H636790   2.716   7.515   4.796 -0.1711  0.8742  1.0334
  153MOL     H736791   2.778   7.270   4.892 -0.7232 -0.0051 -0.0657
  153MOL     H836792   2.705   7.487   5.086  1.8027  0.2823  0.4559
  153MOL     H936793   2.684   7.308   5.090 -0.1846  0.8848  0.9020
  153MOL    H1036794   2.541   7.481   4.899 -1.0468  1.4950  1.0715
  153MOL    H1136795   2.524   7.300   4.904  0.5529  1.5584 -2.5188
  153MOL    H1236796   2.458   7.398   5.032  0.0943  0.6390 -0.6126
  153MOL    H1336797   2.862   7.556   4.892  0.7124  0.8704 -1.1785
  153MOL    C1436798   2.936   7.343   5.013 -0.7231 -0.0630 -0.5039
  153MOL    C1536799   3.062   7.286   4.928  0.2221  0.9233 -0.3317
  153MOL    C1636800   3.132   7.191   5.025  0.9589  0.3166 -0.1423
  153MOL    C1736801   3.056   7.074   5.087 -0.0430 -0.4176  0.5715
  153MOL    H1836802   2.910   7.269   5.089  3.1248 -0.6938  0.3021
  153MOL    H1936803   2.965   7.435   5.064  0.9403  0.4871 -2.3760
  153MOL    H2036804   3.033   7.239   4.834 -0.9549  1.1364 -0.0787
  153MOL    H2136805   3.193   7.248   5.095 -1.0613  0.7334  1.3085
  153MOL    H2236806   3.200   7.129   4.966  0.9413 -1.5362  1.7080
  153MOL    H2336807   2.995   7.108   5.171  1.2951  0.0439  1.3686
  153MOL    H2436808   2.983   7.027   5.021  0.6762 -0.0594 -0.5016
  153MOL    H2536809   3.119   6.994   5.125  1.6638  0.4328 -0.3844
  153MOL    C2636810   3.164   7.399   4.889 -0.4937  0.0904  0.0624
  153MOL    C2736811   3.255   7.366   4.765  0.4920  0.1284 -0.0169
  153MOL    C2836812   3.388   7.444   4.769  0.1170 -0.0698 -0.2804
  153MOL    C2936813   3.474   7.402   4.889  0.7147  0.6891  0.4201
  153MOL    H3036814   3.215   7.430   4.980 -2.4588 -1.2813  1.6788
  153MOL    H3136815   3.098   7.479   4.855 -2.1414 -1.5466 -0.7463
  153MOL    H3236816   3.283   7.261   4.769 -0.0354  0.0241  0.9871
  153MOL    H3336817   3.364   7.551   4.776  0.3938 -0.0076 -0.2796
  153MOL    H3436818   3.447   7.421   4.681  1.2065  1.2137  0.0851
  153MOL    H3536819   3.424   7.430   4.982  0.5885  3.4740 -0.4331
  153MOL    H3636820   3.516   7.302   4.903  1.7463  0.9935 -0.5401
  153MOL    H3736821   3.560   7.468   4.884  0.9258  0.5183  1.6265
  153MOL    C3836822   3.192   7.393   4.627 -0.5518  0.5141 -0.2109
  153MOL    C3936823   3.242   7.300   4.509  0.1116  0.7780 -0.3914
  153MOL    C4036824   3.248   7.374   4.369  0.7819  1.0535 -0.4669
  153MOL    C4136825   3.332   7.501   4.361 -0.0053 -0.2626 -0.3023
  153MOL    H4236826   3.218   7.494   4.595 -0.2756  0.2545 -0.8187
  153MOL    H4336827   3.083   7.393   4.637 -0.5656 -0.7415 -0.2880
  153MOL    H4436828   3.344   7.276   4.539  0.2334  1.8939  0.1366
  153MOL    H4536829   3.148   7.399   4.335  0.4387  0.3375  0.0154
  153MOL    H4636830   3.283   7.299   4.297  0.7244  0.1272  0.4625
  153MOL    H4736831   3.283   7.584   4.412 -2.3678 -1.7552 -0.0741
  153MOL    H4836832   3.427   7.481   4.410 -0.0191  1.8481  0.6018
  153MOL    H4936833   3.351   7.528   4.257  0.4311 -1.3167 -0.5073
  153MOL    C5036834   3.155   7.174   4.509 -0.4302  0.4728 -0.1210
  153MOL    C5136835   3.202   7.065   4.405  0.0311  0.1981  0.1096
  153MOL    C5236836   3.104   6.949   4.421 -0.1753 -0.6348 -0.1344
  153MOL    C5336837   2.955   6.971   4.383 -0.1474  0.0014 -0.1644
  153MOL    H5436838   3.062   7.206   4.461 -1.4453  0.8155  2.0134
  153MOL    H5536839   3.125   7.135   4.606 -0.3143  0.3048 -0.1532
  153MOL    H5636840   3.184   7.095   4.302 -2.5193  0.7067  0.6858
  153MOL    H5736841   3.101   6.916   4.524 -4.7166 -2.8010 -0.8269
  153MOL    H5836842   3.136   6.860   4.367  2.0135 -0.4804  0.8837
  153MOL    H5936843   2.903   7.026   4.461  0.1352 -0.9979  0.7450
  153MOL    H6036844   2.936   7.026   4.291 -0.3185 -1.0869 -0.7868
  153MOL    H6136845   2.906   6.874   4.379  2.8619 -1.5833  0.0532
  153MOL    C6236846   3.348   7.016   4.429  0.1286 -0.0635  0.4313
  153MOL    C6336847   3.421   6.911   4.335  0.1645  0.1262  0.1121
  153MOL    C6436848   3.536   6.846   4.417 -0.2217 -0.8432 -0.3733
  153MOL    C6536849   3.641   6.943   4.472 -0.0167  0.1351 -0.2655
  153MOL    H6636850   3.336   6.973   4.528 -1.2689 -0.8203 -0.0486
  153MOL    H6736851   3.413   7.103   4.422  0.2796 -0.0195  2.2818
  153MOL    H6836852   3.357   6.826   4.310  0.4142 -0.3161  0.9496
  153MOL    H6936853   3.585   6.759   4.372  1.5756  0.1702 -0.4123
  153MOL    H7036854   3.487   6.805   4.505  0.3515 -1.0302 -0.1355
  153MOL    H7136855   3.716   6.956   4.394 -0.8472 -1.5527 -1.3719
  153MOL    H7236856   3.614   7.036   4.522 -0.9171 -0.1733 -0.1724
  153MOL    H7336857   3.692   6.899   4.559 -2.5687 -3.1231 -0.3208
  153MOL    C7436858   3.461   6.965   4.194  0.7125 -0.3460  0.0239
  153MOL    C7536859   3.508   6.860   4.093  0.1232 -0.0144  0.2799
  153MOL    C7636860   3.594   6.916   3.978 -0.1343  0.2179  0.5802
  153MOL    C7736861   3.533   6.992   3.858 -0.9239 -0.4988 -0.1888
  153MOL    H7836862   3.538   7.042   4.205  2.1022 -1.5130 -1.3335
  153MOL    H7936863   3.381   7.017   4.141 -1.3502 -0.8819  2.4939
  153MOL    H8036864   3.580   6.796   4.145  1.3856  1.0761 -0.0943
  153MOL    H8136865   3.656   6.841   3.929 -0.3748 -0.1798  0.8896
  153MOL    H8236866   3.676   6.972   4.024 -0.4916 -0.7717  2.4548
  153MOL    H8336867   3.470   6.925   3.800 -0.2078 -1.8990  0.6166
  153MOL    H8436868   3.471   7.079   3.877 -1.3293 -0.9207  0.4407
  153MOL    H8536869   3.614   7.045   3.808 -2.0170 -0.7759 -2.2808
  153MOL    C8636870   3.379   6.790   4.036  0.6675 -0.1928  0.2839
  153MOL    C8736871   3.386   6.691   3.912 -0.3127  0.2788 -0.4108
  153MOL    C8836872   3.247   6.668   3.843 -0.2598  0.8332  0.0951
  153MOL    C8936873   3.202   6.791   3.760 -0.1803 -0.2477  0.0972
  153MOL    H9036874   3.303   6.862   4.005 -1.8922 -1.9844  2.2056
  153MOL    H9136875   3.331   6.742   4.122  0.3644  0.9514  0.7619
  153MOL    H9236876   3.463   6.723   3.841  1.4267 -0.9208  0.9031
  153MOL    H9336877   3.160   6.645   3.904 -0.0813 -1.8406 -0.5757
  153MOL    H9436878   3.247   6.581   3.776  1.4297  0.2789  0.7799
  153MOL    H9536879   3.171   6.876   3.822  0.4057 -1.6634  2.4115
  153MOL    H9636880   3.278   6.827   3.691 -1.4255  1.9974 -0.1534
  153MOL    H9736881   3.112   6.762   3.705 -0.6174 -0.4197  0.8927
  153MOL    C9836882   3.448   6.561   3.984  0.5753  0.4844 -0.6114
  153MOL    C9936883   3.561   6.482   3.907  0.0804  0.0432 -0.1434
  153MOL   C10036884   3.515   6.387   3.799 -0.1462 -0.0528 -0.1683
  153MOL   C10136885   3.441   6.263   3.852 -0.3731 -0.1832  0.0026
  153MOL   H10236886   3.360   6.500   4.008 -0.3168  0.3847 -3.9293
  153MOL   H10336887   3.493   6.585   4.080 -0.6061 -2.1365  0.6591
  153MOL   H10436888   3.622   6.554   3.854 -1.0595 -0.1005 -1.6578
  153MOL   H10536889   3.598   6.370   3.730 -0.8506  5.1578 -2.5696
  153MOL   H10636890   3.442   6.440   3.737  0.6686  0.4543 -0.6945
  153MOL   H10736891   3.377   6.229   3.770 -0.8544  1.5179 -0.3406
  153MOL   H10836892   3.495   6.181   3.899 -2.8064 -1.5953  0.4599
  153MOL   H10936893   3.366   6.293   3.925 -0.2899 -1.2522  0.5395
  153MOL   C11036894   3.652   6.404   4.005  0.3948  0.6688  0.6412
  153MOL   C11136895   3.801   6.462   4.012  0.3154  0.8958  0.1177
  153MOL   C11236896   3.897   6.352   4.067 -0.3335 -0.4745 -0.9865
  153MOL   C11336897   3.860   6.312   4.211 -0.2589 -0.7485 -0.0361
  153MOL   H11436898   3.667   6.299   3.979  1.2852  0.7710  0.7303
  153MOL   H11536899   3.609   6.394   4.105  0.2473  0.1774  0.5288
  153MOL   H11636900   3.836   6.485   3.911  0.5713  0.5743  0.1360
  153MOL   H11736901   3.999   6.389   4.068 -1.1367  1.9566  3.2759
  153MOL   H11836902   3.885   6.262   4.007  0.8521 -0.8100 -0.7319
  153MOL   H11936903   3.938   6.246   4.249  2.1314  2.4706  0.8029
  153MOL   H12036904   3.860   6.391   4.285 -1.8543 -0.1453 -0.6487
  153MOL   H12136905   3.762   6.266   4.222  0.4540 -1.6056  2.9653
  153MOL   C12236906   3.804   6.592   4.098 -0.2876 -0.1948  0.2755
  153MOL   C12336907   3.938   6.667   4.116 -0.2558  0.1870  0.0038
  153MOL   C12436908   3.912   6.773   4.227  0.0500  0.4166  0.6360
  153MOL   C12536909   3.936   6.730   4.379  0.1659  0.2349 -0.5447
  153MOL   H12636910   3.764   6.572   4.197 -1.1782 -2.9903 -0.5905
  153MOL   H12736911   3.723   6.656   4.063  1.7145  2.0552 -0.3426
  153MOL   H12836912   4.019   6.600   4.143 -1.2331 -1.2252 -0.4862
  153MOL   H12936913   3.811   6.814   4.220  0.0623  0.0464 -2.1968
  153MOL   H13036914   3.968   6.865   4.214  0.7187  0.2596  2.2944
  153MOL   H13136915   3.905   6.811   4.445 -0.8717 -1.6410  1.3107
  153MOL   H13236916   3.877   6.640   4.396  0.9945  0.0630  1.4393
  153MOL   H13336917   4.041   6.705   4.390 -0.3157 -1.4514  0.3506
  153MOL   C13436918   3.987   6.732   3.976 -0.4891  0.3805  0.4829
  153MOL   C13536919   4.134   6.777   3.964  0.5697  0.3186 -0.3185
  153MOL   C13636920   4.228   6.662   4.003 -0.7083  0.2947 -0.4393
  153MOL   C13736921   4.368   6.675   3.939 -0.2103  0.1104  0.2597
  153MOL   H13836922   3.910   6.797   3.934  0.3828 -0.8087 -3.0433
  153MOL   H13936923   3.980   6.644   3.913 -1.2183 -0.6795  2.0134
  153MOL   H14036924   4.147   6.789   3.857  1.9813  0.2734 -0.1555
  153MOL   H14136925   4.182   6.564   3.990  2.5184 -1.4439  0.7508
  153MOL   H14236926   4.257   6.668   4.108 -0.9179 -0.2876 -0.3477
  153MOL   H14336927   4.378   6.676   3.831 -2.4149  2.2550  0.0229
  153MOL   H14436928   4.425   6.757   3.984  0.3529 -0.5492  0.7523
  153MOL   H14536929   4.420   6.588   3.977 -1.2278 -0.6510 -0.0600
  153MOL   C14636930   4.175   6.903   4.046  0.7354  0.5116  0.4447
  153MOL   C14736931   4.086   7.029   4.027 -0.1996  0.1536  0.1094
  153MOL   C14836932   4.086   7.084   3.882 -0.4853  0.0935  1.0056
  153MOL   C14936933   4.225   7.113   3.825  0.3177 -0.0760  0.2945
  153MOL   H15036934   4.277   6.937   4.031  1.0374  0.0359  1.3524
  153MOL   H15136935   4.195   6.886   4.152  1.4849  2.2685  0.5844
  153MOL   H15236936   3.980   7.015   4.045 -0.1660 -0.0852  0.1230
  153MOL   H15336937   4.013   7.163   3.866  2.2373  2.2535 -1.2604
  153MOL   H15436938   4.039   7.010   3.817 -1.6472  0.8435  0.9779
  153MOL   H15536939   4.292   7.027   3.822  0.4912  0.1008 -2.4083
  153MOL   H15636940   4.208   7.136   3.720  2.4913 -1.4720 -0.3920
  153MOL   H15736941   4.282   7.190   3.877  0.4777 -1.1598  1.7519
  153MOL   C15836942   4.124   7.134   4.134  0.0868  0.2314  0.3092
  153MOL   C15936943   4.030   7.268   4.144  0.3813  0.5618  0.4334
  153MOL   C16036944   4.110   7.385   4.208 -0.1598 -0.1941 -0.1074
  153MOL   C16136945   4.102   7.525   4.148 -0.3918 -0.2416  0.2160
  153MOL   H16236946   4.229   7.142   4.110  0.3498  0.6864  1.5695
  153MOL   H16336947   4.128   7.083   4.230  1.7374  1.7084  1.0370
  153MOL   H16436948   4.008   7.305   4.043 -0.1672 -1.1862 -0.1170
  153MOL   H16536949   4.214   7.353   4.201 -0.4730 -1.0578 -0.9437
  153MOL   H16636950   4.088   7.389   4.315  1.7006 -0.8466  0.3235
  153MOL   H16736951   4.135   7.523   4.045 -2.8501 -2.2654 -0.5644
  153MOL   H16836952   3.998   7.558   4.151  0.2436  1.7702  3.0046
  153MOL   H16936953   4.153   7.599   4.209 -1.2590 -0.3542  1.1006
  153MOL   C17036954   3.898   7.242   4.219 -0.2198  0.0759  0.2167
  153MOL   C17136955   3.786   7.338   4.167  0.6097  0.5210  0.8853
  153MOL   C17236956   3.671   7.345   4.270 -0.2597 -0.1513 -0.4524
  153MOL   C17336957   3.694   7.443   4.387 -0.7804 -0.6650  0.2880
  153MOL   H17436958   3.915   7.253   4.326 -1.6762 -0.6411  0.5264
  153MOL   H17536959   3.860   7.140   4.210 -1.0379  0.2128  1.9147
  153MOL   H17636960   3.822   7.440   4.151 -1.3279  1.1792  0.6455
  153MOL   H17736961   3.669   7.248   4.318  0.3205  0.3239  0.5345
  153MOL   H17836962   3.573   7.356   4.223  0.3377  1.8698 -1.2908
  153MOL   H17936963   3.797   7.452   4.422 -0.7911  1.5126 -0.1916
  153MOL   H18036964   3.653   7.535   4.348  0.5649 -0.7200 -1.3087
  153MOL   H18136965   3.639   7.420   4.478 -1.5991 -1.2842 -0.3528
  153MOL   C18236966   3.729   7.288   4.033 -0.1327 -0.1422 -0.5026
  153MOL   C18336967   3.699   7.395   3.924  0.5160 -0.0950 -0.0785
  153MOL   C18436968   3.593   7.496   3.967 -0.1410 -0.5586 -0.4016
  153MOL   C18536969   3.449   7.439   3.981 -0.3151 -0.0585 -0.0268
  153MOL   H18636970   3.645   7.220   4.045 -1.1097  1.3610  1.3732
  153MOL   H18736971   3.802   7.225   3.982 -0.1350 -0.5553  0.0109
  153MOL   H18836972   3.792   7.452   3.926  0.0855  0.6818 -1.6291
  153MOL   H18936973   3.603   7.570   3.888  1.3893 -0.8226 -0.4715
  153MOL   H19036974   3.621   7.550   4.058 -0.7031 -0.8929 -0.0310
  153MOL   H19136975   3.365   7.504   4.008  1.2684  2.3552 -0.8037
  153MOL   H19236976   3.423   7.405   3.881  0.6426 -0.9820  0.0318
  153MOL   H19336977   3.447   7.357   4.052 -1.9575  0.5053  0.6064
  153MOL   C19436978   3.668   7.334   3.781 -0.3308  0.0888 -0.0886
  153MOL   C19536979   3.778   7.261   3.694 -0.5017  0.3399  0.0574
  153MOL   C19636980   3.905   7.346   3.678  0.2336 -0.7298 -0.4035
  153MOL   C19736981   3.883   7.480   3.615  0.3609  0.6950 -0.1913
  153MOL   H19836982   3.629   7.418   3.723 -1.7664  0.7335  1.7300
  153MOL   H19936983   3.589   7.260   3.778  0.2417 -0.5104 -0.4705
  153MOL   H20036984   3.822   7.178   3.749  0.3314 -1.3650 -3.0854
  153MOL   H20136985   3.981   7.288   3.627 -0.8243 -2.4797 -0.0168
  153MOL   H20236986   3.958   7.363   3.771  0.2160  0.4027 -0.5906
  153MOL   H20336987   3.969   7.547   3.615  0.4416  0.6493  2.2061
  153MOL   H20436988   3.834   7.463   3.520 -3.3284 -3.1222  2.1861
  153MOL   H20536989   3.808   7.534   3.673  0.6716  1.4354 -0.4730
  153MOL   C20636990   3.716   7.204   3.564 -0.0217  0.2783 -0.0685
  153MOL   C20736991   3.802   7.114   3.476 -0.4994 -0.4942  0.7060
  153MOL   C20836992   3.737   7.074   3.342  0.2651  0.5958 -0.1985
  153MOL   C20936993   3.610   6.991   3.355  0.9507  0.1968  0.3169
  153MOL   H21036994   3.681   7.281   3.496 -0.5764  2.3574  2.5093
  153MOL   H21136995   3.623   7.153   3.589 -0.1215 -0.0910 -1.1846
  153MOL   H21236996   3.892   7.168   3.446 -1.2059  0.8868  1.0222
  153MOL   H21336997   3.811   7.024   3.280 -0.7075  2.0890 -2.6343
  153MOL   H21436998   3.723   7.153   3.269  0.9253  0.4132 -0.5265
  153MOL   H21536999   3.522   7.054   3.363  0.5528 -0.3504  0.2949
  153MOL   H21637000   3.603   6.930   3.265  1.2539  3.0023 -1.6579
  153MOL   H21737001   3.604   6.932   3.446 -1.5313  0.2342  0.2242
  153MOL   C21837002   3.847   6.990   3.556 -0.5170  0.0130  0.5968
  153MOL   C21937003   3.921   6.880   3.477 -0.2702  0.4556 -0.0929
  153MOL   C22037004   3.943   6.751   3.556 -0.2962 -0.3750 -0.1069
  153MOL   C22137005   3.813   6.675   3.588  0.2957 -0.4077  0.2057
  153MOL   H22237006   3.764   6.943   3.608  1.5798 -3.7827  0.6936
  153MOL   H22337007   3.916   7.025   3.633 -0.1808 -0.0658  0.3317
  153MOL   H22437008   3.862   6.837   3.396 -0.8261  0.2245  0.4325
  153MOL   H22537009   3.981   6.782   3.653 -0.7653  0.1720 -0.0986
  153MOL   H22637010   4.020   6.686   3.513  0.5180 -0.5463  1.5517
  153MOL   H22737011   3.752   6.726   3.663  1.1628  0.6093  0.2279
  153MOL   H22837012   3.748   6.664   3.501  2.1518 -3.3577 -0.8840
  153MOL   H22937013   3.841   6.580   3.633 -2.3870 -0.4350  1.9355
  153MOL   C23037014   4.052   6.927   3.408 -0.2705  0.1237 -0.4093
  153MOL   C23137015   4.150   7.005   3.490 -0.0246  0.1124  0.0531
  153MOL   C23237016   4.285   7.005   3.427  0.7622  0.5757  0.8261
  153MOL   C23337017   4.393   7.061   3.518  0.3310  0.5561  0.2855
  153MOL   H23437018   4.012   6.999   3.336  0.3534  1.0932  0.1970
  153MOL   H23537019   4.097   6.844   3.354 -0.2107 -1.8347  2.5642
  153MOL   H23637020   4.120   7.107   3.514  1.2218  0.4258  0.3589
  153MOL   H23737021   4.284   7.042   3.325  2.1175 -0.0655  0.5717
  153MOL   H23837022   4.310   6.904   3.395 -1.8499  0.5378 -1.2233
  153MOL   H23937023   4.367   7.159   3.559 -0.1817 -0.8509  3.4143
  153MOL   H24037024   4.407   6.993   3.602 -0.4720  0.5507  0.4168
  153MOL   H24137025   4.484   7.059   3.457 -0.3605 -0.1153 -0.7395
  153MOL   H24237026   4.172   6.963   3.588  2.4099 -0.1758 -0.5722
  154MOL     C137027   4.420   5.632   4.521 -0.3689  0.2863 -0.1962
  154MOL     C237028   4.474   5.647   4.661  0.2128 -0.0859 -0.4918
  154MOL     C337029   4.359   5.646   4.769 -0.0025 -0.1703 -0.3589
  154MOL     C437030   4.257   5.760   4.764  0.0777 -0.4515 -0.1882
  154MOL     H537031   4.507   5.613   4.457  0.6343  1.2325  0.8539
  154MOL     H637032   4.364   5.539   4.519  0.6557 -0.3493 -0.0422
  154MOL     H737033   4.535   5.559   4.680 -0.4156  0.2931  3.7471
  154MOL     H837034   4.407   5.644   4.867  0.7257 -0.0226 -0.7129
  154MOL     H937035   4.304   5.553   4.752  0.6158 -0.9726  1.8555
  154MOL    H1037036   4.313   5.850   4.787 -3.2843  1.3311  1.4829
  154MOL    H1137037   4.216   5.760   4.663  0.1043  0.4478 -0.2078
  154MOL    H1237038   4.178   5.748   4.839 -0.3113  0.4175 -0.4495
  154MOL    H1337039   4.368   5.720   4.482 -0.5634  1.3348  2.3154
  154MOL    C1437040   4.574   5.755   4.663  0.2731 -0.0830 -0.0051
  154MOL    C1537041   4.678   5.738   4.767 -0.8371  0.2172 -0.4789
  154MOL    C1637042   4.740   5.873   4.806 -0.1132  0.1483  0.3617
  154MOL    C1737043   4.805   5.952   4.694  0.2271  0.3111 -0.2430
  154MOL    H1837044   4.523   5.851   4.673  0.8928  0.2103  0.3886
  154MOL    H1937045   4.621   5.769   4.565  2.5809 -1.6089  0.8548
  154MOL    H2037046   4.628   5.708   4.859  1.8555 -0.1706  0.9015
  154MOL    H2137047   4.807   5.844   4.886  2.6013 -0.9711 -2.2207
  154MOL    H2237048   4.675   5.943   4.858 -0.6101  0.4290 -0.6120
  154MOL    H2337049   4.747   5.952   4.602 -0.1654 -0.1599 -0.0013
  154MOL    H2437050   4.835   6.053   4.721 -0.9074  0.4118  0.7280
  154MOL    H2537051   4.888   5.891   4.659  0.5047 -0.1085  1.1213
  154MOL    C2637052   4.782   5.631   4.736  0.8362  0.4932  0.3778
  154MOL    C2737053   4.901   5.607   4.840 -0.5410 -0.1862  0.2034
  154MOL    C2837054   4.990   5.498   4.773  0.1668 -0.0127 -1.0621
  154MOL    C2937055   4.946   5.354   4.792 -0.8359  0.2682 -0.1796
  154MOL    H3037056   4.817   5.648   4.634  1.6223  0.3228  0.6095
  154MOL    H3137057   4.738   5.533   4.720  0.7584  0.4129  1.0703
  154MOL    H3237058   4.959   5.698   4.828 -0.5831 -0.3050 -0.9750
  154MOL    H3337059   5.086   5.512   4.821 -1.1413  1.1590  1.2720
  154MOL    H3437060   5.017   5.518   4.669  0.3523  0.1416 -0.9833
  154MOL    H3537061   4.971   5.323   4.894  1.0609  0.1658 -0.6787
  154MOL    H3637062   4.839   5.344   4.769 -0.8598 -0.2355  0.1310
  154MOL    H3737063   4.994   5.282   4.725 -1.2861  0.7953 -1.0749
  154MOL    C3837064   4.857   5.576   4.990  0.8189  0.4613 -1.2326
  154MOL    C3937065   4.969   5.578   5.101  0.2021 -0.0699  0.1075
  154MOL    C4037066   4.920   5.524   5.239  0.4184  0.1300  0.2192
  154MOL    C4137067   4.879   5.378   5.239  0.1464  0.1288  0.1003
  154MOL    H4237068   4.806   5.480   4.986 -0.2988  1.0109 -0.3766
  154MOL    H4337069   4.781   5.652   5.007  0.7560  0.1683 -0.2038
  154MOL    H4437070   5.038   5.498   5.072 -0.9676 -1.8726  2.1205
  154MOL    H4537071   4.834   5.585   5.269 -0.4448 -0.1199 -1.6396
  154MOL    H4637072   5.003   5.543   5.307  0.2206 -0.7083  0.7010
  154MOL    H4737073   4.958   5.306   5.218  0.2447 -0.3746  2.1130
  154MOL    H4837074   4.841   5.351   5.338 -1.0766  0.3944 -0.2953
  154MOL    H4937075   4.791   5.363   5.177 -1.2300  1.9667  1.5504
  154MOL    C5037076   5.039   5.717   5.117  0.3003  0.0736 -0.1367
  154MOL    C5137077   5.170   5.753   5.039 -0.5949  0.1264 -0.0609
  154MOL    C5237078   5.289   5.677   5.094 -0.9950 -0.3923 -0.2872
  154MOL    C5337079   5.334   5.737   5.224 -0.0560 -0.8778  0.4233
  154MOL    H5437080   5.055   5.741   5.222 -0.8795  1.2245 -0.1977
  154MOL    H5537081   4.963   5.789   5.086 -1.1895 -2.2151 -1.9016
  154MOL    H5637082   5.154   5.706   4.942 -0.5190  3.5057 -1.7502
  154MOL    H5737083   5.369   5.665   5.022 -0.1118 -0.6045  0.7149
  154MOL    H5837084   5.239   5.581   5.108  2.2851 -2.1516 -0.1502
  154MOL    H5937085   5.256   5.730   5.300 -0.0394 -3.4923  0.2618
  154MOL    H6037086   5.419   5.674   5.249  1.3795  1.4531  1.5564
  154MOL    H6137087   5.358   5.842   5.208 -2.2586 -0.1404  1.7852
  154MOL    C6237088   5.180   5.902   5.012  0.2349 -1.1655  0.6620
  154MOL    C6337089   5.291   5.953   4.914  0.3510  0.2410  0.0064
  154MOL    C6437090   5.342   6.086   4.962  0.4020 -0.0916  0.3435
  154MOL    C6537091   5.455   6.149   4.872  0.5219 -0.0845  0.2998
  154MOL    H6637092   5.204   5.950   5.108 -0.0369  0.0060  0.1514
  154MOL    H6737093   5.083   5.947   4.992  0.5759 -0.2796  0.9858
  154MOL    H6837094   5.376   5.884   4.919 -0.3270 -0.6123 -0.2469
  154MOL    H6937095   5.381   6.076   5.063 -1.7790 -0.5400  1.1620
  154MOL    H7037096   5.260   6.157   4.968  1.5503  1.1447  1.7580
  154MOL    H7137097   5.526   6.079   4.828  1.3073  1.9501 -1.7440
  154MOL    H7237098   5.407   6.202   4.790 -0.1474 -0.4472  0.4506
  154MOL    H7337099   5.519   6.219   4.926 -2.4215  2.1137  1.0592
  154MOL    C7437100   5.237   5.966   4.770 -0.5135 -0.0083  0.0955
  154MOL    C7537101   5.329   5.891   4.663  0.1058  0.2709 -0.4791
  154MOL    C7637102   5.303   5.937   4.523  0.2009  0.1781  0.8795
  154MOL    C7737103   5.163   5.919   4.469 -0.2141 -0.2039 -0.6572
  154MOL    H7837104   5.240   6.070   4.739  1.4539  0.1150  0.6414
  154MOL    H7937105   5.131   5.943   4.759  0.2373 -4.2599  0.8968
  154MOL    H8037106   5.432   5.917   4.688 -0.0242  0.8729 -0.5525
  154MOL    H8137107   5.365   5.887   4.449 -2.5718 -0.6879 -0.9356
  154MOL    H8237108   5.329   6.042   4.513  0.8014 -0.1044 -0.6747
  154MOL    H8337109   5.093   5.884   4.545  0.1330 -4.0328 -1.9688
  154MOL    H8437110   5.135   6.012   4.420  0.4472  0.3919  0.0881
  154MOL    H8537111   5.147   5.840   4.395 -0.2514  0.0711 -0.9441
  154MOL    C8637112   5.314   5.733   4.660 -0.2448  0.3682 -0.6445
  154MOL    C8737113   5.436   5.654   4.608  0.1590 -0.1384 -0.2059
  154MOL    C8837114   5.401   5.521   4.541 -0.3939  0.1055 -0.1216
  154MOL    C8937115   5.342   5.423   4.643 -0.3393 -0.5044 -0.3148
  154MOL    H9037116   5.225   5.706   4.604 -1.2232 -0.3517  1.2131
  154MOL    H9137117   5.300   5.709   4.765  0.6238 -3.4933 -1.3518
  154MOL    H9237118   5.472   5.705   4.519 -1.6902  0.9252 -0.3489
  154MOL    H9337119   5.476   5.472   4.479  1.4847  1.5961  0.9202
  154MOL    H9437120   5.315   5.537   4.474 -0.0943  1.2151 -0.2600
  154MOL    H9537121   5.410   5.398   4.725 -0.5364  1.6279  0.5464
  154MOL    H9637122   5.260   5.469   4.697  1.7152 -0.0658  2.5700
  154MOL    H9737123   5.320   5.328   4.595  3.5840 -0.2768 -2.8167
  154MOL    C9837124   5.545   5.652   4.718 -0.0656  0.0291  0.3963
  154MOL    C9937125   5.683   5.598   4.679  0.4752  0.4894  0.3222
  154MOL   C10037126   5.773   5.577   4.794 -0.0399 -0.3141  0.5087
  154MOL   C10137127   5.877   5.464   4.785 -0.0746 -0.4239 -0.4717
  154MOL   H10237128   5.492   5.595   4.795  0.3399 -0.3416  0.4011
  154MOL   H10337129   5.554   5.753   4.758  0.3636  0.3297 -0.4556
  154MOL   H10437130   5.663   5.500   4.637  1.6355  0.0053  0.8797
  154MOL   H10537131   5.708   5.557   4.879 -0.6670 -1.9861 -0.3581
  154MOL   H10637132   5.828   5.665   4.829  0.9712 -0.3239 -1.0148
  154MOL   H10737133   5.946   5.468   4.701  1.6436  1.6326  0.9860
  154MOL   H10837134   5.938   5.451   4.874  0.0238 -1.5303 -0.6957
  154MOL   H10937135   5.821   5.371   4.776 -1.3051  0.0161  2.0448
  154MOL   C11037136   5.760   5.684   4.572 -0.0847 -0.0226  0.2453
  154MOL   C11137137   5.796   5.840   4.588  0.1815  0.1018 -0.5600
  154MOL   C11237138   5.695   5.922   4.503  0.3489 -1.0295  0.3653
  154MOL   C11337139   5.707   6.072   4.511  0.6080 -0.1080  0.5798
  154MOL   H11437140   5.706   5.661   4.480  0.0364  0.2552  0.1047
  154MOL   H11537141   5.851   5.626   4.554 -0.9269 -0.7787 -1.7370
  154MOL   H11637142   5.791   5.874   4.691  1.1215 -0.8110 -0.1996
  154MOL   H11737143   5.591   5.897   4.524  0.3463 -2.1864 -0.9419
  154MOL   H11837144   5.695   5.891   4.398  1.4797  3.4423 -1.0657
  154MOL   H11937145   5.806   6.103   4.479  0.2722 -0.2014 -0.5493
  154MOL   H12037146   5.623   6.124   4.466  0.6707 -0.9145 -0.4870
  154MOL   H12137147   5.712   6.104   4.616  1.3224  1.6502  0.0305
  154MOL   C12237148   5.942   5.870   4.552  0.2665  0.2876 -0.0407
  154MOL   C12337149   6.053   5.798   4.632  0.2367  0.5854  0.2452
  154MOL   C12437150   6.066   5.859   4.764  0.2889 -0.3599  0.1390
  154MOL   C12537151   6.095   5.758   4.882  0.7827 -0.5419  0.5654
  154MOL   H12637152   5.966   5.977   4.551 -1.7854  0.7707 -0.4614
  154MOL   H12737153   5.969   5.861   4.447 -0.2003  1.7575 -0.2968
  154MOL   H12837154   6.030   5.693   4.654 -3.0698  1.3436  0.6781
  154MOL   H12937155   5.981   5.922   4.789  0.3570 -0.2158  0.0086
  154MOL   H13037156   6.144   5.936   4.769  0.6900 -0.7637  0.0634
  154MOL   H13137157   6.025   5.676   4.882 -0.4644  0.4720 -1.6428
  154MOL   H13237158   6.200   5.729   4.879  1.0175  0.4150 -1.2966
  154MOL   H13337159   6.090   5.813   4.976 -1.4859 -0.1973  0.2745
  154MOL   C13437160   6.190   5.792   4.575  0.0761 -0.8395  0.0890
  154MOL   C13537161   6.209   5.683   4.462  0.0336 -0.2898 -0.0101
  154MOL   C13637162   6.220   5.544   4.524  0.2119 -0.1377 -0.5124
  154MOL   C13737163   6.146   5.430   4.460 -0.1351 -0.4696  0.5885
  154MOL   H13837164   6.270   5.778   4.648 -0.1232 -2.1851  0.0630
  154MOL   H13937165   6.207   5.893   4.538 -1.7855 -0.5963 -0.1511
  154MOL   H14037166   6.126   5.695   4.392  1.3169 -0.3336 -1.5515
  154MOL   H14137167   6.192   5.530   4.629  1.2037  0.5866 -0.1389
  154MOL   H14237168   6.324   5.512   4.537 -0.6475 -1.9937  2.2390
  154MOL   H14337169   6.043   5.466   4.453 -0.4077 -1.5076 -0.8954
  154MOL   H14437170   6.172   5.413   4.356 -4.0413 -3.6040  0.0107
  154MOL   H14537171   6.144   5.339   4.521 -1.0808 -2.1931 -1.9552
  154MOL   C14637172   6.330   5.724   4.376  0.0337 -0.2469 -0.4300
  154MOL   C14737173   6.374   5.630   4.260  0.4965 -0.4178  0.1008
  154MOL   C14837174   6.517   5.666   4.206 -0.1078 -0.3656  0.1186
  154MOL   C14937175   6.627   5.661   4.306 -0.0088 -0.7501  0.5609
  154MOL   H15037176   6.417   5.736   4.440  0.1313 -0.3010 -0.5519
  154MOL   H15137177   6.310   5.822   4.334 -1.4943  0.3356  1.5649
  154MOL   H15237178   6.377   5.531   4.306 -2.0728 -0.7005 -0.2962
  154MOL   H15337179   6.524   5.765   4.160 -1.3696  0.1503  1.0091
  154MOL   H15437180   6.538   5.598   4.123  0.2020  0.4516 -0.4810
  154MOL   H15537181   6.642   5.561   4.348  2.9036 -0.5188  0.2191
  154MOL   H15637182   6.722   5.690   4.261  0.2984 -1.2885  0.8517
  154MOL   H15737183   6.625   5.728   4.392 -1.3121  0.2193 -0.2116
  154MOL   C15837184   6.264   5.624   4.149  0.5359  0.8950  0.3850
  154MOL   C15937185   6.291   5.522   4.042  0.1617 -0.4226  0.3635
  154MOL   C16037186   6.191   5.535   3.926  1.0015  0.1050  0.1015
  154MOL   C16137187   6.047   5.485   3.957 -0.3934  0.3824 -0.3566
  154MOL   H16237188   6.253   5.722   4.101 -2.2273  1.9176  2.9140
  154MOL   H16337189   6.166   5.596   4.188  0.5882  0.1641 -0.0122
  154MOL   H16437190   6.381   5.558   3.992  0.2608 -0.2836  0.6418
  154MOL   H16537191   6.237   5.485   3.841  0.0295 -0.1015 -0.3059
  154MOL   H16637192   6.190   5.639   3.894  0.7162 -0.3648 -1.4484
  154MOL   H16737193   6.008   5.549   4.037  0.6849 -0.7278  1.0596
  154MOL   H16837194   5.987   5.506   3.868 -1.1927  0.8389  0.2827
  154MOL   H16937195   6.027   5.381   3.981 -2.6378  0.9219  0.2514
  154MOL   C17037196   6.316   5.377   4.072 -0.1143  0.5518 -0.1655
  154MOL   C17137197   6.461   5.333   4.098 -0.0836  0.1831 -0.5042
  154MOL   C17237198   6.558   5.343   3.973 -0.4731 -1.2659  0.1709
  154MOL   C17337199   6.549   5.230   3.863 -0.5414  0.0044  0.0501
  154MOL   H17437200   6.274   5.322   3.988  0.0012  1.7580 -1.0154
  154MOL   H17537201   6.255   5.353   4.160  0.8381  0.0619  0.3647
  154MOL   H17637202   6.495   5.397   4.180 -0.0623 -2.1852  1.4121
  154MOL   H17737203   6.662   5.352   4.004 -1.2264  1.9506  2.0029
  154MOL   H17837204   6.548   5.435   3.915  0.0462 -1.1988  0.1856
  154MOL   H17937205   6.616   5.248   3.779  1.1783 -0.5902  1.2640
  154MOL   H18037206   6.572   5.134   3.910 -1.9085 -1.3560 -1.9499
  154MOL   H18137207   6.449   5.224   3.821 -0.0014  2.0415 -1.5860
  154MOL   C18237208   6.469   5.193   4.168  0.6518 -0.2268  0.1817
  154MOL   C18337209   6.609   5.142   4.200 -0.0198 -1.1380  0.0042
  154MOL   C18437210   6.594   4.993   4.246  0.3105 -0.2290 -0.2011
  154MOL   C18537211   6.607   4.879   4.146  0.1292 -0.2664  1.0636
  154MOL   H18637212   6.427   5.120   4.100 -1.5975  0.4289  0.8279
  154MOL   H18737213   6.407   5.197   4.257  0.3746 -3.0249  0.1455
  154MOL   H18837214   6.672   5.150   4.111  0.0661  0.5881  0.1976
  154MOL   H18937215   6.494   4.989   4.288 -1.3559  0.3292 -3.9159
  154MOL   H19037216   6.650   4.978   4.339 -1.4894  0.3433  1.0028
  154MOL   H19137217   6.560   4.788   4.182 -0.2591 -1.2521 -1.8230
  154MOL   H19237218   6.557   4.898   4.051  2.6345 -0.5159 -0.3425
  154MOL   H19337219   6.710   4.848   4.130 -0.0252 -0.6137  0.7109
  154MOL   C19437220   6.661   5.237   4.315  0.3951  0.3559  0.1182
  154MOL   C19537221   6.802   5.200   4.375  0.7061  0.4925 -0.0662
  154MOL   C19637222   6.845   5.298   4.492 -0.6455  0.1162 -0.0033
  154MOL   C19737223   6.735   5.340   4.590 -0.0495 -0.3920  0.3219
  154MOL   H19837224   6.591   5.221   4.396 -0.3817  1.7165 -0.2573
  154MOL   H19937225   6.662   5.344   4.294 -0.0607  0.2826 -0.2715
  154MOL   H20037226   6.791   5.103   4.424 -0.0635  0.7257  0.2154
  154MOL   H20137227   6.882   5.391   4.448  0.4002 -0.4492 -0.3411
  154MOL   H20237228   6.924   5.252   4.550  0.0324  1.1573 -0.0697
  154MOL   H20337229   6.687   5.253   4.635 -2.9750  1.6034  1.1632
  154MOL   H20437230   6.781   5.402   4.668 -1.0303  1.7370 -0.7407
  154MOL   H20537231   6.663   5.397   4.532 -0.2764 -1.0492 -0.0410
  154MOL   C20637232   6.908   5.195   4.265 -0.3291  0.2383 -0.6489
  154MOL   C20737233   6.959   5.052   4.222  0.0157  0.1923  0.5543
  154MOL   C20837234   7.006   4.984   4.348  0.2722 -0.0077 -0.3837
  154MOL   C20937235   6.955   4.847   4.391  0.7472  0.4126 -0.4147
  154MOL   H21037236   7.000   5.238   4.304 -1.6112  1.3615  1.2458
  154MOL   H21137237   6.880   5.256   4.179 -3.3194 -1.2495 -0.7898
  154MOL   H21237238   6.876   4.994   4.182  0.8031 -2.3853  2.4984
  154MOL   H21337239   6.987   5.040   4.439 -1.4038 -1.1770  0.0239
  154MOL   H21437240   7.114   4.972   4.342  0.1455 -1.1054 -0.7001
  154MOL   H21537241   6.988   4.814   4.489  0.4923 -2.5472 -1.2963
  154MOL   H21637242   6.846   4.857   4.388  0.7314  0.9632  1.4991
  154MOL   H21737243   6.975   4.772   4.315  1.0280  0.6201 -0.5461
  154MOL   C21837244   7.068   5.056   4.115  0.0928  0.1756 -0.2559
  154MOL   C21937245   7.090   4.920   4.050  0.3518 -0.2912 -0.3351
  154MOL   C22037246   7.224   4.925   3.976  0.1219  0.6474  0.0667
  154MOL   C22137247   7.332   4.876   4.066  0.3966 -0.6077  0.0736
  154MOL   H22237248   7.169   5.085   4.145  0.5894 -0.1847 -1.5904
  154MOL   H22337249   7.038   5.119   4.032 -1.9534 -2.2511 -1.4133
  154MOL   H22437250   7.087   4.838   4.122  3.2791  1.0911  1.4796
  154MOL   H22537251   7.249   5.025   3.941 -0.6085  0.8967  0.2473
  154MOL   H22637252   7.226   4.861   3.888 -1.6578  0.2433  0.2899
  154MOL   H22737253   7.331   4.929   4.162 -1.3653  1.3326 -0.9728
  154MOL   H22837254   7.317   4.769   4.082 -1.0415 -0.5066 -0.5583
  154MOL   H22937255   7.428   4.873   4.014  0.8335 -0.3145  0.8399
  154MOL   C23037256   6.977   4.890   3.940 -0.0215  0.1734 -0.1877
  154MOL   C23137257   6.975   4.746   3.901 -0.1802  0.3232 -0.2325
  154MOL   C23237258   6.865   4.707   3.803 -0.0942 -0.6179 -0.0049
  154MOL   C23337259   6.913   4.575   3.741  0.3532  0.3149 -0.7079
  154MOL   H23437260   6.973   4.953   3.851 -5.5348 -1.9157 -1.6502
  154MOL   H23537261   6.879   4.919   3.977  0.2256 -1.7493  2.0604
  154MOL   H23637262   7.066   4.713   3.850  0.0604 -0.9046  0.9617
  154MOL   H23737263   6.863   4.785   3.727  2.3087 -1.0969 -0.6032
  154MOL   H23837264   6.776   4.697   3.865  0.1954 -1.0785  0.3425
  154MOL   H23937265   7.011   4.577   3.694  0.2977  0.2837 -0.8244
  154MOL   H24037266   6.910   4.497   3.818  1.9913  0.4452 -0.4949
  154MOL   H24137267   6.856   4.540   3.655  0.6167 -0.9983 -0.3565
  154MOL   H24237268   6.976   4.666   3.975  0.9822  0.3441 -0.2130
  155MOL     C137269   4.942   5.535   2.115  0.4731 -0.0875 -0.4572
  155MOL     C237270   4.965   5.429   2.007 -0.7986  0.5014  0.9505
  155MOL     C337271   4.968   5.507   1.867 -0.0663  0.8012 -0.4660
  155MOL     C437272   5.104   5.580   1.836 -0.8230  0.1362  0.6030
  155MOL     H537273   4.996   5.627   2.096  1.0342 -0.0895  1.0413
  155MOL     H637274   4.835   5.556   2.123  0.8209  1.5760 -0.0918
  155MOL     H737275   5.063   5.384   2.017 -1.2272 -0.6410  0.2188
  155MOL     H837276   4.887   5.579   1.861  0.2979  1.5596  2.6890
  155MOL     H937277   4.954   5.436   1.786 -0.3244 -1.3878  1.4541
  155MOL    H1037278   5.097   5.662   1.765  0.7706 -0.0872  0.1617
  155MOL    H1137279   5.111   5.643   1.924 -1.2273 -0.7460  1.2795
  155MOL    H1237280   5.191   5.513   1.831 -0.1534  1.0178  0.2381
  155MOL    H1337281   4.978   5.495   2.210  0.2720  2.2624  0.6401
  155MOL    C1437282   4.862   5.321   1.995  0.1265 -0.1684 -0.4640
  155MOL    C1537283   4.843   5.239   2.128 -0.0269  0.1364  0.6964
  155MOL    C1637284   4.976   5.162   2.174  0.0952 -0.6738 -0.0322
  155MOL    C1737285   5.028   5.054   2.077 -0.3179  0.4507 -0.1213
  155MOL    H1837286   4.874   5.257   1.908  2.0989  2.1993 -2.0271
  155MOL    H1937287   4.762   5.361   1.976 -0.0384 -0.2871  0.1479
  155MOL    H2037288   4.811   5.309   2.204 -0.9282  1.1859 -0.6177
  155MOL    H2137289   4.947   5.121   2.271  0.5381 -1.9297 -0.4258
  155MOL    H2237290   5.052   5.237   2.196 -0.2406 -0.0783 -0.9068
  155MOL    H2337291   5.111   4.998   2.120 -0.3715  0.1905 -0.3542
  155MOL    H2437292   4.944   4.987   2.062  0.4953 -0.6845  0.2841
  155MOL    H2537293   5.069   5.092   1.983  0.4998 -2.0317 -0.8152
  155MOL    C2637294   4.716   5.142   2.116 -0.0684  0.0354 -0.4386
  155MOL    C2737295   4.678   5.071   2.256 -0.0546 -0.0215 -0.2944
  155MOL    C2837296   4.593   4.947   2.213 -0.1830 -0.1054 -0.3924
  155MOL    C2937297   4.676   4.835   2.148 -0.6803  0.4125  0.5348
  155MOL    H3037298   4.728   5.076   2.030  0.1473  1.6782 -1.7175
  155MOL    H3137299   4.637   5.212   2.089 -0.8434 -0.4082  0.6806
  155MOL    H3237300   4.761   5.029   2.313  1.0370  2.1841 -0.2088
  155MOL    H3337301   4.517   4.977   2.141  0.9463 -1.0167 -1.9782
  155MOL    H3437302   4.534   4.896   2.290  2.9781 -0.3409  1.9800
  155MOL    H3537303   4.635   4.759   2.082  1.3716  1.0198 -1.5490
  155MOL    H3637304   4.755   4.885   2.090 -0.5731  0.2017  0.5003
  155MOL    H3737305   4.715   4.773   2.228 -2.0436 -0.4597  0.5167
  155MOL    C3837306   4.583   5.162   2.339 -0.9652 -0.7419  0.5677
  155MOL    C3937307   4.610   5.133   2.489  0.1026  0.3562  0.5464
  155MOL    C4037308   4.482   5.197   2.556  0.0811  0.2291 -1.0781
  155MOL    C4137309   4.458   5.341   2.520  0.2028 -0.5555 -0.0947
  155MOL    H4237310   4.479   5.154   2.310 -0.2393 -1.9777 -1.8539
  155MOL    H4337311   4.614   5.264   2.317 -1.0041 -0.7179  0.6210
  155MOL    H4437312   4.614   5.026   2.506 -0.0131  0.1817 -0.5173
  155MOL    H4537313   4.499   5.188   2.663  0.0530  0.2389 -1.0729
  155MOL    H4637314   4.391   5.138   2.542  1.0364 -1.0702 -1.9750
  155MOL    H4737315   4.526   5.423   2.544 -2.8598  1.8684  0.6463
  155MOL    H4837316   4.431   5.357   2.416  1.3291  0.1622 -0.2858
  155MOL    H4937317   4.359   5.376   2.551  1.0268  1.2177  0.6393
  155MOL    C5037318   4.749   5.197   2.534  0.2658  0.2265 -0.1777
  155MOL    C5137319   4.789   5.161   2.684 -0.3672 -0.4404 -0.0307
  155MOL    C5237320   4.869   5.275   2.753  0.4184 -0.0776 -0.5810
  155MOL    C5337321   5.014   5.292   2.702  0.5092 -0.0619  0.5514
  155MOL    H5437322   4.736   5.305   2.540 -0.6257  0.0689  0.8116
  155MOL    H5537323   4.826   5.168   2.463  1.6114 -0.1203  1.3827
  155MOL    H5637324   4.696   5.156   2.741 -0.4384  1.7601  0.0820
  155MOL    H5737325   4.853   5.260   2.859 -0.4492 -1.6081 -0.9056
  155MOL    H5837326   4.822   5.372   2.736  2.5007  1.1758  0.6507
  155MOL    H5937327   5.011   5.302   2.594 -2.4104 -0.3142  0.5650
  155MOL    H6037328   5.062   5.383   2.738 -2.9914  1.3740  1.8876
  155MOL    H6137329   5.072   5.204   2.728 -0.7583 -0.6379  1.4938
  155MOL    C6237330   4.858   5.026   2.695  0.1483 -0.5829 -0.3659
  155MOL    C6337331   4.846   4.960   2.832  0.4645 -0.0213  0.2453
  155MOL    C6437332   4.950   4.850   2.849 -0.0925 -0.2396 -0.2780
  155MOL    C6537333   5.075   4.891   2.927  0.3285  0.3948  0.3368
  155MOL    H6637334   4.959   5.041   2.657  0.4842  1.5081  1.2417
  155MOL    H6737335   4.824   4.951   2.624 -2.0630 -0.2097  0.2710
  155MOL    H6837336   4.853   5.032   2.913  0.4424  0.9647 -0.6175
  155MOL    H6937337   4.978   4.799   2.756 -0.8439  2.4648 -2.0287
  155MOL    H7037338   4.909   4.768   2.910  0.8864 -1.6579 -1.4921
  155MOL    H7137339   5.140   4.804   2.936 -1.9394 -1.3091  0.6766
  155MOL    H7237340   5.128   4.969   2.872  0.1337 -0.1578 -0.6614
  155MOL    H7337341   5.058   4.929   3.027 -1.9774  1.1502 -0.3077
  155MOL    C7437342   4.705   4.896   2.855 -0.7639  0.3313  1.5599
  155MOL    C7537343   4.674   4.874   3.007 -0.7831  0.0783 -0.5162
  155MOL    C7637344   4.611   4.734   3.039  0.0600  0.3557  0.5634
  155MOL    C7737345   4.463   4.730   2.994 -0.4914 -0.4503  0.2313
  155MOL    H7837346   4.696   4.801   2.802 -1.0200  0.9470  0.4862
  155MOL    H7937347   4.627   4.953   2.806 -1.1477 -1.7620 -0.3525
  155MOL    H8037348   4.765   4.862   3.065 -1.2525 -2.4225 -0.2441
  155MOL    H8137349   4.599   4.730   3.147 -2.4635  2.0030  0.3836
  155MOL    H8237350   4.680   4.653   3.013  0.0468  0.5887 -0.2051
  155MOL    H8337351   4.403   4.796   3.057 -1.5025 -0.0308 -1.1442
  155MOL    H8437352   4.464   4.761   2.890  1.1358 -1.3923 -0.0561
  155MOL    H8537353   4.408   4.635   2.992  1.0431 -1.3973  1.9822
  155MOL    C8637354   4.591   4.992   3.072 -0.6631 -0.0769 -0.0121
  155MOL    C8737355   4.661   5.115   3.106 -0.3599  0.8711 -0.2005
  155MOL    C8837356   4.773   5.101   3.207  0.3723  0.5499 -0.3167
  155MOL    C8937357   4.734   5.040   3.343  0.4861  0.1683 -0.2847
  155MOL    H9037358   4.540   4.966   3.165 -1.9655 -0.3985 -0.8187
  155MOL    H9137359   4.509   5.017   3.006 -0.1376 -1.2368 -1.1130
  155MOL    H9237360   4.712   5.159   3.020  0.4022 -0.4776 -0.4506
  155MOL    H9337361   4.827   5.193   3.223 -1.3057  1.0648  2.8321
  155MOL    H9437362   4.854   5.038   3.170 -1.5000 -0.6772 -2.5500
  155MOL    H9537363   4.662   4.959   3.333 -1.2810  1.3084  2.4795
  155MOL    H9637364   4.814   4.990   3.398  0.6995 -0.3483 -1.0624
  155MOL    H9737365   4.680   5.113   3.403 -1.1226  0.3614 -1.9254
  155MOL    C9837366   4.567   5.233   3.152  0.0627  0.0037 -0.1187
  155MOL    C9937367   4.459   5.293   3.054  0.3255  0.1884 -0.5114
  155MOL   C10037368   4.519   5.351   2.931  0.0799 -0.4382  0.4134
  155MOL   C10137369   4.582   5.485   2.936 -0.3037  0.0141  0.3773
  155MOL   H10237370   4.645   5.308   3.163  0.4826 -0.6460  1.5381
  155MOL   H10337371   4.536   5.213   3.255 -1.9075 -1.3813 -0.9426
  155MOL   H10437372   4.394   5.215   3.015 -0.6172  0.7926 -0.1629
  155MOL   H10537373   4.438   5.347   2.858 -0.9071 -0.0755  1.4735
  155MOL   H10637374   4.592   5.278   2.896  0.1501 -0.4379  0.5558
  155MOL   H10737375   4.505   5.561   2.929 -0.0862  0.0296 -2.1968
  155MOL   H10837376   4.619   5.514   3.035  2.5426 -1.3402 -0.2398
  155MOL   H10937377   4.668   5.501   2.871 -2.0748 -1.2562 -2.3347
  155MOL   C11037378   4.360   5.386   3.135 -0.3872  0.5690  0.3869
  155MOL   C11137379   4.232   5.435   3.055 -0.1132  0.3714 -0.2036
  155MOL   C11237380   4.158   5.553   3.118  0.1649  0.1765 -0.1832
  155MOL   C11337381   4.105   5.526   3.260 -0.2652  0.3362 -0.3155
  155MOL   H11437382   4.416   5.476   3.160 -1.7470  1.3371  0.7099
  155MOL   H11537383   4.347   5.336   3.231  1.0907 -0.5888 -0.0084
  155MOL   H11637384   4.266   5.468   2.957  1.5589  1.0477  0.5722
  155MOL   H11737385   4.081   5.605   3.063  0.3004  0.9924  0.3947
  155MOL   H11837386   4.228   5.637   3.117  0.4837 -0.0793  0.4146
  155MOL   H11937387   4.043   5.438   3.275  0.9850 -0.1812  2.1290
  155MOL   H12037388   4.191   5.522   3.328 -0.6612 -0.8195  0.1319
  155MOL   H12137389   4.050   5.608   3.306 -1.5629 -0.4284 -0.4905
  155MOL   C12237390   4.138   5.317   3.025 -0.3466 -0.5761  0.1137
  155MOL   C12337391   4.021   5.354   2.928 -0.4256  0.1554 -0.0998
  155MOL   C12437392   3.903   5.251   2.947  0.2204 -0.5740  0.2619
  155MOL   C12537393   3.814   5.275   3.071 -0.5370  0.3715 -0.1636
  155MOL   H12637394   4.107   5.286   3.125  1.5226 -0.8710  0.6106
  155MOL   H12737395   4.186   5.232   2.977  0.2713 -0.8659  1.2251
  155MOL   H12837396   3.988   5.454   2.957  5.2534  1.5578  2.1063
  155MOL   H12937397   3.936   5.148   2.962 -0.6316 -0.8389  0.3646
  155MOL   H13037398   3.844   5.248   2.855 -0.3609 -1.7404  0.6605
  155MOL   H13137399   3.878   5.269   3.158  0.0912 -2.5105 -0.7663
  155MOL   H13237400   3.770   5.374   3.083 -1.3459 -0.2282  2.0248
  155MOL   H13337401   3.730   5.206   3.085 -0.4774  0.1399 -0.9339
  155MOL   C13437402   4.055   5.354   2.775  0.3251  0.2139 -0.1017
  155MOL   C13537403   3.959   5.433   2.682  0.0455 -0.7193  0.4225
  155MOL   C13637404   3.938   5.362   2.542 -0.0369  0.4538 -0.5742
  155MOL   C13737405   3.849   5.226   2.540  0.6432  0.2783 -0.1537
  155MOL   H13837406   4.056   5.249   2.744 -1.4753  0.4040 -0.8543
  155MOL   H13937407   4.156   5.393   2.770 -0.3906  2.0986 -0.1343
  155MOL   H14037408   3.862   5.428   2.732  0.9174 -1.0749  2.1211
  155MOL   H14137409   4.034   5.338   2.496  0.4551 -0.9539  1.1252
  155MOL   H14237410   3.882   5.431   2.478  0.6271  2.8553  1.3233
  155MOL   H14337411   3.857   5.171   2.446  0.5764  0.8769 -0.5125
  155MOL   H14437412   3.891   5.157   2.614 -1.2596 -0.0439  0.6432
  155MOL   H14537413   3.749   5.248   2.577 -1.2198 -2.9950 -2.8648
  155MOL   C14637414   4.002   5.584   2.669  0.2270  0.3500 -0.0522
  155MOL   C14737415   4.134   5.606   2.589 -0.6709  0.3443  0.3141
  155MOL   C14837416   4.239   5.677   2.673  0.4458  0.8636 -0.2055
  155MOL   C14937417   4.206   5.827   2.694  0.0961 -0.2660 -0.3899
  155MOL   H15037418   4.019   5.626   2.768  0.0535  1.7410 -0.5985
  155MOL   H15137419   3.917   5.638   2.626 -0.2836  0.8464  1.5494
  155MOL   H15237420   4.180   5.508   2.576  0.1415  0.6943  0.4930
  155MOL   H15337421   4.337   5.662   2.629 -0.3665  0.2535 -1.8602
  155MOL   H15437422   4.244   5.628   2.771  2.7015  0.8680 -0.2976
  155MOL   H15537423   4.099   5.841   2.708  0.0704 -0.5065 -0.3575
  155MOL   H15637424   4.259   5.860   2.784 -0.6040  1.1829 -0.4899
  155MOL   H15737425   4.232   5.889   2.609 -0.8785 -1.2228 -1.3857
  155MOL   C15837426   4.100   5.667   2.449 -0.1367  0.7004 -0.3550
  155MOL   C15937427   4.220   5.725   2.370  0.3708 -0.0911  0.0220
  155MOL   C16037428   4.161   5.798   2.245  0.8275 -0.8560 -0.4053
  155MOL   C16137429   4.071   5.924   2.296 -0.3365  0.5352 -0.0040
  155MOL   H16237430   4.019   5.737   2.467 -0.6224 -0.1705  0.9618
  155MOL   H16337431   4.054   5.589   2.388 -2.7184  1.2618  0.7998
  155MOL   H16437432   4.274   5.796   2.432  0.9374 -2.1118  1.8930
  155MOL   H16537433   4.096   5.739   2.181  0.5325  0.3968 -1.2727
  155MOL   H16637434   4.238   5.827   2.174  0.8003 -2.1439 -0.9803
  155MOL   H16737435   4.043   5.998   2.221 -1.6893 -0.0564 -0.1035
  155MOL   H16837436   3.973   5.884   2.322 -0.3128  0.4127 -0.0986
  155MOL   H16937437   4.103   5.978   2.385  0.1055  0.9986 -0.4413
  155MOL   C17037438   4.314   5.621   2.310 -0.2065 -0.1037 -0.1118
  155MOL   C17137439   4.459   5.665   2.283 -0.0459 -0.5503 -0.4054
  155MOL   C17237440   4.534   5.555   2.209  0.5650 -0.1157 -0.4022
  155MOL   C17337441   4.546   5.576   2.060  0.0878 -0.2415  1.0110
  155MOL   H17437442   4.266   5.582   2.221 -0.6868 -0.5497  0.3396
  155MOL   H17537443   4.314   5.542   2.386  1.0164  1.0674  1.1501
  155MOL   H17637444   4.454   5.736   2.201 -1.2079 -1.3382 -1.0338
  155MOL   H17737445   4.492   5.456   2.224 -0.0914 -0.0168 -1.5799
  155MOL   H17837446   4.634   5.538   2.250  0.2339 -0.2531  0.3675
  155MOL   H17937447   4.603   5.667   2.039  0.2878  0.1168  3.0241
  155MOL   H18037448   4.601   5.487   2.030  0.6453  0.3760  0.1918
  155MOL   H18137449   4.450   5.574   2.009  1.0136 -0.4303 -0.7477
  155MOL   C18237450   4.544   5.714   2.397  0.4271 -0.6333  0.2923
  155MOL   C18337451   4.683   5.775   2.365 -0.7748 -0.2818  0.3189
  155MOL   C18437452   4.793   5.769   2.482 -0.2026 -0.0782  0.1461
  155MOL   C18537453   4.810   5.632   2.545  0.2081  0.1230 -0.5226
  155MOL   H18637454   4.553   5.625   2.459  0.8234 -1.5233 -1.0105
  155MOL   H18737455   4.493   5.787   2.459  0.3522  0.2164 -0.7580
  155MOL   H18837456   4.723   5.720   2.279  0.3354  1.9230 -0.6251
  155MOL   H18937457   4.763   5.841   2.558 -0.2429 -1.1037  1.1129
  155MOL   H19037458   4.883   5.812   2.437  0.8083 -2.4685 -0.1890
  155MOL   H19137459   4.740   5.624   2.628  0.3744  0.0135 -0.3945
  155MOL   H19237460   4.783   5.546   2.485  2.4757 -0.4237 -0.7923
  155MOL   H19337461   4.911   5.611   2.578 -0.9199 -1.4371  2.0596
  155MOL   C19437462   4.672   5.923   2.306  0.5674  0.0498 -0.4363
  155MOL   C19537463   4.796   5.978   2.227  0.2501 -0.4894 -0.0954
  155MOL   C19637464   4.798   6.135   2.241  0.9261  0.4234 -0.0193
  155MOL   C19737465   4.671   6.194   2.171 -0.6400 -0.1381 -0.1353
  155MOL   H19837466   4.662   5.990   2.391 -1.5679  0.2516 -0.8051
  155MOL   H19937467   4.585   5.936   2.241  2.0528  0.1000 -2.4445
  155MOL   H20037468   4.885   5.939   2.277 -0.0334  0.3882  1.1125
  155MOL   H20137469   4.892   6.169   2.198  1.0770 -2.3596 -2.0023
  155MOL   H20237470   4.792   6.166   2.345 -0.7870  1.1358 -0.3170
  155MOL   H20337471   4.583   6.154   2.222 -0.8229  2.0278  1.2876
  155MOL   H20437472   4.662   6.302   2.165 -1.2015 -0.1753 -0.0323
  155MOL   H20537473   4.662   6.172   2.064 -1.8032 -1.7355  0.2609
  155MOL   C20637474   4.808   5.931   2.086 -0.1926  0.0044  0.4860
  155MOL   C20737475   4.935   5.971   2.002 -0.7198 -0.4021  0.3616
  155MOL   C20837476   4.929   5.919   1.858 -0.0672  0.4795 -0.1101
  155MOL   C20937477   5.031   5.995   1.765 -0.0288  0.2336 -0.6192
  155MOL   H21037478   4.721   5.949   2.024  1.5394 -0.3088 -2.1303
  155MOL   H21137479   4.804   5.822   2.092  1.1482 -0.0421  0.6643
  155MOL   H21237480   4.923   6.079   1.999 -3.1753 -0.6723 -1.4204
  155MOL   H21337481   4.825   5.917   1.823 -0.9602  1.4684  2.3608
  155MOL   H21437482   4.951   5.813   1.872  0.7888  0.7030  0.2770
  155MOL   H21537483   5.017   5.985   1.657  1.8869 -2.0233 -0.6776
  155MOL   H21637484   5.013   6.101   1.787  0.4878 -0.1001  1.5382
  155MOL   H21737485   5.130   5.963   1.795 -0.7508 -0.1958  1.3962
  155MOL   C21837486   5.071   5.919   2.065  0.2147 -0.9000 -0.1456
  155MOL   C21937487   5.162   6.009   2.148 -0.0392 -0.4320  0.7070
  155MOL   C22037488   5.238   6.106   2.060  0.4521  0.1430  1.0547
  155MOL   C22137489   5.299   6.227   2.140  0.5928  0.3651  0.9071
  155MOL   H22237490   5.138   5.881   1.988 -0.5992 -1.8853 -0.3783
  155MOL   H22337491   5.044   5.827   2.118 -1.3031  0.2797  1.1632
  155MOL   H22437492   5.098   6.072   2.209 -0.6558 -0.3327 -0.0400
  155MOL   H22537493   5.165   6.140   1.986 -0.1470 -3.9947 -0.3971
  155MOL   H22637494   5.309   6.048   2.001 -1.4168 -1.9062  0.7509
  155MOL   H22737495   5.235   6.315   2.133 -1.5927 -1.2790 -0.5024
  155MOL   H22837496   5.336   6.215   2.242  0.7806 -3.3571  0.4861
  155MOL   H22937497   5.388   6.251   2.083  0.3424  0.0520  0.3834
  155MOL   C23037498   5.260   5.914   2.232 -0.3549  0.1846 -0.4098
  155MOL   C23137499   5.183   5.844   2.350 -0.2937  0.6168 -0.2113
  155MOL   C23237500   5.287   5.784   2.450  0.3466 -0.2229 -0.3146
  155MOL   C23337501   5.215   5.709   2.562 -0.2564 -0.3418  0.2372
  155MOL   H23437502   5.330   5.981   2.281 -1.2313  2.7037 -2.4867
  155MOL   H23537503   5.325   5.851   2.171 -1.2999 -1.6654  0.4557
  155MOL   H23637504   5.124   5.923   2.397  0.4583  1.4075 -0.5827
  155MOL   H23737505   5.340   5.873   2.485 -0.5029 -0.4507  1.6036
  155MOL   H23837506   5.352   5.708   2.405  3.2638 -0.0509  3.3369
  155MOL   H23937507   5.135   5.648   2.520 -1.3663  0.8858  0.5334
  155MOL   H24037508   5.281   5.646   2.621 -0.1146 -0.6079 -0.2002
  155MOL   H24137509   5.161   5.779   2.626 -1.4355 -1.2544  0.2639
  155MOL   H24237510   5.115   5.762   2.328  0.9182 -0.8013  1.1277
  156MOL     C137511   7.655   1.992   4.109 -0.4783  0.0782  0.0885
  156MOL     C237512   7.550   2.086   4.065  0.2233  0.2404  0.1632
  156MOL     C337513   7.611   2.203   3.977 -0.9010  0.6001 -0.3187
  156MOL     C437514   7.621   2.165   3.829  0.0362 -0.4270  1.3721
  156MOL     H537515   7.703   2.036   4.197 -0.4736 -1.2708  0.7760
  156MOL     H637516   7.600   1.908   4.152 -0.6495  0.3659  0.4347
  156MOL     H737517   7.481   2.038   3.996  0.0612  0.0765  0.4387
  156MOL     H837518   0.003   2.227   4.018  0.4754 -1.4659 -2.2323
  156MOL     H937519   7.549   2.291   3.992 -1.6175 -0.1738  1.2594
  156MOL    H1037520   7.635   2.251   3.762 -0.5745 -2.0430 -0.9045
  156MOL    H1137521   7.703   2.095   3.815 -1.5006 -1.6585 -2.1791
  156MOL    H1237522   7.527   2.123   3.794  0.8178 -1.1184  0.0292
  156MOL    H1337523   0.018   1.953   4.034 -0.8549  0.3901 -0.4182
  156MOL    C1437524   7.462   2.151   4.178  0.1302 -0.1527 -0.3904
  156MOL    C1537525   7.395   2.058   4.290 -0.5412 -0.4384  0.9704
  156MOL    C1637526   7.300   1.959   4.216 -0.3724  0.0428  0.1435
  156MOL    C1737527   7.215   1.883   4.315 -0.4625  0.1769 -0.1078
  156MOL    H1837528   7.387   2.206   4.121  0.7166  0.5368 -0.5049
  156MOL    H1937529   7.525   2.227   4.224  1.4766 -2.1587  1.2050
  156MOL    H2037530   7.467   1.986   4.330 -0.0214 -0.9396 -0.7928
  156MOL    H2137531   7.367   1.890   4.165  0.0245  1.3689 -1.1760
  156MOL    H2237532   7.233   2.007   4.144 -1.8139  0.6116  1.8337
  156MOL    H2337533   7.155   1.801   4.274  0.9298 -1.0259  0.2446
  156MOL    H2437534   7.276   1.835   4.391 -0.9753  0.1698  0.3012
  156MOL    H2537535   7.142   1.943   4.369 -0.1130  0.6485 -0.1533
  156MOL    C2637536   7.328   2.151   4.398  0.3739 -0.6408  0.8704
  156MOL    C2737537   7.419   2.247   4.474  0.3561 -0.0842 -0.1591
  156MOL    C2837538   7.550   2.177   4.517  0.1554 -0.4272  0.5392
  156MOL    C2937539   7.530   2.059   4.615 -0.2402  0.0439  0.7049
  156MOL    H3037540   7.261   2.100   4.467 -1.3374  0.9495  0.4393
  156MOL    H3137541   7.256   2.217   4.350  1.5962  0.7627  0.9196
  156MOL    H3237542   7.449   2.317   4.396 -1.8419 -0.5479 -1.4732
  156MOL    H3337543   7.616   2.252   4.560 -0.1328  0.8768 -1.2368
  156MOL    H3437544   7.615   2.147   4.434 -0.2948 -0.0508  0.0536
  156MOL    H3537545   7.630   2.019   4.630  0.0743  1.4323  2.4548
  156MOL    H3637546   7.492   2.092   4.712 -0.9192  0.1288  0.4159
  156MOL    H3737547   7.469   1.982   4.568  0.3429  0.2414 -0.4015
  156MOL    C3837548   7.363   2.318   4.599 -0.5206 -0.1227 -0.0238
  156MOL    C3937549   7.236   2.399   4.563 -0.3420  0.1265  0.8364
  156MOL    C4037550   7.257   2.508   4.452 -0.3646  0.1222 -0.1369
  156MOL    C4137551   7.370   2.607   4.488 -0.4781  0.4414 -0.4115
  156MOL    H4237552   7.443   2.384   4.635 -0.6210  0.3797 -0.7214
  156MOL    H4337553   7.324   2.252   4.677  2.0917 -1.2986  0.3676
  156MOL    H4437554   7.166   2.331   4.516 -2.1640  1.6601  1.2826
  156MOL    H4537555   7.166   2.565   4.436  0.6021  1.3507 -1.4381
  156MOL    H4637556   7.283   2.455   4.360 -0.5375  0.9465 -0.6706
  156MOL    H4737557   7.340   2.640   4.587 -0.9814  2.3754 -1.1894
  156MOL    H4837558   7.470   2.571   4.466 -0.6145  0.7935 -1.6563
  156MOL    H4937559   7.379   2.695   4.425 -1.4450  1.2730  0.5925
  156MOL    C5037560   7.167   2.446   4.699  0.0294 -0.5228 -0.3130
  156MOL    C5137561   7.030   2.375   4.723 -0.0508  0.2280  0.3858
  156MOL    C5237562   6.945   2.472   4.807  0.6621  0.4838  0.1784
  156MOL    C5337563   6.970   2.508   4.955  0.2265 -0.3147  0.2399
  156MOL    H5437564   7.143   2.553   4.704  1.0980 -0.2191 -1.3689
  156MOL    H5537565   7.231   2.436   4.786  1.6129 -0.4917 -1.4430
  156MOL    H5637566   6.973   2.357   4.632  0.7204 -1.0504  0.1443
  156MOL    H5737567   6.841   2.444   4.796  0.2436  2.1361 -0.1522
  156MOL    H5837568   6.937   2.573   4.768 -1.6959 -0.3331 -1.5807
  156MOL    H5937569   7.034   2.429   4.996 -0.6026  0.0973  2.3726
  156MOL    H6037570   7.021   2.603   4.970  0.5760 -0.6970  1.5205
  156MOL    H6137571   6.876   2.531   5.004  0.4830  0.6602  0.2782
  156MOL    C6237572   7.045   2.238   4.791  0.2633 -0.0935 -0.3141
  156MOL    C6337573   6.926   2.143   4.781 -0.5474  0.6562 -0.3942
  156MOL    C6437574   6.946   2.006   4.868  0.8459  0.4719 -0.5667
  156MOL    C6537575   7.053   1.908   4.818  0.3215 -0.0009  0.8496
  156MOL    H6637576   7.064   2.257   4.896 -1.0796 -2.2990  0.3655
  156MOL    H6737577   7.127   2.176   4.754  0.9748 -1.3012  3.1407
  156MOL    H6837578   6.845   2.188   4.839  0.0177  1.5965 -0.3251
  156MOL    H6937579   6.848   1.962   4.850 -0.3114  1.9986  1.7830
  156MOL    H7037580   6.964   2.019   4.974 -1.0244 -1.2233 -0.0201
  156MOL    H7137581   7.070   1.827   4.888  1.2004 -0.8690 -0.3499
  156MOL    H7237582   7.012   1.882   4.720  0.3831  2.4455  0.1361
  156MOL    H7337583   7.145   1.960   4.792 -1.0774  2.7364  1.1512
  156MOL    C7437584   6.895   2.113   4.630  0.3125  0.1465  0.0726
  156MOL    C7537585   6.767   2.176   4.581  0.3475 -1.3335  0.4746
  156MOL    C7637586   6.642   2.112   4.635 -0.1350  0.2007  0.2216
  156MOL    C7737587   6.511   2.192   4.606  0.3372 -0.0903  0.2805
  156MOL    H7837588   6.872   2.007   4.615 -0.9659  0.3573  0.4257
  156MOL    H7937589   6.982   2.136   4.568  1.8246 -1.2082  1.6598
  156MOL    H8037590   6.753   2.278   4.617 -0.3338 -1.1053 -0.4207
  156MOL    H8137591   6.651   2.092   4.741  0.8612 -2.6828 -0.3507
  156MOL    H8237592   6.628   2.011   4.596  1.2355  0.3681 -0.7694
  156MOL    H8337593   6.508   2.256   4.518 -0.7400  0.6720  0.8720
  156MOL    H8437594   6.424   2.130   4.586  1.9949 -2.2574 -0.4366
  156MOL    H8537595   6.485   2.259   4.688 -1.0688  0.6414 -0.7511
  156MOL    C8637596   6.763   2.177   4.430 -0.2128  0.5830  0.1703
  156MOL    C8737597   6.846   2.291   4.359 -0.5691  0.1295  1.0721
  156MOL    C8837598   6.802   2.437   4.396 -0.7868 -0.0464 -0.6728
  156MOL    C8937599   6.658   2.474   4.365  0.2963 -0.7116 -0.3860
  156MOL    H9037600   6.664   2.169   4.386 -0.6730  1.7109  0.9880
  156MOL    H9137601   6.811   2.083   4.401 -1.4872  0.8252 -2.9669
  156MOL    H9237602   6.950   2.287   4.389  0.5136  3.3231 -1.9535
  156MOL    H9337603   6.869   2.520   4.378 -1.8903  1.0939  0.3360
  156MOL    H9437604   6.801   2.446   4.505  1.8501  2.1453 -0.7835
  156MOL    H9537605   6.646   2.523   4.269  1.3690 -0.2812 -0.3154
  156MOL    H9637606   6.587   2.391   4.365 -1.3208  0.6701 -1.0431
  156MOL    H9737607   6.618   2.535   4.446 -0.1507  0.6837 -1.6539
  156MOL    C9837608   6.830   2.270   4.205  0.1436  0.5778 -0.1317
  156MOL    C9937609   6.922   2.358   4.108  0.0047  0.8082 -0.6746
  156MOL   C10037610   6.844   2.450   4.021  0.8112 -0.1888  0.7320
  156MOL   C10137611   6.779   2.386   3.901 -0.1378 -0.6549  0.1614
  156MOL   H10237612   6.725   2.284   4.179  0.4889  1.1640 -1.2555
  156MOL   H10337613   6.845   2.165   4.179 -0.4332  0.0899  1.4590
  156MOL   H10437614   6.961   2.420   4.190  0.0353 -1.1760  0.8599
  156MOL   H10537615   6.920   2.519   3.983  0.4937 -1.3962 -2.2069
  156MOL   H10637616   6.772   2.505   4.082 -1.1546 -1.4943 -0.3579
  156MOL   H10737617   6.677   2.424   3.894  0.0258 -0.2749 -0.1725
  156MOL   H10837618   6.839   2.399   3.811 -0.4089 -2.0878 -0.2356
  156MOL   H10937619   6.761   2.279   3.917  1.4189 -1.0257 -0.4536
  156MOL   C11037620   7.039   2.276   4.044 -0.0368 -0.6404  0.0498
  156MOL   C11137621   7.130   2.353   3.951 -0.1427  0.3991 -0.2039
  156MOL   C11237622   7.193   2.260   3.843 -0.8084 -0.1308  0.4626
  156MOL   C11337623   7.111   2.164   3.752 -0.4362  0.0136 -0.0259
  156MOL   H11437624   7.001   2.191   3.989 -0.9803 -0.0512 -0.2254
  156MOL   H11537625   7.103   2.231   4.120  3.1919  2.9722 -0.3492
  156MOL   H11637626   7.074   2.418   3.884  0.5683  1.2299 -0.0124
  156MOL   H11737627   7.281   2.207   3.881 -0.4760 -0.9244 -1.3267
  156MOL   H11837628   7.249   2.332   3.783  0.0399 -2.1524 -1.2523
  156MOL   H11937629   7.022   2.213   3.713  0.2271 -0.0922 -1.7169
  156MOL   H12037630   7.168   2.129   3.666  0.2845 -0.1087  0.4982
  156MOL   H12137631   7.089   2.082   3.821 -0.9878  0.2783  0.1112
  156MOL   C12237632   7.231   2.447   4.032  0.4921  0.0086 -0.0164
  156MOL   C12337633   7.277   2.572   3.970  0.2653 -0.1566 -0.3268
  156MOL   C12437634   7.385   2.636   4.063  0.3324  0.1530 -0.2279
  156MOL   C12537635   7.496   2.546   4.120  0.5217 -0.6010 -0.5651
  156MOL   H12637636   7.315   2.384   4.063  0.3309  0.6036  1.7159
  156MOL   H12737637   7.191   2.468   4.132  1.9329 -3.2967  1.3333
  156MOL   H12837638   7.321   2.559   3.871  1.6149  0.9139  0.1151
  156MOL   H12937639   7.334   2.693   4.141  1.1628 -1.4001  1.4859
  156MOL   H13037640   7.434   2.712   4.002  0.5266 -0.3865 -0.7420
  156MOL   H13137641   7.556   2.609   4.186 -3.4154  1.8820  0.8204
  156MOL   H13237642   7.454   2.466   4.180  0.1870 -0.6570 -0.8692
  156MOL   H13337643   7.557   2.505   4.040 -1.2092 -0.8888 -1.7640
  156MOL   C13437644   7.160   2.668   3.962  0.2831  0.1553  0.2479
  156MOL   C13537645   7.188   2.807   3.903  0.2874  0.0678 -0.4270
  156MOL   C13637646   7.055   2.895   3.908 -0.1293 -0.1268  0.4733
  156MOL   C13737647   7.000   2.899   4.052 -0.8048 -0.5843  0.9895
  156MOL   H13837648   7.122   2.667   4.064  0.8665  0.8283  0.4787
  156MOL   H13937649   7.080   2.630   3.899 -0.7724  0.8474  1.1430
  156MOL   H14037650   7.255   2.870   3.961 -1.2006 -0.0445  1.4591
  156MOL   H14137651   6.983   2.849   3.840  0.2927 -0.3381  0.1720
  156MOL   H14237652   7.090   2.992   3.875  1.4198 -0.6048  0.6887
  156MOL   H14337653   6.983   2.803   4.100 -0.2673 -1.5593 -0.7104
  156MOL   H14437654   7.069   2.959   4.111 -0.1081 -0.9985  0.6040
  156MOL   H14537655   6.901   2.943   4.039 -0.3443  0.2528  0.2240
  156MOL   C14637656   7.257   2.793   3.764  0.4092  0.7447 -0.4296
  156MOL   C14737657   7.301   2.924   3.708 -0.1571 -0.2124  0.1304
  156MOL   C14837658   7.330   2.906   3.555  0.5961 -0.0849 -0.2368
  156MOL   C14937659   7.209   2.883   3.458 -0.0127  0.2708  0.4251
  156MOL   H15037660   7.186   2.741   3.700 -1.7271  0.3238  2.1543
  156MOL   H15137661   7.352   2.741   3.768  0.1846  0.3867  0.3862
  156MOL   H15237662   7.233   3.009   3.717  2.5636  2.1907 -1.0640
  156MOL   H15337663   7.391   2.815   3.547 -0.9430 -1.4299  2.4765
  156MOL   H15437664   7.379   2.992   3.510 -0.2517  0.9236  0.7481
  156MOL   H15537665   7.247   2.850   3.362  0.3378  2.9889 -0.3993
  156MOL   H15637666   7.154   2.803   3.509 -0.7703  1.1035  0.9315
  156MOL   H15737667   7.139   2.967   3.451  0.3388  0.3712 -2.1518
  156MOL   C15837668   7.440   2.974   3.764 -0.1706  0.2076  0.2875
  156MOL   C15937669   7.474   3.124   3.743  0.1856  0.0488 -0.0629
  156MOL   C16037670   7.613   3.151   3.802 -0.4508 -0.2210 -0.9652
  156MOL   C16137671   0.031   3.109   3.717 -0.6685 -0.1936  0.1859
  156MOL   H16237672   7.516   2.905   3.728 -1.1980 -0.0013 -1.5647
  156MOL   H16337673   7.455   2.955   3.870  2.6093  0.2262 -0.0556
  156MOL   H16437674   7.479   3.130   3.635  0.0692 -0.0118 -0.0710
  156MOL   H16537675   7.625   3.115   3.904  1.0711 -0.7311 -1.3142
  156MOL   H16637676   7.632   3.259   3.804  1.0864 -0.5038 -0.0085
  156MOL   H16737677   7.700   3.086   3.617 -1.7192 -1.4008  0.8486
  156MOL   H16837678   0.117   3.176   3.712 -0.4797 -0.5085 -0.9619
  156MOL   H16937679   0.076   3.014   3.743  0.9728  0.7682  0.9499
  156MOL   C17037680   7.373   3.218   3.805  0.1637  0.2814  0.1283
  156MOL   C17137681   7.258   3.267   3.709  0.0900  0.3941 -1.1005
  156MOL   C17237682   7.300   3.383   3.617  0.4321  0.1389  0.3539
  156MOL   C17337683   7.438   3.370   3.547  0.0050 -0.3504 -0.1174
  156MOL   H17437684   7.424   3.310   3.835  2.7314 -1.5994  1.7124
  156MOL   H17537685   7.332   3.169   3.893  1.2603 -1.3707 -0.2619
  156MOL   H17637686   7.237   3.183   3.644  0.7130 -0.0615 -0.7166
  156MOL   H17737687   7.284   3.481   3.661 -1.2004 -0.6827  1.6139
  156MOL   H17837688   7.230   3.383   3.533 -0.1583  0.1239  0.8489
  156MOL   H17937689   7.440   3.281   3.483  0.3851 -0.4575  0.0404
  156MOL   H18037690   7.438   3.457   3.482 -1.9502  0.5120  0.9933
  156MOL   H18137691   7.523   3.368   3.616 -0.7887 -0.2833  0.8822
  156MOL   C18237692   7.134   3.320   3.788  0.2113 -0.3110 -0.0424
  156MOL   C18337693   7.000   3.334   3.709 -0.3224  0.0260 -0.3409
  156MOL   C18437694   6.903   3.436   3.769 -0.3481  0.4178 -0.0813
  156MOL   C18537695   6.951   3.581   3.768 -0.1197  0.3241 -0.5031
  156MOL   H18637696   7.157   3.415   3.837  2.5235 -0.5828 -0.5676
  156MOL   H18737697   7.106   3.249   3.866  0.6685  0.5324  0.9042
  156MOL   H18837698   7.016   3.365   3.606 -0.6435  2.8099  0.4019
  156MOL   H18937699   6.893   3.412   3.875 -3.0988 -4.0292 -1.1747
  156MOL   H19037700   6.802   3.423   3.729  0.7070 -0.6368 -2.4896
  156MOL   H19137701   6.883   3.666   3.765 -1.6256 -0.8928 -2.1430
  156MOL   H19237702   6.998   3.579   3.866  0.1000 -0.1001 -0.6126
  156MOL   H19337703   7.037   3.609   3.707 -1.0808 -0.4244 -2.2390
  156MOL   C19437704   6.940   3.189   3.697 -0.0323 -0.5602 -1.4496
  156MOL   C19537705   6.848   3.174   3.571  0.2982  0.0469  0.0399
  156MOL   C19637706   6.756   3.054   3.584 -0.2527 -0.0377  0.3346
  156MOL   C19737707   6.638   3.074   3.683 -0.1025  0.3843 -0.1946
  156MOL   H19837708   6.876   3.173   3.783 -0.6470  2.3837 -1.3204
  156MOL   H19937709   7.009   3.104   3.702  3.0539  1.9858  1.0509
  156MOL   H20037710   6.783   3.262   3.570  2.4706  1.6828  0.2579
  156MOL   H20137711   6.817   2.967   3.610  0.2121 -0.0095 -0.6444
  156MOL   H20237712   6.723   3.044   3.481  1.0190  0.4436 -0.1360
  156MOL   H20337713   6.673   3.104   3.782 -0.3340 -0.4736  0.1483
  156MOL   H20437714   6.569   3.150   3.647 -1.2428 -0.5051  0.0985
  156MOL   H20537715   6.580   2.982   3.686  1.7109 -0.7814 -0.3302
  156MOL   C20637716   6.931   3.190   3.442  0.2079  0.1387  0.4203
  156MOL   C20737717   6.906   3.316   3.357  0.4853  0.1995  0.8203
  156MOL   C20837718   6.761   3.325   3.300 -0.3854  0.4884 -0.3291
  156MOL   C20937719   6.731   3.464   3.241 -0.0042  1.2295  0.0986
  156MOL   H21037720   6.911   3.109   3.372 -0.0071  0.8206 -0.3197
  156MOL   H21137721   7.037   3.183   3.466 -0.0554 -3.0780  0.8366
  156MOL   H21237722   6.911   3.392   3.435  1.2779 -0.1739  1.1386
  156MOL   H21337723   6.683   3.304   3.373 -0.5946 -1.0910 -0.9657
  156MOL   H21437724   6.753   3.251   3.220  1.5962 -1.1103  0.9099
  156MOL   H21537725   6.769   3.546   3.302 -2.4334  1.7735  0.9272
  156MOL   H21637726   6.782   3.475   3.145 -0.4090 -0.6905 -0.3530
  156MOL   H21737727   6.625   3.486   3.227  0.2970  1.3819 -2.1481
  156MOL   C21837728   7.004   3.323   3.232  0.3544 -0.3081  0.2345
  156MOL   C21937729   7.150   3.362   3.259  0.4267 -1.0692  0.1910
  156MOL   C22037730   7.179   3.518   3.279  0.9589  0.6897  0.6529
  156MOL   C22137731   7.090   3.593   3.377  0.2521  0.3867 -0.4361
  156MOL   H22237732   6.971   3.395   3.157 -2.2989 -1.9954 -0.2938
  156MOL   H22337733   6.995   3.231   3.175  0.1712 -1.5836  2.2549
  156MOL   H22437734   7.180   3.304   3.346 -3.1186 -1.4803  1.2414
  156MOL   H22537735   7.160   3.571   3.185  1.1290 -0.0392  0.2029
  156MOL   H22637736   7.285   3.528   3.301  1.0667 -1.4911  1.1876
  156MOL   H22737737   6.992   3.625   3.340  0.2043  1.5380  0.6354
  156MOL   H22837738   7.093   3.556   3.479  0.8976 -2.1405 -1.3464
  156MOL   H22937739   7.150   3.683   3.388 -1.1200  1.4072 -1.0540
  156MOL   C23037740   7.242   3.309   3.142  0.1766  0.2619 -0.7842
  156MOL   C23137741   7.257   3.156   3.136 -0.2300  1.0347 -0.3808
  156MOL   C23237742   7.358   3.104   3.039 -0.1173 -0.3300 -0.3191
  156MOL   C23337743   7.382   2.954   3.061 -0.1540  0.8243  0.0474
  156MOL   H23437744   7.340   3.353   3.157 -0.5518  1.6087  0.1606
  156MOL   H23537745   7.199   3.353   3.052 -0.0719 -1.2532 -1.4278
  156MOL   H23637746   7.274   3.121   3.237 -2.8289  1.5187  0.2651
  156MOL   H23737747   7.448   3.164   3.050  0.0308 -0.6261  0.0928
  156MOL   H23837748   7.320   3.124   2.939 -0.8596 -1.2536 -0.2306
  156MOL   H23937749   7.474   2.928   3.008 -0.7347 -0.3432 -0.4271
  156MOL   H24037750   7.400   2.937   3.167 -2.1603  1.5820  0.5219
  156MOL   H24137751   7.292   2.899   3.033  1.4843 -1.1287 -1.6218
  156MOL   H24237752   7.166   3.100   3.111 -0.5274  1.5346 -0.4276
  157MOL     C137753   4.091   5.386   4.635 -0.4755  0.5297 -0.3212
  157MOL     C237754   3.940   5.369   4.654  1.0859 -0.3186  0.7071
  157MOL     C337755   3.863   5.391   4.520 -0.2133  0.5093 -0.1074
  157MOL     C437756   3.875   5.276   4.419 -0.5339  0.2671  0.8131
  157MOL     H537757   4.107   5.486   4.595  2.9933 -0.0141 -0.4397
  157MOL     H637758   4.139   5.371   4.731 -0.9142 -0.1789 -0.2064
  157MOL     H737759   3.919   5.263   4.670  1.0509 -0.3592  0.3939
  157MOL     H837760   3.891   5.484   4.471 -1.4184  0.0478 -1.7201
  157MOL     H937761   3.756   5.398   4.540 -0.2722  0.3824 -0.3781
  157MOL    H1037762   3.816   5.297   4.330  1.3624 -0.0994 -0.5748
  157MOL    H1137763   3.977   5.254   4.387 -0.8698 -0.0147 -0.1043
  157MOL    H1237764   3.836   5.190   4.474 -1.7025  0.6757  0.6271
  157MOL    H1337765   4.137   5.313   4.568 -0.2273  1.5369 -1.2510
  157MOL    C1437766   3.890   5.456   4.773 -0.4616 -0.3498  0.4541
  157MOL    C1537767   3.895   5.389   4.911 -0.1445 -0.2519 -0.0541
  157MOL    C1637768   3.826   5.248   4.916 -0.4446 -0.1952  0.7057
  157MOL    C1737769   3.923   5.127   4.894  0.1191  0.2646  0.1176
  157MOL    H1837770   3.788   5.486   4.750 -0.9054 -1.2396  1.2641
  157MOL    H1937771   3.951   5.547   4.766 -1.8140  0.5631  0.3332
  157MOL    H2037772   4.001   5.370   4.928 -0.7103 -2.2127  1.6291
  157MOL    H2137773   3.747   5.249   4.841 -0.7590  2.0137  1.0324
  157MOL    H2237774   3.793   5.229   5.019 -1.6079  0.5510  0.4815
  157MOL    H2337775   3.959   5.104   4.794 -1.5037 -0.3214 -0.3477
  157MOL    H2437776   4.014   5.131   4.954 -0.5056 -0.2983  1.1089
  157MOL    H2537777   3.861   5.048   4.935 -2.9970  2.6051  0.0954
  157MOL    C2637778   3.851   5.476   5.032 -0.3563  0.2073 -0.5274
  157MOL    C2737779   3.925   5.610   5.043 -0.4312  0.3328 -0.6850
  157MOL    C2837780   4.081   5.581   5.056 -0.3146  0.2215 -0.4737
  157MOL    C2937781   4.124   5.487   5.172  0.0075  0.3418 -0.4037
  157MOL    H3037782   3.854   5.418   5.124 -1.0559  0.4056 -0.3786
  157MOL    H3137783   3.743   5.495   5.034  0.0674  2.5655  1.9746
  157MOL    H3237784   3.916   5.663   4.948  2.2040  1.4673 -0.3529
  157MOL    H3337785   4.115   5.683   5.066  0.9215 -0.1398 -0.9238
  157MOL    H3437786   4.113   5.551   4.956  1.4530  1.9246 -0.4384
  157MOL    H3537787   4.232   5.494   5.188  0.1288  0.9760 -1.4738
  157MOL    H3637788   4.073   5.507   5.267 -0.7142 -0.3765 -0.6337
  157MOL    H3737789   4.106   5.381   5.158 -0.5679  0.8233 -3.6100
  157MOL    C3837790   3.881   5.719   5.138  0.5370 -0.1399 -0.7378
  157MOL    C3937791   3.730   5.759   5.132  0.4164  0.4387 -0.1422
  157MOL    C4037792   3.727   5.915   5.153 -0.3777  0.4494  0.1888
  157MOL    C4137793   3.694   5.995   5.027  0.4374  0.2701 -0.3277
  157MOL    H4237794   3.938   5.806   5.107 -0.9350  1.9289  2.1225
  157MOL    H4337795   3.927   5.707   5.236  3.0816 -1.7296 -2.0521
  157MOL    H4437796   3.690   5.741   5.033  1.1957  2.6678 -0.8838
  157MOL    H4537797   3.816   5.945   5.209 -0.8002  1.9406  0.0782
  157MOL    H4637798   3.643   5.943   5.215 -1.0547 -0.8519 -0.1270
  157MOL    H4737799   3.593   5.982   4.986 -0.0283 -0.2746  0.9758
  157MOL    H4837800   3.689   6.104   5.040 -0.5859 -0.0171  1.9287
  157MOL    H4937801   3.771   5.982   4.951 -0.4991 -1.5336 -1.0054
  157MOL    C5037802   3.646   5.682   5.230  0.3362 -0.2481  0.1694
  157MOL    C5137803   3.494   5.716   5.233 -0.7418  0.9788  1.5458
  157MOL    C5237804   3.429   5.689   5.371 -0.4674 -0.3585  0.3394
  157MOL    C5337805   3.462   5.783   5.483 -0.1133  0.0494  0.1436
  157MOL    H5437806   3.684   5.712   5.328 -1.4298  1.7235  0.2990
  157MOL    H5537807   3.662   5.574   5.227 -0.5329 -0.3689 -0.2603
  157MOL    H5637808   3.480   5.822   5.211  1.7305  0.6965 -1.8165
  157MOL    H5737809   3.445   5.586   5.401 -1.2541  0.3266  3.2798
  157MOL    H5837810   3.321   5.692   5.363 -0.1805  1.3428 -3.6824
  157MOL    H5937811   3.404   5.875   5.482  1.2134  0.9079 -0.6910
  157MOL    H6037812   3.454   5.734   5.580 -0.6613  0.4631  0.3095
  157MOL    H6137813   3.566   5.816   5.477 -0.2666  0.6653  0.8900
  157MOL    C6237814   3.430   5.636   5.121 -0.4806  0.2327 -0.1397
  157MOL    C6337815   3.281   5.672   5.095  0.1874 -0.0140  0.5134
  157MOL    C6437816   3.214   5.544   5.025  0.5410  0.0965 -0.2201
  157MOL    C6537817   3.279   5.518   4.887  0.1481  0.3604 -0.0944
  157MOL    H6637818   3.451   5.533   5.151  1.6032  0.5142 -0.5484
  157MOL    H6737819   3.479   5.651   5.025 -1.0728 -2.8840 -0.9866
  157MOL    H6837820   3.224   5.689   5.186 -1.2951 -1.5210 -0.1147
  157MOL    H6937821   3.106   5.550   5.028  0.4098 -0.6905 -2.2470
  157MOL    H7037822   3.247   5.459   5.085  1.7365  1.5001  1.1571
  157MOL    H7137823   3.276   5.609   4.828  0.1079 -0.7465 -1.8521
  157MOL    H7237824   3.385   5.490   4.892  0.2668  0.3332 -2.3197
  157MOL    H7337825   3.235   5.432   4.836  1.0214  1.3479 -2.5691
  157MOL    C7437826   3.274   5.806   5.019  1.0459  0.0698 -0.6845
  157MOL    C7537827   3.130   5.836   4.971  0.1905 -0.4962  0.0528
  157MOL    C7637828   3.127   5.904   4.832 -0.3084  0.2324 -0.1955
  157MOL    C7737829   2.987   5.908   4.772 -0.3025 -0.1169  0.2016
  157MOL    H7837830   3.337   5.809   4.930 -0.9151  4.0876 -2.0689
  157MOL    H7937831   3.308   5.874   5.097 -0.9851  2.7102 -1.9923
  157MOL    H8037832   3.075   5.744   4.953  1.3988 -1.1776 -0.2324
  157MOL    H8137833   3.181   5.838   4.764 -2.0236  0.6268 -1.9979
  157MOL    H8237834   3.179   5.999   4.835  0.9672 -0.5014  2.2309
  157MOL    H8337835   2.916   5.964   4.833  0.0039 -1.5959  1.9322
  157MOL    H8437836   2.984   5.941   4.668  0.6076 -2.6656 -0.6730
  157MOL    H8537837   2.951   5.806   4.771  0.9551 -0.5806  1.2726
  157MOL    C8637838   3.067   5.913   5.082  1.0381 -0.5962 -0.1163
  157MOL    C8737839   2.910   5.916   5.105 -0.5098 -0.1405 -0.1608
  157MOL    C8837840   2.869   6.056   5.168  0.2016  0.1935 -0.5014
  157MOL    C8937841   2.888   6.175   5.073 -1.1499  0.7677  0.8171
  157MOL    H9037842   3.114   6.011   5.076  0.3070 -0.2322  0.1139
  157MOL    H9137843   3.095   5.871   5.179 -1.6577 -2.9631 -0.3148
  157MOL    H9237844   2.855   5.902   5.011  0.2989 -1.8777 -0.3842
  157MOL    H9337845   2.923   6.076   5.260 -1.7947  2.4154  0.2390
  157MOL    H9437846   2.762   6.057   5.188  0.6255 -1.6268  2.0228
  157MOL    H9537847   2.829   6.256   5.117 -1.1403  1.4372 -0.3822
  157MOL    H9637848   2.991   6.210   5.063  0.3734 -3.3482  1.2613
  157MOL    H9737849   2.841   6.157   4.977 -0.1390  0.0130  0.4565
  157MOL    C9837850   2.865   5.800   5.193  0.1362 -0.0030  0.5838
  157MOL    C9937851   2.713   5.775   5.204 -0.2737  0.1403 -0.2072
  157MOL   C10037852   2.652   5.784   5.343  0.0657  0.9049  0.1322
  157MOL   C10137853   2.690   5.909   5.420 -0.3581 -0.4786  0.1585
  157MOL   H10237854   2.900   5.800   5.296 -1.1761  0.6666  1.0436
  157MOL   H10337855   2.913   5.710   5.156 -1.6078 -0.8137  0.2408
  157MOL   H10437856   2.665   5.847   5.138  0.3778 -0.1637 -1.0271
  157MOL   H10537857   2.667   5.697   5.407  2.0189  1.4314  0.4179
  157MOL   H10637858   2.546   5.789   5.318  0.4464  1.6476 -1.3860
  157MOL   H10737859   2.628   5.917   5.510 -0.5882 -2.5811  0.2160
  157MOL   H10837860   2.797   5.913   5.439 -0.6146 -2.5736  2.3359
  157MOL   H10937861   2.665   5.994   5.357  1.9176 -0.1665 -0.3485
  157MOL   C11037862   2.670   5.642   5.136 -0.0965  0.2823  0.2518
  157MOL   C11137863   2.648   5.651   4.987  0.4572  0.6058 -0.3895
  157MOL   C11237864   2.543   5.752   4.944 -0.3747  0.0904 -0.1769
  157MOL   C11337865   2.479   5.730   4.799  0.3271  0.2982 -0.1002
  157MOL   H11437866   2.570   5.624   5.174 -1.2091  0.5105 -2.4866
  157MOL   H11537867   2.728   5.557   5.172  0.4096  0.6972  0.4309
  157MOL   H11637868   2.744   5.680   4.943  0.7559  0.4628  0.1620
  157MOL   H11737869   2.575   5.856   4.947  0.7910 -0.3036  2.5333
  157MOL   H11837870   2.458   5.760   5.011  1.6239 -0.4649  2.4728
  157MOL   H11937871   2.412   5.814   4.781 -1.1950 -0.1450  3.0870
  157MOL   H12037872   2.547   5.731   4.714  2.6886 -2.3490  1.6545
  157MOL   H12137873   2.419   5.640   4.783 -2.8782  2.3577 -0.1032
  157MOL   C12237874   2.635   5.513   4.921 -0.8898  0.2208 -0.5828
  157MOL   C12337875   2.758   5.414   4.940  0.0470  0.3592  0.2072
  157MOL   C12437876   2.885   5.460   4.874  0.6708 -0.0804 -0.1618
  157MOL   C12537877   2.885   5.498   4.728 -0.1339  0.5536  0.1880
  157MOL   H12637878   2.613   5.525   4.815  0.5770  0.0212 -0.9158
  157MOL   H12737879   2.548   5.465   4.967  1.2039 -0.3768  2.8743
  157MOL   H12837880   2.754   5.398   5.048  0.0749 -1.8792 -0.1161
  157MOL   H12937881   2.972   5.396   4.887  1.8526  1.3406 -0.9318
  157MOL   H13037882   2.920   5.553   4.918  0.5179  0.5254 -1.3093
  157MOL   H13137883   2.870   5.403   4.677 -0.2539  1.2855 -1.1378
  157MOL   H13237884   2.798   5.559   4.704 -1.0266 -0.6848  0.2226
  157MOL   H13337885   2.982   5.536   4.697  0.9354 -0.8520  1.6901
  157MOL   C13437886   2.725   5.273   4.889  0.4656  0.4858 -0.1235
  157MOL   C13537887   2.829   5.154   4.883 -0.6096 -0.1429  1.2580
  157MOL   C13637888   2.771   5.027   4.817 -0.1262 -0.0252  0.5939
  157MOL   C13737889   2.691   5.058   4.682 -0.0710  0.0269 -0.5692
  157MOL   H13837890   2.675   5.293   4.794  0.2040  1.3575  0.1889
  157MOL   H13937891   2.643   5.236   4.949  1.7925 -0.8369  0.9163
  157MOL   H14037892   2.902   5.188   4.810 -2.6586 -0.4130 -0.9868
  157MOL   H14137893   2.695   4.985   4.883  0.3543 -0.7754  0.6710
  157MOL   H14237894   2.852   4.955   4.806  0.1379  0.6869 -2.5240
  157MOL   H14337895   2.662   4.967   4.629 -0.1442 -0.7612  0.8075
  157MOL   H14437896   2.599   5.113   4.700  1.2018  1.6708  1.1246
  157MOL   H14537897   2.744   5.109   4.601 -0.1693  0.3602 -0.4250
  157MOL   C14637898   2.898   5.126   5.023 -0.1442 -0.1991 -0.2962
  157MOL   C14737899   3.038   5.060   5.012  0.1823  0.3370 -0.2292
  157MOL   C14837900   3.085   5.029   5.165 -0.0462 -0.7728 -0.1092
  157MOL   C14937901   3.007   4.921   5.238 -0.0577 -0.3406 -0.0488
  157MOL   H15037902   2.831   5.077   5.094 -0.7746  0.4066 -0.4553
  157MOL   H15137903   2.920   5.222   5.070 -1.3175 -1.2467  2.4478
  157MOL   H15237904   3.022   4.966   4.958 -1.5864 -0.3352  1.4251
  157MOL   H15337905   3.088   5.110   5.237 -0.5917 -0.5767 -0.3042
  157MOL   H15437906   3.186   4.990   5.154 -0.2449 -0.7251 -2.3870
  157MOL   H15537907   2.904   4.943   5.266 -0.0190  1.0554 -0.9467
  157MOL   H15637908   3.009   4.829   5.179 -0.9666 -0.4258  0.0352
  157MOL   H15737909   3.063   4.910   5.330  1.1000  0.6030 -0.6314
  157MOL   C15837910   3.141   5.143   4.944 -0.3295 -0.6688  0.8048
  157MOL   C15937911   3.255   5.061   4.887  0.0253 -0.6021 -0.3603
  157MOL   C16037912   3.383   5.144   4.880  0.0058 -0.0676  0.6799
  157MOL   C16137913   3.451   5.167   5.022 -0.6893 -0.1613 -0.6119
  157MOL   H16237914   3.171   5.217   5.019  0.2685 -2.5461  2.4507
  157MOL   H16337915   3.112   5.202   4.857 -0.1508  0.5097  1.5218
  157MOL   H16437916   3.272   4.974   4.951 -0.2587  0.3307  1.0239
  157MOL   H16537917   3.371   5.238   4.827  2.1851 -0.6784 -0.9642
  157MOL   H16637918   3.460   5.106   4.813 -0.1954 -2.7245  1.8882
  157MOL   H16737919   3.506   5.080   5.058  1.2861  1.6982  0.9899
  157MOL   H16837920   3.518   5.253   5.029 -0.9537 -0.0013 -0.0725
  157MOL   H16937921   3.367   5.180   5.090  0.5401 -3.3087  1.6028
  157MOL   C17037922   3.218   5.001   4.752  0.2678  0.3313 -0.7484
  157MOL   C17137923   3.320   4.891   4.708  0.4013 -0.4638 -0.2943
  157MOL   C17237924   3.341   4.894   4.557 -0.6416 -0.3962 -0.0285
  157MOL   C17337925   3.461   4.980   4.522 -0.0158  0.5388  0.4061
  157MOL   H17437926   3.191   5.073   4.675 -0.1782  1.9248  0.8609
  157MOL   H17537927   3.122   4.950   4.764  0.4093  0.6681  2.2262
  157MOL   H17637928   3.414   4.915   4.757 -0.2703 -0.1187  0.8421
  157MOL   H17737929   3.257   4.945   4.510 -0.7280  1.3306  1.9294
  157MOL   H17837930   3.340   4.794   4.513  1.1906 -0.0544 -0.9198
  157MOL   H17937931   3.550   4.936   4.568 -0.3195 -1.4721 -0.8720
  157MOL   H18037932   3.474   4.981   4.414 -2.6247 -0.1714  0.0721
  157MOL   H18137933   3.451   5.085   4.549  0.0984  0.6586 -0.0133
  157MOL   C18237934   3.285   4.749   4.761  0.1172  0.0131  0.0225
  157MOL   C18337935   3.400   4.647   4.737  1.0302 -0.5833  0.4550
  157MOL   C18437936   3.344   4.511   4.691 -0.6560 -0.2666 -0.5590
  157MOL   C18537937   3.292   4.509   4.545 -0.7838  0.4737 -0.3847
  157MOL   H18637938   3.190   4.724   4.714 -0.9391  2.5971  0.6881
  157MOL   H18737939   3.254   4.748   4.865  0.7548  0.6989  0.2228
  157MOL   H18837940   3.466   4.683   4.658  0.3191 -0.1880  0.0430
  157MOL   H18937941   3.274   4.480   4.769  0.6910  1.6875  1.4947
  157MOL   H19037942   3.422   4.435   4.691 -0.5146 -0.1383 -2.1371
  157MOL   H19137943   3.263   4.409   4.511  0.7985  0.4352 -1.7289
  157MOL   H19237944   3.206   4.576   4.536 -1.6779 -0.4329  1.3020
  157MOL   H19337945   3.368   4.541   4.474 -0.3189 -1.6568 -0.8793
  157MOL   C19437946   3.486   4.622   4.860  0.8813  0.6353 -0.6032
  157MOL   C19537947   3.631   4.583   4.823 -0.0547 -0.3071 -0.1817
  157MOL   C19637948   3.710   4.489   4.932  0.5639 -0.1416 -0.2990
  157MOL   C19737949   3.633   4.363   4.970 -0.0261  0.1443  0.7401
  157MOL   H19837950   3.438   4.545   4.920  1.1206  0.3683 -0.7546
  157MOL   H19937951   3.498   4.703   4.932 -0.7391  1.1324 -0.8788
  157MOL   H20037952   3.626   4.515   4.738 -4.9096  2.6574 -2.4995
  157MOL   H20137953   3.734   4.547   5.021 -3.0672 -0.0826  0.7427
  157MOL   H20237954   3.804   4.462   4.886 -0.2600  0.5210 -2.4295
  157MOL   H20337955   3.599   4.319   4.877  2.4774 -1.4404  0.5162
  157MOL   H20437956   3.705   4.303   5.027  0.4224  1.2446  1.3470
  157MOL   H20537957   3.546   4.389   5.030  0.5401  0.6967  1.3280
  157MOL   C20637958   3.712   4.713   4.795  0.1927 -1.0878 -0.5965
  157MOL   C20737959   3.820   4.682   4.683 -0.4028  0.1254  0.1245
  157MOL   C20837960   3.921   4.798   4.682 -0.0519 -0.6434  0.1372
  157MOL   C20937961   4.016   4.809   4.802  0.0796  0.0836 -0.1830
  157MOL   H21037962   3.757   4.750   4.887 -0.7838 -2.9043  0.6440
  157MOL   H21137963   3.653   4.798   4.760  1.9674  0.5753  0.3551
  157MOL   H21237964   3.883   4.598   4.712  0.6960  0.9595  0.1881
  157MOL   H21337965   3.864   4.890   4.666  1.7709  0.6511  0.8722
  157MOL   H21437966   3.983   4.781   4.594  0.4350  4.0508 -0.5911
  157MOL   H21537967   3.978   4.843   4.898  1.4054  1.2298 -0.0495
  157MOL   H21637968   4.064   4.712   4.819  0.2433  0.0305 -0.9158
  157MOL   H21737969   4.100   4.868   4.766 -1.7002 -0.1776 -5.1072
  157MOL   C21837970   3.756   4.670   4.537  0.6282 -0.0638  0.0082
  157MOL   C21937971   3.838   4.630   4.404 -0.3396  0.8754  0.2395
  157MOL   C22037972   3.753   4.620   4.269  0.4338 -0.5569 -0.6522
  157MOL   C22137973   3.689   4.752   4.234 -0.9760 -0.4710  0.7836
  157MOL   H22237974   3.716   4.771   4.522 -0.5112 -0.4823  0.1528
  157MOL   H22337975   3.665   4.610   4.541 -0.0161  0.7401 -1.9594
  157MOL   H22437976   3.926   4.693   4.389 -0.1341  0.4188 -0.4913
  157MOL   H22537977   3.670   4.550   4.280 -1.5276  1.8132 -0.0660
  157MOL   H22637978   3.816   4.596   4.184  0.9587  1.6206 -0.9091
  157MOL   H22737979   3.663   4.756   4.128 -2.0151 -2.1978  0.9661
  157MOL   H22837980   3.612   4.770   4.309 -0.4465 -0.1049  1.2516
  157MOL   H22937981   3.769   4.826   4.245 -0.3335 -0.7293 -1.7894
  157MOL   C23037982   3.896   4.490   4.423  0.7828 -0.1793 -0.1262
  157MOL   C23137983   3.794   4.374   4.463 -0.0810 -0.0751 -0.3448
  157MOL   C23237984   3.871   4.260   4.520  0.0527  0.2263  0.4504
  157MOL   C23337985   3.793   4.182   4.620  0.1639 -0.4134  0.1460
  157MOL   H23437986   3.968   4.517   4.501  1.8380 -1.8829 -0.4975
  157MOL   H23537987   3.952   4.460   4.335 -0.0041 -1.0905 -0.3223
  157MOL   H23637988   3.717   4.416   4.528 -0.3676 -2.3395  0.8012
  157MOL   H23737989   3.964   4.277   4.573  0.0483 -1.3189  0.9933
  157MOL   H23837990   3.916   4.215   4.432  1.0375  0.2250  0.9523
  157MOL   H23937991   3.695   4.167   4.574 -0.0216 -0.5827  0.5891
  157MOL   H24037992   3.840   4.087   4.645  1.5698 -0.1605 -1.4499
  157MOL   H24137993   3.765   4.235   4.712  2.0456  0.9522 -0.0413
  157MOL   H24237994   3.739   4.334   4.378 -1.7276  0.3608  0.4855
  158MOL     C137995   3.824   7.333   0.671 -0.0508 -0.4164  0.0291
  158MOL     C237996   3.768   7.269   0.796 -0.1052 -0.1923  0.1576
  158MOL     C337997   3.632   7.207   0.766 -0.4459 -0.3054  0.3010
  158MOL     C437998   3.640   7.065   0.707 -0.7059  0.3054  0.3698
  158MOL     H537999   3.758   7.412   0.637 -1.0317 -0.5570  1.5696
  158MOL     H638000   3.916   7.387   0.694 -0.9521  0.6958  1.0231
  158MOL     H738001   3.827   7.183   0.827  0.1746 -0.0173  0.1127
  158MOL     H838002   3.573   7.262   0.693 -0.0903 -1.1117 -0.6073
  158MOL     H938003   3.573   7.187   0.855 -2.2471 -1.0084 -1.0022
  158MOL    H1038004   3.537   7.039   0.681 -1.2818  0.0272  2.7533
  158MOL    H1138005   3.713   7.053   0.627 -0.8861  0.4054  0.1898
  158MOL    H1238006   3.668   6.993   0.785  0.5541  0.2740 -0.1075
  158MOL    H1338007   3.829   7.253   0.597 -0.6952 -1.6065  1.2573
  158MOL    C1438008   3.759   7.370   0.914 -0.0961 -0.5345  0.1243
  158MOL    C1538009   3.901   7.397   0.985 -0.6459 -0.4058  0.0263
  158MOL    C1638010   3.970   7.269   1.045 -0.3839 -0.9189  0.2978
  158MOL    C1738011   3.882   7.199   1.147  0.0566 -0.2931  0.3755
  158MOL    H1838012   3.692   7.325   0.988 -0.3460  2.5160  1.8206
  158MOL    H1938013   3.706   7.456   0.873  0.8842 -0.4402 -0.9569
  158MOL    H2038014   3.971   7.428   0.908 -0.9409 -1.7740 -0.8180
  158MOL    H2138015   4.066   7.288   1.092 -0.4703  0.2833  0.0046
  158MOL    H2238016   3.983   7.191   0.970  0.0520 -0.2281 -0.3523
  158MOL    H2338017   3.786   7.171   1.104  1.1008 -1.5871 -1.1810
  158MOL    H2438018   3.922   7.102   1.178  0.3383  0.8624  3.8996
  158MOL    H2538019   3.869   7.255   1.240  0.0526  0.1101  0.1318
  158MOL    C2638020   3.879   7.510   1.090 -0.1078 -0.0285 -0.8039
  158MOL    C2738021   3.995   7.554   1.186  0.1342  0.2786 -0.7822
  158MOL    C2838022   3.944   7.620   1.322  0.3215 -0.8640  0.7803
  158MOL    C2938023   3.931   7.516   1.434 -0.4447 -0.2349  0.1106
  158MOL    H3038024   3.799   7.482   1.159 -1.5461  1.5560 -1.7848
  158MOL    H3138025   3.850   7.603   1.041  0.3850 -0.6384 -2.2678
  158MOL    H3238026   4.040   7.456   1.204 -0.1241  0.7430  2.6968
  158MOL    H3338027   3.845   7.665   1.308 -0.5275 -3.0279 -0.2797
  158MOL    H3438028   4.000   0.003   1.352 -2.7766  1.6699 -0.7021
  158MOL    H3538029   3.862   7.436   1.409 -0.2769 -0.1058 -0.7774
  158MOL    H3638030   4.033   7.485   1.455 -0.3035  0.1112 -0.0649
  158MOL    H3738031   3.894   7.565   1.524 -1.7633  0.9385 -1.0460
  158MOL    C3838032   4.107   7.630   1.118 -0.7861 -0.4961 -0.5626
  158MOL    C3938033   4.246   7.595   1.163 -0.8042  0.4012 -0.2764
  158MOL    C4038034   4.290   7.673   1.294  0.2626 -0.0893 -0.6928
  158MOL    C4138035   4.406   7.602   1.369 -0.5215 -0.5480 -1.1144
  158MOL    H4238036   4.104   0.033   1.125 -0.6919 -0.2844 -3.3489
  158MOL    H4338037   4.104   7.624   1.010  1.1946  0.3336 -0.6836
  158MOL    H4438038   4.251   7.490   1.194  0.6973  0.6429  0.3543
  158MOL    H4538039   4.204   7.667   1.361  0.8677  1.3743  0.2253
  158MOL    H4638040   4.308   0.074   1.281  1.5673  0.0534  1.9716
  158MOL    H4738041   4.420   7.641   1.470 -0.5550  0.0424 -1.3342
  158MOL    H4838042   4.411   7.493   1.372  5.5810 -0.4546 -0.4560
  158MOL    H4938043   4.492   7.632   1.308  0.5400 -1.7460 -0.2316
  158MOL    C5038044   4.357   7.624   1.057 -0.0393 -0.0061  0.3377
  158MOL    C5138045   4.451   7.502   1.011 -0.7976 -0.7487 -0.4592
  158MOL    C5238046   4.581   7.550   0.954 -0.7079  0.0379  0.3161
  158MOL    C5338047   4.585   7.650   0.836 -0.5362 -0.2800 -0.0293
  158MOL    H5438048   4.429   7.699   1.091 -0.9075  0.8987  0.1872
  158MOL    H5538049   4.312   7.687   0.980 -0.1383  0.7341  1.0004
  158MOL    H5638050   4.477   7.435   1.093  1.7595 -1.4504 -1.8009
  158MOL    H5738051   4.646   7.470   0.919  0.1645  0.2781  1.3388
  158MOL    H5838052   4.640   7.600   1.031 -0.0770 -0.2674  0.0299
  158MOL    H5938053   4.538   0.039   0.860 -0.4645  0.1485 -1.5603
  158MOL    H6038054   4.685   7.681   0.806 -1.9833  3.2991 -1.4183
  158MOL    H6138055   4.535   7.608   0.749  1.3034  0.9007 -1.7028
  158MOL    C6238056   4.369   7.420   0.911 -0.2111  0.0479 -0.2665
  158MOL    C6338057   4.425   7.284   0.871 -0.0498 -0.0715  0.2014
  158MOL    C6438058   4.346   7.230   0.740  0.3336 -0.8600 -0.0518
  158MOL    C6538059   4.196   7.242   0.742 -0.2719  0.0269 -0.5924
  158MOL    H6638060   4.367   7.480   0.821 -0.1729  1.5912  0.7398
  158MOL    H6738061   4.263   7.416   0.934 -0.3667 -1.9556 -1.2237
  158MOL    H6838062   4.532   7.289   0.855  0.3969 -1.1823  2.6828
  158MOL    H6938063   4.368   7.134   0.694 -0.0630 -0.8150 -0.3402
  158MOL    H7038064   4.367   7.307   0.666 -2.5999  2.6038  2.5401
  158MOL    H7138065   4.165   7.346   0.755  3.3363  0.8642  2.6262
  158MOL    H7238066   4.145   7.210   0.652 -0.2009  0.0019 -0.6232
  158MOL    H7338067   4.177   7.168   0.820  1.2451 -1.2036 -1.3561
  158MOL    C7438068   4.398   7.186   0.988  0.6950 -0.5562 -0.5596
  158MOL    C7538069   4.481   7.050   0.979 -0.1124  0.4451  0.5401
  158MOL    C7638070   4.381   6.932   0.960 -0.1318  0.1184  0.2417
  158MOL    C7738071   4.444   6.808   0.895  0.7390  0.0347  0.1109
  158MOL    H7838072   4.292   7.165   1.002  1.1924 -2.8287  0.0284
  158MOL    H7938073   4.416   7.226   1.088 -1.5115 -0.6742 -0.0855
  158MOL    H8038074   4.541   7.054   0.889 -1.5874  0.4821 -0.4667
  158MOL    H8138075   4.306   6.963   0.887  1.3329  2.2539 -0.3856
  158MOL    H8238076   4.329   6.904   1.052  0.7912 -1.6231  0.2523
  158MOL    H8338077   4.384   6.719   0.911  0.1948  0.5759  1.1679
  158MOL    H8438078   4.455   6.823   0.788 -1.3636 -1.3157 -0.3262
  158MOL    H8538079   4.544   6.781   0.929  1.4062  0.7877 -1.2289
  158MOL    C8638080   4.584   7.036   1.099 -0.1710  0.0906 -0.1819
  158MOL    C8738081   4.714   7.127   1.097 -0.3375 -0.4751 -0.1442
  158MOL    C8838082   4.805   7.098   0.975 -0.5641 -0.0279  0.0259
  158MOL    C8938083   4.875   6.959   0.970  0.0845 -0.1843 -0.3102
  158MOL    H9038084   4.627   6.936   1.096 -0.0160  0.1663 -0.5455
  158MOL    H9138085   4.528   7.050   1.192 -2.2477 -3.0410 -0.8815
  158MOL    H9238086   4.668   7.226   1.091  0.2995 -0.2733 -1.6372
  158MOL    H9338087   4.892   7.164   0.982  0.2842 -1.1745  0.4258
  158MOL    H9438088   4.758   7.111   0.878 -2.4505 -0.5637  0.8445
  158MOL    H9538089   4.941   6.936   1.054  1.9126 -1.4771 -2.0685
  158MOL    H9638090   4.807   6.876   0.951 -0.8321  0.6046 -0.5282
  158MOL    H9738091   4.930   6.956   0.876 -1.2234 -0.1951 -1.0818
  158MOL    C9838092   4.790   7.130   1.238 -0.0537  0.4026 -0.1426
  158MOL    C9938093   4.701   7.175   1.365 -0.6224 -0.1319 -0.2276
  158MOL   C10038094   4.652   7.322   1.354  0.1594 -0.2587  0.3515
  158MOL   C10138095   4.770   7.424   1.340 -0.7557 -0.9245  0.5425
  158MOL   H10238096   4.879   7.192   1.229  0.1379  0.7308  3.3261
  158MOL   H10338097   4.839   7.033   1.249 -2.8880 -1.1608 -0.9114
  158MOL   H10438098   4.614   7.113   1.384  1.1720 -2.3851  0.9956
  158MOL   H10538099   4.590   7.355   1.437 -1.7176 -0.4174 -0.9769
  158MOL   H10638100   4.583   7.339   1.272  0.9246 -0.2924 -0.2993
  158MOL   H10738101   4.716   7.517   1.318  0.4726 -0.2575  0.2964
  158MOL   H10838102   4.841   7.441   1.421 -0.5891  3.7784 -0.4163
  158MOL   H10938103   4.823   7.412   1.245 -0.1866  0.4503  0.6651
  158MOL   C11038104   4.785   7.159   1.493 -0.2102 -0.4300  0.6083
  158MOL   C11138105   4.726   7.208   1.628  0.0928  0.1700  0.3614
  158MOL   C11238106   4.847   7.189   1.724  1.0925 -0.3140 -0.9409
  158MOL   C11338107   4.829   7.215   1.879  0.6073  0.1837 -0.4920
  158MOL   H11438108   4.878   7.213   1.474  0.3383 -1.0386  1.5099
  158MOL   H11538109   4.823   7.058   1.505  2.4617  0.4770  0.0996
  158MOL   H11638110   4.697   7.312   1.619 -1.2522 -0.1877  0.3999
  158MOL   H11738111   4.920   7.266   1.700  1.4546 -0.3958 -0.1344
  158MOL   H11838112   4.895   7.091   1.716  0.2712 -0.9298  1.1419
  158MOL   H11938113   4.771   7.133   1.922 -0.0809  0.5055 -0.8118
  158MOL   H12038114   4.927   7.210   1.927  0.4436  3.7264  0.2852
  158MOL   H12138115   4.792   7.315   1.900  1.6826  0.7709 -1.3027
  158MOL   C12238116   4.594   7.126   1.660 -0.1776 -0.0576  0.2540
  158MOL   C12338117   4.454   7.204   1.667  0.1275  0.0147  0.2117
  158MOL   C12438118   4.449   7.299   1.789 -0.5198  0.9134  0.0385
  158MOL   C12538119   4.332   7.400   1.772  0.2701 -0.6451 -0.4001
  158MOL   H12638120   4.603   7.061   1.747  0.8285 -1.8892 -1.1981
  158MOL   H12738121   4.575   7.050   1.584 -1.4607  0.8214 -0.3164
  158MOL   H12838122   4.453   7.267   1.578  0.4683 -0.1570  0.0870
  158MOL   H12938123   4.544   7.351   1.801  1.9596 -3.1247 -1.0292
  158MOL   H13038124   4.434   7.240   1.880 -0.1739  2.9693  1.4772
  158MOL   H13138125   4.227   7.369   1.778 -0.3660  1.1662 -1.5631
  158MOL   H13238126   4.332   7.473   1.853  0.1509 -0.9736 -0.1003
  158MOL   H13338127   4.342   7.446   1.674 -0.1511  1.2026  0.4055
  158MOL   C13438128   4.334   7.111   1.675 -1.0279 -0.3164 -0.0123
  158MOL   C13538129   4.309   7.046   1.532  0.3479 -0.3707  0.0787
  158MOL   C13638130   4.205   7.131   1.444  0.0469  0.4128  0.8252
  158MOL   C13738131   4.212   7.108   1.300 -0.0956 -0.2814  0.1774
  158MOL   H13838132   4.249   7.173   1.703  1.1486  2.4408  0.7765
  158MOL   H13938133   4.351   7.040   1.756 -0.6801  1.0430  1.1323
  158MOL   H14038134   4.399   7.049   1.471 -0.7324  0.1379 -1.5285
  158MOL   H14138135   4.232   7.235   1.460 -0.9717  0.7226  0.5510
  158MOL   H14238136   4.104   7.103   1.473 -0.5896  0.9618 -0.7941
  158MOL   H14338137   4.153   7.190   1.260  1.5871  1.0929  0.4757
  158MOL   H14438138   4.314   7.114   1.264  0.5477 -0.4451  1.9070
  158MOL   H14538139   4.164   7.013   1.274  0.2889 -0.3244 -0.3778
  158MOL   C14638140   4.276   6.893   1.542 -0.1913  0.2684 -0.0344
  158MOL   C14738141   4.405   6.816   1.587 -0.7247 -0.5983  0.3225
  158MOL   C14838142   4.494   6.805   1.463 -0.2955 -0.0816  0.9562
  158MOL   C14938143   4.631   6.732   1.480  0.1956 -0.0370  0.1420
  158MOL   H15038144   4.239   6.841   1.454 -1.0710 -0.6647  0.8758
  158MOL   H15138145   4.190   6.886   1.609 -0.0972 -1.2290 -0.0604
  158MOL   H15238146   4.458   6.867   1.667  1.2242 -0.2133 -1.1810
  158MOL   H15338147   4.526   6.904   1.432 -1.2244  0.4810  1.7851
  158MOL   H15438148   4.438   6.761   1.381  1.6346 -0.5105 -0.1751
  158MOL   H15538149   4.628   6.625   1.498 -0.5538  0.1919  1.4601
  158MOL   H15638150   4.686   6.754   1.388 -1.0104 -2.4469 -1.2217
  158MOL   H15738151   4.683   6.769   1.568  0.8366  0.8580 -0.6096
  158MOL   C15838152   4.371   6.683   1.649  0.4212 -0.0579 -0.1747
  158MOL   C15938153   4.318   6.694   1.797  0.8690  0.5078  0.0212
  158MOL   C16038154   4.422   6.710   1.908 -0.1542 -0.7972  0.2531
  158MOL   C16138155   4.423   6.834   1.990  0.0038  0.5369 -0.2115
  158MOL   H16238156   4.456   6.615   1.646 -0.1699 -0.8387  0.5101
  158MOL   H16338157   4.298   6.638   1.581 -1.4749  3.7094 -0.7430
  158MOL   H16438158   4.247   6.776   1.806  0.5588  0.6204 -2.8514
  158MOL   H16538159   4.520   6.715   1.861 -0.4168 -2.4478 -0.5106
  158MOL   H16638160   4.435   6.625   1.975 -0.1853  0.4349  1.8631
  158MOL   H16738161   4.474   6.921   1.947  0.2165  1.7829  2.4603
  158MOL   H16838162   4.330   6.870   2.032 -0.4022  0.3498 -0.9429
  158MOL   H16938163   4.485   6.811   2.077  0.1768 -0.7176 -0.6525
  158MOL   C17038164   4.239   6.564   1.823  0.1201 -0.3094  0.5902
  158MOL   C17138165   4.154   6.566   1.946 -0.4023  0.4734 -0.2177
  158MOL   C17238166   4.131   6.421   2.002 -0.1159  0.2173 -0.2912
  158MOL   C17338167   4.262   6.341   2.044 -0.8028 -0.0104 -0.3103
  158MOL   H17438168   4.308   6.480   1.829  3.2896  2.2529  1.3305
  158MOL   H17538169   4.176   6.528   1.741 -1.2840 -0.5455  1.7611
  158MOL   H17638170   4.212   6.620   2.021  0.5824 -2.7248  1.4350
  158MOL   H17738171   4.089   6.352   1.929  0.9952 -1.2576  0.4330
  158MOL   H17838172   4.064   6.425   2.087 -0.6277  2.8470 -0.7870
  158MOL   H17938173   4.328   6.419   2.082 -0.3723 -0.1553 -0.7537
  158MOL   H18038174   4.233   6.271   2.122  1.4638  1.1797  1.6886
  158MOL   H18138175   4.311   6.292   1.960  3.0853  0.1832  1.7394
  158MOL   C18238176   4.024   6.637   1.906  0.6843 -0.1202  0.0034
  158MOL   C18338177   3.910   6.642   2.011 -0.4449  0.0060  0.0210
  158MOL   C18438178   3.955   6.690   2.153 -0.3329 -0.3520 -0.0506
  158MOL   C18538179   3.843   6.744   2.244  0.2221 -0.1334  0.5527
  158MOL   H18638180   3.983   6.588   1.818 -1.0611  0.8082  0.2687
  158MOL   H18738181   4.039   6.745   1.901 -1.0736  0.0900 -1.2542
  158MOL   H18838182   3.846   6.725   1.979 -1.9286  0.6932  4.4417
  158MOL   H18938183   4.022   6.774   2.136 -0.5067  0.5946  3.5713
  158MOL   H19038184   4.005   6.614   2.214  1.2643  1.5242  1.0492
  158MOL   H19138185   3.779   6.664   2.280  1.6982 -0.1180  3.3729
  158MOL   H19238186   3.866   6.785   2.343  1.7220 -1.8270  0.9271
  158MOL   H19338187   3.785   6.817   2.188  0.4247  0.4418  1.0864
  158MOL   C19438188   3.823   6.521   2.013  0.1265  0.4480  0.6075
  158MOL   C19538189   3.711   6.513   1.900  0.0212  0.4461 -0.2927
  158MOL   C19638190   3.583   6.460   1.971 -0.0757 -0.5797  0.2974
  158MOL   C19738191   3.441   6.474   1.905  0.1587  0.1855  0.2476
  158MOL   H19838192   3.767   6.528   2.106 -1.7336  0.3796 -0.4593
  158MOL   H19938193   3.876   6.426   2.017  2.4401  1.5235 -2.6576
  158MOL   H20038194   3.671   6.608   1.865 -0.8660 -0.2526 -1.1996
  158MOL   H20138195   3.567   6.505   2.069 -0.8872  0.6413 -0.3788
  158MOL   H20238196   3.608   6.356   1.990  3.3760  0.6267  2.8467
  158MOL   H20338197   3.363   6.415   1.952  0.1918 -0.9291 -1.0467
  158MOL   H20438198   3.402   6.575   1.916  0.2157 -0.0060  2.3520
  158MOL   H20538199   3.449   6.431   1.805 -0.2217  0.6260  0.0264
  158MOL   C20638200   3.755   6.430   1.775 -0.6143 -0.0006  0.3737
  158MOL   C20738201   3.712   6.480   1.633 -0.0565  0.3457  0.2323
  158MOL   C20838202   3.744   6.367   1.526  0.7284  0.7148  0.2638
  158MOL   C20938203   3.663   6.236   1.551 -0.6907 -1.0893  0.7844
  158MOL   H21038204   3.713   6.330   1.790  2.6287 -1.6534 -0.8429
  158MOL   H21138205   3.863   6.415   1.774 -0.6785 -0.6313  1.2160
  158MOL   H21238206   3.604   6.493   1.634 -0.3613 -2.0347 -0.3862
  158MOL   H21338207   3.849   6.340   1.531  0.1862 -1.8482 -1.3667
  158MOL   H21438208   3.727   6.407   1.426 -2.1072 -1.1903 -0.0894
  158MOL   H21538209   3.668   6.173   1.462 -2.2483 -1.4849  0.9491
  158MOL   H21638210   3.706   6.180   1.634  1.3845  0.4020  0.7444
  158MOL   H21738211   3.558   6.257   1.574 -0.6026 -0.5537  0.6962
  158MOL   C21838212   3.792   6.612   1.602  0.1307  0.2517  0.5002
  158MOL   C21938213   3.762   6.694   1.470  0.1379 -0.1043 -0.1309
  158MOL   C22038214   3.837   6.830   1.475  0.1132  0.1002 -0.2829
  158MOL   C22138215   3.829   6.908   1.343 -0.4810  0.6305 -0.2289
  158MOL   H22238216   3.900   6.597   1.612  0.1364  0.7084  1.1427
  158MOL   H22338217   3.768   6.675   1.688 -1.6764  1.1939 -0.6635
  158MOL   H22438218   3.807   6.643   1.384  0.3983  0.3343 -0.2524
  158MOL   H22538219   3.942   6.815   1.500 -0.6346 -1.2382  2.2043
  158MOL   H22638220   3.791   6.889   1.554 -0.1955 -2.2708  1.3855
  158MOL   H22738221   3.731   6.938   1.307 -0.8760 -0.7110 -0.2808
  158MOL   H22838222   3.868   7.006   1.370  0.5168  0.0420  0.5233
  158MOL   H22938223   3.887   6.868   1.260  0.4165 -0.2316  0.8020
  158MOL   C23038224   3.608   6.719   1.436 -0.3383  0.8002  0.9068
  158MOL   C23138225   3.528   6.800   1.535  0.1867 -0.1508 -0.0752
  158MOL   C23238226   3.378   6.795   1.504  0.1381 -0.6021 -0.2365
  158MOL   C23338227   3.312   6.662   1.511 -0.0306 -0.2647  0.6229
  158MOL   H23438228   3.565   6.620   1.417  1.1498  0.6792 -2.1139
  158MOL   H23538229   3.612   6.752   1.333 -0.4927  0.6876  0.8646
  158MOL   H23638230   3.536   6.759   1.636  1.2664 -0.6959 -0.3679
  158MOL   H23738231   3.355   6.843   1.408 -1.9504 -0.1236  0.4857
  158MOL   H23838232   3.328   6.856   1.578 -0.2206 -0.9835 -0.1640
  158MOL   H23938233   3.294   6.648   1.618 -1.1868 -0.2596  0.4268
  158MOL   H24038234   3.214   6.669   1.465 -0.4596 -3.7452  0.8576
  158MOL   H24138235   3.365   6.586   1.454  0.5808  1.4472 -1.1228
  158MOL   H24238236   3.558   6.904   1.529 -2.0054  0.4394 -1.1286
  159MOL     C138237   0.907   4.656   5.917  0.3987  0.3259  0.3774
  159MOL     C238238   0.807   4.581   5.841  0.8978  0.1376 -0.1580
  159MOL     C338239   0.711   4.495   5.928 -0.3039  0.4418 -0.8120
  159MOL     C438240   0.578   4.442   5.860  0.2818 -0.0176 -0.1156
  159MOL     H538241   0.872   4.730   5.989  0.6674  2.2074 -1.3792
  159MOL     H638242   0.966   4.582   5.971  3.2752  0.8581 -1.8797
  159MOL     H738243   0.746   4.657   5.793  0.9238  0.0978 -0.2559
  159MOL     H838244   0.676   4.552   6.015 -1.1023  1.9609 -2.1088
  159MOL     H938245   0.767   4.415   5.977 -1.9243  0.7101  1.5942
  159MOL    H1038246   0.606   4.367   5.785  0.1297  1.2760 -1.4745
  159MOL    H1138247   0.505   4.403   5.931  1.2060 -1.1723  0.2264
  159MOL    H1238248   0.532   4.524   5.806 -3.0485 -2.2402 -0.7781
  159MOL    H1338249   0.974   4.708   5.848 -1.5404 -1.5602 -3.0621
  159MOL    C1438250   0.870   4.501   5.729  0.2114  0.3038 -0.3080
  159MOL    C1538251   0.915   4.584   5.604  0.2170  0.2708 -0.2494
  159MOL    C1638252   0.807   4.576   5.492  0.4847 -0.0778 -0.0477
  159MOL    C1738253   0.671   4.648   5.525 -0.3251 -0.2040 -0.2814
  159MOL    H1838254   0.799   4.426   5.693  1.5331 -1.3277  0.4255
  159MOL    H1938255   0.947   4.439   5.775  2.8166  1.5430 -2.8276
  159MOL    H2038256   0.942   4.685   5.634  3.3492 -0.1966 -1.3537
  159MOL    H2138257   0.787   4.474   5.462 -0.1883  0.0623 -0.0767
  159MOL    H2238258   0.865   4.622   5.411  0.7568  1.2114  0.8654
  159MOL    H2338259   0.603   4.602   5.597 -0.6868  1.4735  0.4680
  159MOL    H2438260   0.709   4.741   5.568  0.6284  0.0667 -1.6674
  159MOL    H2538261   0.607   4.667   5.439  1.0929  2.4874 -0.7873
  159MOL    C2638262   1.055   4.529   5.559  0.1154 -0.3833 -0.0312
  159MOL    C2738263   1.181   4.572   5.645 -0.8700  0.1501 -0.6225
  159MOL    C2838264   1.209   4.721   5.615  0.0484 -0.0839 -0.9360
  159MOL    C2938265   1.236   4.759   5.471 -0.5122 -0.5213 -0.1146
  159MOL    H3038266   1.068   4.544   5.451  0.7595  1.1202  0.2387
  159MOL    H3138267   1.043   4.421   5.568  2.3159 -0.5289  1.6340
  159MOL    H3238268   1.149   4.560   5.748  1.0697 -1.7596 -0.2004
  159MOL    H3338269   1.284   4.761   5.683 -1.0232  0.1354  0.1242
  159MOL    H3438270   1.123   4.775   5.653  1.4686  1.8723 -0.4167
  159MOL    H3538271   1.145   4.740   5.413 -1.4250 -3.0759  2.0399
  159MOL    H3638272   1.251   4.867   5.462  0.0125 -0.5351  0.5995
  159MOL    H3738273   1.324   4.720   5.419 -0.4538  2.5332 -2.5037
  159MOL    C3838274   1.311   4.492   5.610 -0.5849 -0.2802 -0.2388
  159MOL    C3938275   1.433   4.522   5.712 -0.0434 -0.5587 -0.0651
  159MOL    C4038276   1.559   4.540   5.624 -0.2563  0.0130  0.5491
  159MOL    C4138277   1.609   4.430   5.529 -0.0067 -0.2165 -0.4988
  159MOL    H4238278   1.343   4.517   5.509 -1.2921  2.0793  0.0944
  159MOL    H4338279   1.277   4.388   5.613 -1.3688  0.0191  1.9229
  159MOL    H4438280   1.416   4.618   5.762 -2.9685 -0.3472 -1.3784
  159MOL    H4538281   1.638   4.573   5.691 -1.0175 -1.4291  2.1864
  159MOL    H4638282   1.540   4.627   5.561  2.7654  1.1240  1.1003
  159MOL    H4738283   1.649   4.342   5.578  2.0323  0.3926 -1.0162
  159MOL    H4838284   1.533   4.388   5.463  0.4057  0.1460 -1.2174
  159MOL    H4938285   1.689   4.473   5.468 -0.2710  1.2270  0.1370
  159MOL    C5038286   1.456   4.414   5.821 -0.0024 -0.1694  0.0909
  159MOL    C5138287   1.339   4.382   5.917 -0.7329  0.1607 -0.0168
  159MOL    C5238288   1.319   4.493   6.018  0.1629 -0.3341 -0.5258
  159MOL    C5338289   1.198   4.488   6.122 -0.6737 -0.3804  0.3066
  159MOL    H5438290   1.542   4.431   5.886  0.6926 -2.9477 -0.0583
  159MOL    H5538291   1.489   4.324   5.769 -0.0687 -0.4287  0.4997
  159MOL    H5638292   1.246   4.375   5.860  0.3601 -4.4684 -1.4741
  159MOL    H5738293   1.300   4.584   5.961 -1.0282 -0.0813  0.2457
  159MOL    H5838294   1.400   4.513   6.088  0.0224 -0.4368 -0.3313
  159MOL    H5938295   1.100   4.468   6.078 -0.4545  1.4898 -1.1062
  159MOL    H6038296   1.218   4.413   6.199  0.3969 -0.8364 -0.3978
  159MOL    H6138297   1.199   4.582   6.176  0.9546  0.1938 -0.6813
  159MOL    C6238298   1.358   4.239   5.979 -0.2339  0.4660 -0.7567
  159MOL    C6338299   1.366   4.115   5.888 -0.3088 -0.6619 -0.1068
  159MOL    C6438300   1.228   4.098   5.826 -0.9482 -0.3197 -1.1883
  159MOL    C6538301   1.199   3.987   5.725 -0.3530 -0.0849  0.6512
  159MOL    H6638302   1.281   4.215   6.053  1.4740  1.5524  1.4513
  159MOL    H6738303   1.450   4.246   6.037  0.6316 -2.2349 -1.7448
  159MOL    H6838304   1.445   4.122   5.813 -1.0349 -3.0446 -1.1601
  159MOL    H6938305   1.205   4.188   5.769 -1.1065  1.0768  1.0301
  159MOL    H7038306   1.147   4.097   5.899  0.6282  0.3930  0.6080
  159MOL    H7138307   1.249   3.988   5.628 -0.0418  0.2082  0.8148
  159MOL    H7238308   1.217   3.890   5.771  1.4244 -0.5464 -0.9492
  159MOL    H7338309   1.093   3.987   5.697 -0.1983 -0.6562  0.0438
  159MOL    C7438310   1.416   4.000   5.978 -0.2426 -0.2598  0.0427
  159MOL    C7538311   1.564   4.008   6.019 -0.3150 -0.1989  0.1825
  159MOL    C7638312   1.647   3.923   5.915  0.0545 -0.2833  0.0556
  159MOL    C7738313   1.798   3.939   5.910  0.2121  0.2133  0.3905
  159MOL    H7838314   1.404   3.912   5.916  0.5612 -0.2837 -0.0734
  159MOL    H7938315   1.352   3.999   6.067  0.6160 -1.5914  0.6578
  159MOL    H8038316   1.606   4.107   6.000  1.6223 -0.5151  2.5580
  159MOL    H8138317   1.597   3.942   5.820  1.5723  2.5353 -0.2129
  159MOL    H8238318   1.633   3.818   5.942 -1.2107  0.0756  0.8598
  159MOL    H8338319   1.831   3.972   6.008 -1.4901  0.3937  0.9229
  159MOL    H8438320   1.853   3.846   5.900 -0.8148 -0.3184 -0.4554
  159MOL    H8538321   1.834   4.014   5.840  0.1338 -1.8123 -1.9135
  159MOL    C8638322   1.580   3.973   6.162  0.4629  0.6930  0.2329
  159MOL    C8738323   1.542   4.092   6.262  0.7674 -0.1274 -0.4581
  159MOL    C8838324   1.651   4.198   6.264 -0.2847 -0.3614  0.0425
  159MOL    C8938325   1.592   4.328   6.329  0.0365 -0.4203  0.3091
  159MOL    H9038326   1.683   3.939   6.175  0.0002 -1.5621 -1.6417
  159MOL    H9138327   1.530   3.879   6.188 -3.0885  2.1811 -0.9672
  159MOL    H9238328   1.452   4.141   6.227 -1.3690 -0.8373  3.7327
  159MOL    H9338329   1.685   4.228   6.165  0.0449  3.0757  1.1410
  159MOL    H9438330   1.744   4.168   6.312 -0.2495 -2.0280 -1.0311
  159MOL    H9538331   1.551   4.328   6.430  1.0585 -0.9838  0.7300
  159MOL    H9638332   1.668   4.406   6.336 -0.6063  0.4819 -2.2914
  159MOL    H9738333   1.512   4.369   6.267 -1.1886 -2.2116  0.6588
  159MOL    C9838334   1.518   4.039   6.409 -0.3074  0.5359 -0.3450
  159MOL    C9938335   1.393   3.950   6.413  0.1789 -0.9669 -0.6619
  159MOL   C10038336   1.270   4.019   6.469 -0.1152 -0.3422 -0.2096
  159MOL   C10138337   1.230   4.138   6.382  0.1501 -0.8185 -0.0035
  159MOL   H10238338   1.500   4.130   6.467 -0.7660  0.7721 -0.8542
  159MOL   H10338339   1.611   3.999   6.450 -1.0248  0.6199  1.3819
  159MOL   H10438340   1.367   3.923   6.311  0.3341  0.1954 -1.0099
  159MOL   H10538341   1.300   4.058   6.566  0.3645  2.2032 -1.3446
  159MOL   H10638342   1.193   3.944   6.487  1.2327 -1.7144 -0.1014
  159MOL   H10738343   1.309   4.212   6.369  0.5707 -1.0621  1.1212
  159MOL   H10838344   1.189   4.116   6.284 -0.6341 -0.9136  0.3426
  159MOL   H10938345   1.160   4.195   6.444  0.0123  0.1023 -0.9953
  159MOL   C11038346   1.425   3.822   6.491 -0.2313 -0.2951 -0.0221
  159MOL   C11138347   1.321   3.710   6.500  0.5229 -0.2044  0.1981
  159MOL   C11238348   1.376   3.587   6.589 -0.4965  0.1890  0.2694
  159MOL   C11338349   1.421   3.635   6.732 -0.3548  0.3329 -0.2058
  159MOL   H11438350   1.438   3.852   6.595 -0.3588 -1.6362  0.3909
  159MOL   H11538351   1.522   3.785   6.457  1.3440  3.3512  0.2906
  159MOL   H11638352   1.237   3.742   6.562 -1.0973 -0.6887 -1.7026
  159MOL   H11738353   1.461   3.535   6.547 -1.1493  0.0556 -0.9088
  159MOL   H11838354   1.298   3.511   6.597 -0.3068  0.1159  1.5952
  159MOL   H11938355   1.462   3.547   6.782 -3.4119 -0.6033  0.7156
  159MOL   H12038356   1.507   3.700   6.718 -0.1824  0.2422  0.4098
  159MOL   H12138357   1.344   3.688   6.787 -0.2743 -0.0799  0.3127
  159MOL   C12238358   1.257   3.661   6.368 -0.6533  0.0194 -0.4136
  159MOL   C12338359   1.358   3.609   6.257  0.1767 -0.4559 -0.1708
  159MOL   C12438360   1.313   3.660   6.110  0.5611 -0.4735 -0.5789
  159MOL   C12538361   1.171   3.616   6.066  0.0746  0.0203 -0.9345
  159MOL   H12638362   1.209   3.749   6.325 -2.1903 -1.0579 -0.9516
  159MOL   H12738363   1.168   3.600   6.381 -0.1189 -0.5311  0.7741
  159MOL   H12838364   1.447   3.663   6.287 -1.1312  3.0281 -2.2735
  159MOL   H12938365   1.395   3.645   6.040  0.9326 -0.5411 -0.1275
  159MOL   H13038366   1.314   3.767   6.127  3.8570 -0.9071  2.5687
  159MOL   H13138367   1.171   3.515   6.024  0.1122  0.0458 -0.9935
  159MOL   H13238368   1.113   3.602   6.158  1.1796  0.8785 -0.0890
  159MOL   H13338369   1.135   3.680   5.986  0.9270 -2.0062 -2.9819
  159MOL   C13438370   1.355   3.456   6.266  0.4954  0.2468 -0.6538
  159MOL   C13538371   1.478   3.387   6.195 -0.3282  0.7615  0.2508
  159MOL   C13638372   1.444   3.246   6.151 -0.7084 -0.3010  0.2920
  159MOL   C13738373   1.338   3.221   6.038 -0.2496  0.1146 -0.3086
  159MOL   H13838374   1.256   3.422   6.236 -0.3629  1.8603  0.2987
  159MOL   H13938375   1.374   3.422   6.367  0.0407 -0.6190 -0.8549
  159MOL   H14038376   1.505   3.436   6.101 -0.2821 -1.3619 -0.8777
  159MOL   H14138377   1.389   3.195   6.230  0.9266 -0.7061  1.1755
  159MOL   H14238378   1.540   3.198   6.133 -0.4439  0.0123  0.8462
  159MOL   H14338379   1.317   3.119   6.005 -0.3009 -0.2148  0.7073
  159MOL   H14438380   1.242   3.268   6.056 -0.1421 -0.1474  1.0475
  159MOL   H14538381   1.378   3.276   5.953 -0.4338  2.5936  1.1392
  159MOL   C14638382   1.614   3.402   6.267 -0.2893  0.1971 -0.5238
  159MOL   C14738383   1.708   3.524   6.233  0.1175  0.5194 -0.3029
  159MOL   C14838384   1.763   3.523   6.087 -0.3273 -0.3801 -0.3579
  159MOL   C14938385   1.872   3.424   6.056  0.8741 -0.6005 -0.3806
  159MOL   H15038386   1.667   3.308   6.252 -0.9764 -0.2713 -0.0347
  159MOL   H15138387   1.606   3.400   6.375  3.2857  2.2608 -0.1443
  159MOL   H15238388   1.649   3.616   6.233  0.9278  1.0748 -2.7367
  159MOL   H15338389   1.796   3.621   6.054 -0.1335  0.3941  2.0524
  159MOL   H15438390   1.682   3.509   6.015 -1.6593  1.8200  0.6317
  159MOL   H15538391   1.970   3.471   6.069  0.1522  0.0663  3.2520
  159MOL   H15638392   1.868   3.333   6.116 -0.7559 -0.4831 -0.2976
  159MOL   H15738393   1.858   3.389   5.954  0.7717 -0.7953 -0.2999
  159MOL   C15838394   1.832   3.534   6.335  0.2111  0.5380  0.4329
  159MOL   C15938395   1.803   3.588   6.473  0.0084  0.8471 -0.5415
  159MOL   C16038396   1.811   3.744   6.478 -0.4748  0.3614 -0.1183
  159MOL   C16138397   1.950   3.806   6.449 -0.4331  0.3692 -0.6217
  159MOL   H16238398   1.903   3.604   6.292  0.0228  0.5365  0.1200
  159MOL   H16338399   1.881   3.437   6.332 -0.5391  0.1862 -1.4439
  159MOL   H16438400   1.702   3.557   6.499 -0.7083  2.2017 -1.6716
  159MOL   H16538401   1.776   3.781   6.575 -2.1260 -0.9373 -0.1835
  159MOL   H16638402   1.736   3.780   6.408  0.0923 -1.2846 -1.6153
  159MOL   H16738403   1.970   3.790   6.343 -0.9173  0.9764 -0.8012
  159MOL   H16838404   1.955   3.914   6.460  1.2033  0.3250 -0.7395
  159MOL   H16938405   2.024   3.758   6.513 -0.1393 -0.0981 -1.2930
  159MOL   C17038406   1.902   3.532   6.579 -0.5640  0.4083 -0.6394
  159MOL   C17138407   1.842   3.414   6.656  1.2278 -0.0865 -0.7279
  159MOL   C17238408   1.903   3.422   6.796 -0.0695  0.7894 -0.4170
  159MOL   C17338409   2.056   3.404   6.806  0.1078  0.0378 -0.0412
  159MOL   H17438410   1.940   3.611   6.644 -1.6517  1.5652 -1.3917
  159MOL   H17538411   1.997   3.500   6.535 -0.2413 -0.4738  0.6320
  159MOL   H17638412   1.740   3.450   6.673  1.6158  0.9024 -0.4906
  159MOL   H17738413   1.855   3.364   6.875  1.6534 -0.6426 -0.4056
  159MOL   H17838414   1.897   3.527   6.824  2.3936  1.0288 -0.7041
  159MOL   H17938415   2.112   3.496   6.787 -1.4771  0.8948 -0.6155
  159MOL   H18038416   2.096   3.380   6.904  0.5641 -0.3924 -0.3282
  159MOL   H18138417   2.099   3.319   6.753  1.4931 -0.8389  2.3984
  159MOL   C18238418   1.844   3.284   6.584 -0.0113  0.1120  0.7075
  159MOL   C18338419   1.737   3.181   6.617  0.9589 -0.0079  1.4257
  159MOL   C18438420   1.777   3.031   6.589 -0.3674 -0.0999 -0.2918
  159MOL   C18538421   1.879   2.979   6.693  0.6578  0.4311  0.0335
  159MOL   H18638422   1.940   3.232   6.591 -0.5689 -1.3943 -1.9897
  159MOL   H18738423   1.818   3.302   6.480 -1.1472 -0.9779  0.7893
  159MOL   H18838424   1.732   3.188   6.726  0.4495  0.9378  1.3509
  159MOL   H18938425   1.813   3.003   6.490 -1.2215  2.3137 -1.3297
  159MOL   H19038426   1.690   2.966   6.597  0.8775 -1.6390  1.1620
  159MOL   H19138427   1.831   2.976   6.790  1.9773  0.7143  0.7107
  159MOL   H19238428   1.908   2.876   6.672 -1.7639 -0.3911  0.6560
  159MOL   H19338429   1.969   3.041   6.690  1.3487 -0.5932 -2.6243
  159MOL   C19438430   1.603   3.204   6.546  0.3329  0.3072 -0.2187
  159MOL   C19538431   1.480   3.140   6.616 -0.0432 -0.5895 -0.2392
  159MOL   C19638432   1.364   3.137   6.516  0.6754  0.0092 -0.3810
  159MOL   C19738433   1.227   3.057   6.564 -0.1539  0.3764  0.1701
  159MOL   H19838434   1.606   3.175   6.441 -0.2468  0.3078 -0.2385
  159MOL   H19938435   1.589   3.312   6.548 -0.3009  0.2110  1.5768
  159MOL   H20038436   1.509   3.041   6.652  2.4640 -0.0143 -0.6606
  159MOL   H20138437   1.403   3.102   6.420  1.6531 -0.4142  0.1639
  159MOL   H20238438   1.329   3.239   6.495  1.1539 -0.1260 -1.9162
  159MOL   H20338439   1.152   3.047   6.486  1.7099 -0.4912 -1.5838
  159MOL   H20438440   1.259   2.957   6.593 -0.1875 -0.1715 -1.6604
  159MOL   H20538441   1.203   3.106   6.659  1.8152  2.2203 -0.2307
  159MOL   C20638442   1.445   3.212   6.753  0.2816 -1.0105  0.0446
  159MOL   C20738443   1.383   3.130   6.876 -0.1911  0.1545  0.1456
  159MOL   C20838444   1.322   3.233   6.976  0.0293 -0.0043 -1.0310
  159MOL   C20938445   1.200   3.308   6.930  0.0938 -0.5041  0.5086
  159MOL   H21038446   1.389   3.301   6.725  0.2166 -1.0060  0.1890
  159MOL   H21138447   1.540   3.256   6.784  0.3807  0.0871 -1.7504
  159MOL   H21238448   1.300   3.069   6.840  1.7272 -2.6199  0.3143
  159MOL   H21338449   1.395   3.311   7.000 -0.7494  0.2980  0.3929
  159MOL   H21438450   1.301   3.188   7.072  0.8877  0.3930 -0.6454
  159MOL   H21538451   1.113   3.243   6.933 -0.6195  0.5160  2.9124
  159MOL   H21638452   1.190   3.396   6.993 -0.0856  0.2438 -0.5598
  159MOL   H21738453   1.211   3.351   6.830  3.2395 -0.0721  0.9757
  159MOL   C21838454   1.495   3.046   6.946  1.3415  0.5896  0.1790
  159MOL   C21938455   1.460   2.902   6.931 -0.5016 -0.7583 -0.3761
  159MOL   C22038456   1.336   2.873   7.018 -0.3854 -0.3447 -0.0244
  159MOL   C22138457   1.268   2.735   6.991  0.0128  0.6873  0.0632
  159MOL   H22238458   1.518   3.072   7.050 -0.8524  1.5147  0.4420
  159MOL   H22338459   1.593   3.067   6.903  0.8184 -0.7784 -1.7553
  159MOL   H22438460   1.431   2.899   6.826  1.0480 -0.9089 -0.8157
  159MOL   H22538461   1.258   2.949   7.014 -2.3265 -2.2778  0.1921
  159MOL   H22638462   1.373   2.872   7.120  1.4420  0.7047 -0.6436
  159MOL   H22738463   1.345   2.659   7.007 -0.4854 -0.0430 -0.9361
  159MOL   H22838464   1.195   2.707   7.066  0.5810 -0.2636  0.2617
  159MOL   H22938465   1.222   2.716   6.894 -3.2527  0.3434  1.6049
  159MOL   C23038466   1.570   2.806   6.945  0.4812 -0.1325 -0.2110
  159MOL   C23138467   1.630   2.791   7.086  0.1380  0.0069  0.0217
  159MOL   C23238468   1.763   2.708   7.067  0.3921  0.2456 -0.2701
  159MOL   C23338469   1.839   2.674   7.190  0.1219 -0.1659 -0.2034
  159MOL   H23438470   1.656   2.822   6.879 -1.0182 -2.9955 -3.0288
  159MOL   H23538471   1.538   2.707   6.911  1.3026 -0.6385  0.4737
  159MOL   H23638472   1.646   2.893   7.121 -0.8778  0.6924 -1.4990
  159MOL   H23738473   1.834   2.766   7.007 -0.2351  1.3511  0.0450
  159MOL   H23838474   1.738   2.618   7.013  2.7636  0.6656 -2.1296
  159MOL   H23938475   1.936   2.634   7.160  0.4712 -0.0793  0.7754
  159MOL   H24038476   1.856   2.756   7.259  1.8409 -0.8820  0.2791
  159MOL   H24138477   1.775   2.601   7.241 -0.9454  0.4271 -0.6966
  159MOL   H24238478   1.564   2.745   7.160  0.6381  1.6327  1.5170
  160MOL     C138479   1.175   5.304   6.319 -0.5570  0.3426 -0.0580
  160MOL     C238480   1.286   5.299   6.203  0.0110 -0.4414 -0.6760
  160MOL     C338481   1.251   5.402   6.091  0.1559  0.1120  0.8632
  160MOL     C438482   1.113   5.390   6.047 -0.0234  0.4820  0.1553
  160MOL     H538483   1.221   5.272   6.412  2.5798  0.1289 -1.6282
  160MOL     H638484   1.146   5.406   6.343  0.5400  0.5041  0.5908
  160MOL     H738485   1.382   5.322   6.250  0.9450  1.0345 -3.2053
  160MOL     H838486   1.310   5.396   6.000 -0.0544 -0.1253  0.7428
  160MOL     H938487   1.270   5.505   6.124 -1.0846  0.6673 -0.0967
  160MOL    H1038488   1.106   5.300   5.987 -2.3565  0.4908  0.3791
  160MOL    H1138489   1.039   5.397   6.127  0.7402  0.8816  0.8420
  160MOL    H1238490   1.085   5.470   5.978 -1.4768  0.4520  0.6824
  160MOL    H1338491   1.087   5.249   6.285  1.2192 -1.6623 -1.5483
  160MOL    C1438492   1.299   5.155   6.159  0.1809  0.1688  0.2694
  160MOL    C1538493   1.413   5.130   6.051 -0.8113  0.2528 -0.5402
  160MOL    C1638494   1.427   4.987   6.013  0.3793  0.3375 -0.0269
  160MOL    C1738495   1.298   4.924   5.962 -0.7329  0.3550  0.5376
  160MOL    H1838496   1.209   5.123   6.107  0.2873 -0.7157  0.6081
  160MOL    H1938497   1.310   5.089   6.245  0.7372  1.5856  1.2998
  160MOL    H2038498   1.382   5.178   5.959  1.3544  4.3313  0.7206
  160MOL    H2138499   1.480   4.937   6.094  1.0516  3.4239  1.5318
  160MOL    H2238500   1.491   4.983   5.925 -0.0872 -0.2721 -0.3396
  160MOL    H2338501   1.221   4.929   6.039 -1.0189  0.0080  0.2784
  160MOL    H2438502   1.254   4.979   5.879 -1.2860 -0.6648  0.1477
  160MOL    H2538503   1.304   4.821   5.927  0.7228  0.7209 -0.3438
  160MOL    C2638504   1.548   5.190   6.084 -0.2855 -0.6210 -0.0401
  160MOL    C2738505   1.667   5.183   5.988 -0.1179  1.1351 -0.7084
  160MOL    C2838506   1.790   5.226   6.066  0.1605  0.3636  0.0001
  160MOL    C2938507   1.913   5.184   5.991 -0.3059  0.5119  0.2524
  160MOL    H3038508   1.584   5.159   6.182 -0.1193 -2.5516 -0.6935
  160MOL    H3138509   1.535   5.298   6.089  0.6804 -0.4655 -0.6735
  160MOL    H3238510   1.694   5.080   5.963 -0.5136  0.4982  1.3435
  160MOL    H3338511   1.789   5.173   6.161 -2.4115  1.3339  0.5460
  160MOL    H3438512   1.777   5.333   6.082  1.4688  0.5902 -0.3853
  160MOL    H3538513   1.896   5.077   5.983  1.4613  0.1809  0.7266
  160MOL    H3638514   1.935   5.225   5.892 -0.9962  1.4226  0.4793
  160MOL    H3738515   2.004   5.204   6.048  1.3177 -1.2804 -1.5907
  160MOL    C3838516   1.645   5.260   5.860 -0.4257  0.2584 -0.1933
  160MOL    C3938517   1.607   5.166   5.742 -0.5603  0.3666 -0.1722
  160MOL    C4038518   1.731   5.086   5.705 -0.2072 -0.3892  0.4182
  160MOL    C4138519   1.687   4.964   5.627  0.3253  0.5059 -0.3487
  160MOL    H4238520   1.733   5.315   5.826  0.8237 -1.2175  0.6172
  160MOL    H4338521   1.561   5.328   5.872 -0.9836 -0.5413  0.4532
  160MOL    H4438522   1.525   5.102   5.774 -0.2196 -0.2926 -0.5967
  160MOL    H4538523   1.787   5.045   5.790 -1.8573 -1.6587  0.9253
  160MOL    H4638524   1.802   5.145   5.648 -1.9750  1.2962 -0.0914
  160MOL    H4738525   1.782   4.914   5.606 -0.2821  0.1342 -2.2540
  160MOL    H4838526   1.610   4.902   5.674  0.3858  1.0603  0.5015
  160MOL    H4938527   1.649   4.991   5.529  2.0697  1.2117 -0.8535
  160MOL    C5038528   1.551   5.246   5.617  0.1605  0.8168  0.5765
  160MOL    C5138529   1.402   5.276   5.617  0.1941  0.1999 -0.2144
  160MOL    C5238530   1.313   5.153   5.606  0.6658 -0.1509 -0.2671
  160MOL    C5338531   1.175   5.169   5.669  0.5465  0.4503 -0.5354
  160MOL    H5438532   1.580   5.200   5.523 -2.2050  0.1425  0.1380
  160MOL    H5538533   1.609   5.337   5.608  0.7473  0.3929  0.0775
  160MOL    H5638534   1.384   5.323   5.714  3.9990 -0.3674  0.8388
  160MOL    H5738535   1.367   5.065   5.640 -0.8264 -0.6432  0.8844
  160MOL    H5838536   1.303   5.125   5.501  2.0782 -0.9265 -0.1988
  160MOL    H5938537   1.105   5.091   5.638  0.1134  1.2997 -1.7103
  160MOL    H6038538   1.153   5.156   5.775 -0.2766  0.7616 -0.6641
  160MOL    H6138539   1.129   5.265   5.650 -2.4064 -0.9588 -0.8112
  160MOL    C6238540   1.359   5.385   5.520  0.2665 -0.3994  0.0587
  160MOL    C6338541   1.410   5.529   5.546 -0.5116 -0.1153  0.2935
  160MOL    C6438542   1.363   5.591   5.677 -1.4818 -1.0841 -0.0235
  160MOL    C6538543   1.218   5.560   5.707 -0.2982 -0.2965  0.0675
  160MOL    H6638544   1.250   5.387   5.518  0.2783  0.5611 -5.3929
  160MOL    H6738545   1.383   5.349   5.420  0.9647  0.4771 -0.0915
  160MOL    H6838546   1.519   5.538   5.553 -0.3371 -1.8800  0.0506
  160MOL    H6938547   1.379   5.699   5.674  0.8016 -1.3701  0.8422
  160MOL    H7038548   1.428   5.543   5.751  1.1068  1.1114 -0.7837
  160MOL    H7138549   1.155   5.594   5.625  1.9093 -1.8387 -2.3319
  160MOL    H7238550   1.195   5.454   5.721 -3.1981  0.3105  0.2261
  160MOL    H7338551   1.181   5.607   5.798 -0.5090  0.2376 -0.2918
  160MOL    C7438552   1.366   5.615   5.420  0.5574  0.1834  0.1780
  160MOL    C7538553   1.432   5.571   5.285  0.3779 -0.5400 -0.5495
  160MOL    C7638554   1.583   5.604   5.273 -1.0621 -0.5779 -0.3656
  160MOL    C7738555   1.620   5.753   5.258 -0.8476  0.1252  0.0429
  160MOL    H7838556   1.381   5.722   5.435 -0.2489  0.2161  0.7779
  160MOL    H7938557   1.260   5.590   5.408 -0.1213  3.0873 -0.1493
  160MOL    H8038558   1.429   5.462   5.277  1.8675 -0.7182  1.0306
  160MOL    H8138559   1.639   5.556   5.193  0.2777  0.4854 -0.0834
  160MOL    H8238560   1.639   5.554   5.352 -2.2469 -0.3388  0.6566
  160MOL    H8338561   1.728   5.760   5.258 -0.8943  0.9583 -1.0476
  160MOL    H8438562   1.595   5.797   5.161 -0.2564  1.0380  0.3014
  160MOL    H8538563   1.583   5.825   5.330 -0.3255  2.2110 -1.7256
  160MOL    C8638564   1.362   5.642   5.158 -0.6900 -0.1716  0.6440
  160MOL    C8738565   1.235   5.587   5.085  0.2433  0.8268 -0.5207
  160MOL    C8838566   1.114   5.597   5.184  0.1698  0.6194  0.1120
  160MOL    C8938567   0.981   5.638   5.115  0.3865 -0.1096  0.0959
  160MOL    H9038568   1.435   5.654   5.078 -0.6352  2.6882  1.0568
  160MOL    H9138569   1.338   5.745   5.185 -0.8959  0.4233 -1.7063
  160MOL    H9238570   1.211   5.648   4.997  3.4271 -0.4599 -2.3457
  160MOL    H9338571   1.139   5.687   5.241 -0.1944  2.4935 -2.5531
  160MOL    H9438572   1.096   5.523   5.261  0.9317  1.5109  1.1694
  160MOL    H9538573   0.895   5.652   5.180 -0.2500  1.4429 -1.0681
  160MOL    H9638574   0.978   5.727   5.053 -2.4120  0.7544  1.4015
  160MOL    H9738575   0.947   5.554   5.054  1.3478 -1.2248  1.0453
  160MOL    C9838576   1.247   5.450   5.023 -0.1315 -0.0338  0.1443
  160MOL    C9938577   1.348   5.441   4.905  0.7374  0.7402 -0.5928
  160MOL   C10038578   1.271   5.445   4.768 -0.5801 -0.6462  0.3146
  160MOL   C10138579   1.199   5.576   4.744  0.7209  0.6833 -0.5498
  160MOL   H10238580   1.145   5.425   4.996 -0.1062  1.3581 -1.2513
  160MOL   H10338581   1.278   5.381   5.102 -1.0003 -0.6813 -0.0750
  160MOL   H10438582   1.417   5.526   4.901  1.3409  0.4390  2.0289
  160MOL   H10538583   1.209   5.356   4.778 -0.7476 -0.4649  0.9379
  160MOL   H10638584   1.355   5.425   4.701  0.1741  2.1682  0.3610
  160MOL   H10738585   1.112   5.574   4.810  0.9729  1.9293 -0.1626
  160MOL   H10838586   1.260   5.664   4.763  1.9979  0.5105 -3.6163
  160MOL   H10938587   1.166   5.586   4.641 -0.7533 -0.2661 -0.1879
  160MOL   C11038588   1.433   5.321   4.913 -0.2133  0.3394  0.0577
  160MOL   C11138589   1.568   5.345   4.987 -0.5414 -0.0775 -0.0769
  160MOL   C11238590   1.652   5.462   4.923  0.0072  0.1931  0.2104
  160MOL   C11338591   1.719   5.434   4.786  0.7170 -0.2785 -0.0361
  160MOL   H11438592   1.462   5.285   4.814  0.8368 -0.9459  0.8174
  160MOL   H11538593   1.372   5.239   4.951  1.1592 -1.7826 -2.1765
  160MOL   H11638594   1.537   5.382   5.085 -1.7959 -1.0771 -0.0974
  160MOL   H11738595   1.732   5.473   4.997 -0.3814  0.7833  0.5480
  160MOL   H11838596   1.605   5.560   4.922 -0.6155 -0.1008 -1.9672
  160MOL   H11938597   1.639   5.435   4.711  0.0060 -1.0108  0.6956
  160MOL   H12038598   1.784   5.520   4.770  0.2681 -0.1726 -1.3833
  160MOL   H12138599   1.772   5.339   4.784  0.5420 -0.4294  2.0592
  160MOL   C12238600   1.650   5.217   5.005  0.5787  0.0709  0.4667
  160MOL   C12338601   1.599   5.109   5.110 -0.6459 -0.0607  0.4131
  160MOL   C12438602   1.627   5.152   5.252  0.6353  0.2236 -0.0898
  160MOL   C12538603   1.775   5.176   5.291 -0.1189  0.0013  0.0258
  160MOL   H12638604   1.755   5.240   5.024  0.2222  1.3482  0.9608
  160MOL   H12738605   1.658   5.168   4.908 -0.4441  1.8036 -0.5089
  160MOL   H12838606   1.492   5.101   5.093 -0.5048  1.3937 -1.3553
  160MOL   H12938607   1.582   5.079   5.319 -0.1081  0.7603  0.0021
  160MOL   H13038608   1.568   5.241   5.271  1.2745  0.6158  0.0834
  160MOL   H13138609   1.779   5.202   5.396  0.8170  0.8361 -0.2014
  160MOL   H13238610   1.838   5.088   5.278  1.3705  0.7895  1.6489
  160MOL   H13338611   1.833   5.256   5.244  0.1526 -1.5817 -2.4152
  160MOL   C13438612   1.663   4.979   5.082  0.0910  1.0783  0.2904
  160MOL   C13538613   1.601   4.906   4.965  0.3436  0.0239  1.0799
  160MOL   C13638614   1.485   4.809   4.998  0.0727 -0.6358 -0.2834
  160MOL   C13738615   1.525   4.703   5.105 -0.4103 -0.5068 -0.1611
  160MOL   H13838616   1.659   4.921   5.174 -0.0022 -1.0278 -1.0083
  160MOL   H13938617   1.769   4.991   5.057  0.2855  0.9214  1.0090
  160MOL   H14038618   1.552   4.980   4.902  1.3515 -2.1360 -2.3961
  160MOL   H14138619   1.448   4.762   4.907 -0.0826  1.6466 -1.4337
  160MOL   H14238620   1.395   4.849   5.045  0.2324 -1.6694  0.9168
  160MOL   H14338621   1.442   4.638   5.134  0.4769 -0.7110  1.9628
  160MOL   H14438622   1.602   4.642   5.058  1.3780 -0.0138  2.0641
  160MOL   H14538623   1.580   4.746   5.188 -0.9744  0.1644 -0.1274
  160MOL   C14638624   1.701   4.834   4.875 -0.4344  0.3370  0.3787
  160MOL   C14738625   1.773   4.923   4.769  0.0020 -0.2596  0.1916
  160MOL   C14838626   1.680   4.941   4.651  0.1493  0.2765 -0.5747
  160MOL   C14938627   1.706   5.078   4.594  0.1402  0.2404  0.5927
  160MOL   H15038628   1.652   4.751   4.824 -1.7549 -0.4092  2.7829
  160MOL   H15138629   1.770   4.785   4.943  0.2760  1.3241  0.3854
  160MOL   H15238630   1.781   5.018   4.823  0.9543  0.5888 -1.4065
  160MOL   H15338631   1.576   4.921   4.674  0.0950 -0.4093 -1.3466
  160MOL   H15438632   1.705   4.874   4.568 -0.6188  0.1779 -0.7314
  160MOL   H15538633   1.677   5.083   4.489  2.5122  1.5904 -0.0314
  160MOL   H15638634   1.654   5.155   4.651  1.2855  1.3758  0.1504
  160MOL   H15738635   1.809   5.115   4.600  0.6995 -0.4007 -3.3001
  160MOL   C15838636   1.907   4.877   4.709 -0.3405 -0.0943  0.0571
  160MOL   C15938637   2.025   4.885   4.805  0.4319 -0.1638  0.1480
  160MOL   C16038638   2.074   5.028   4.810  0.5600  0.3019  0.0584
  160MOL   C16138639   2.176   5.054   4.926 -0.7633  0.4501  0.3085
  160MOL   H16238640   1.938   4.926   4.617 -1.1508  0.4269  0.0572
  160MOL   H16338641   1.897   4.772   4.681  1.5848 -0.0007 -1.0531
  160MOL   H16438642   1.993   4.858   4.906 -1.3537  0.8541 -0.1128
  160MOL   H16538643   2.002   5.104   4.840  0.9120  1.2460 -1.4205
  160MOL   H16638644   2.116   5.064   4.716 -0.4645  2.7813  0.5146
  160MOL   H16738645   2.136   5.031   5.025  0.2478 -1.4353  0.3087
  160MOL   H16838646   2.264   4.991   4.914  0.5038  1.8466  1.9731
  160MOL   H16938647   2.215   5.155   4.916 -2.0869  1.2303  2.6567
  160MOL   C17038648   2.142   4.791   4.765 -0.7743  0.5841  0.3166
  160MOL   C17138649   2.168   4.659   4.853 -0.4273 -0.0188  0.0300
  160MOL   C17238650   2.311   4.600   4.821 -0.3315  0.6126 -0.8347
  160MOL   C17338651   2.377   4.510   4.922  1.0724  0.8683  0.4959
  160MOL   H17438652   2.233   4.850   4.751  1.6088 -2.3286  2.9015
  160MOL   H17538653   2.120   4.754   4.664 -3.4408  1.8573  0.3921
  160MOL   H17638654   2.194   4.704   4.948  2.0941  0.4535 -0.8568
  160MOL   H17738655   2.377   4.685   4.810 -1.9405  1.9940 -0.0832
  160MOL   H17838656   2.310   4.542   4.728  0.3276  1.6010 -1.4669
  160MOL   H17938657   2.484   4.499   4.909  0.5021 -4.4983 -0.5365
  160MOL   H18038658   2.339   4.539   5.020 -3.2421  2.9072 -1.5954
  160MOL   H18138659   2.342   4.407   4.920  0.9435  0.8653  1.9275
  160MOL   C18238660   2.044   4.568   4.861  0.3704  0.0611 -0.1386
  160MOL   C18338661   2.025   4.495   5.001  0.9491 -0.3730 -0.2078
  160MOL   C18438662   1.923   4.379   4.971  0.0417 -0.0823 -0.3037
  160MOL   C18538663   1.995   4.260   4.915  0.0420  0.0532  0.5273
  160MOL   H18638664   2.048   4.502   4.775 -2.0734 -0.5148  0.1401
  160MOL   H18738665   1.957   4.629   4.837  0.2819 -0.1808 -0.4306
  160MOL   H18838666   2.121   4.461   5.038  1.5849  2.8350  1.3400
  160MOL   H18938667   1.827   4.399   4.923  0.2489 -3.3056 -2.1903
  160MOL   H19038668   1.899   4.348   5.073  1.3127  1.2404  0.4193
  160MOL   H19138669   2.043   4.271   4.817 -1.0425  0.0180 -0.0168
  160MOL   H19238670   2.070   4.228   4.987  2.3647  1.0303 -1.3828
  160MOL   H19338671   1.927   4.176   4.902  0.0489  0.2567 -0.9927
  160MOL   C19438672   1.962   4.594   5.112  0.0039 -0.3097 -0.0092
  160MOL   C19538673   1.996   4.561   5.258 -0.2327 -0.0423  0.2126
  160MOL   C19638674   1.905   4.648   5.354 -0.5562 -0.2126 -0.3398
  160MOL   C19738675   1.913   4.800   5.336  0.2448 -0.4705 -0.3851
  160MOL   H19838676   1.858   4.609   5.086 -0.0810  0.6857  0.8669
  160MOL   H19938677   2.007   4.689   5.082  2.2346 -1.3102  0.0114
  160MOL   H20038678   1.968   4.456   5.267 -1.2602  0.1404 -0.8471
  160MOL   H20138679   1.906   4.614   5.457 -2.4164  2.1847  0.5222
  160MOL   H20238680   1.804   4.628   5.317 -0.7969 -1.3055  0.8892
  160MOL   H20338681   1.906   4.835   5.233 -0.7159 -1.0965 -0.5477
  160MOL   H20438682   1.832   4.845   5.394  0.7959  1.5709 -1.1837
  160MOL   H20538683   1.999   4.838   5.391 -0.1527 -1.6112  1.0664
  160MOL   C20638684   2.148   4.578   5.302  0.2425 -0.3295 -1.0754
  160MOL   C20738685   2.206   4.472   5.399  0.2946 -0.1308 -0.5666
  160MOL   C20838686   2.320   4.521   5.492 -0.6553  0.2819  0.0254
  160MOL   C20938687   2.277   4.635   5.581 -0.5663  0.3753  0.0801
  160MOL   H21038688   2.153   4.678   5.343 -0.8669  0.4101 -2.6908
  160MOL   H21138689   2.222   4.577   5.222  1.7229  2.9341  0.1699
  160MOL   H21238690   2.124   4.440   5.463  0.3725 -0.1827 -0.4936
  160MOL   H21338691   2.410   4.552   5.439 -0.6678  3.3422  1.6659
  160MOL   H21438692   2.347   4.438   5.557  2.3171  0.3446 -1.0288
  160MOL   H21538693   2.344   4.667   5.661  1.3967  3.1846 -2.5871
  160MOL   H21638694   2.261   4.722   5.518 -2.2176 -1.4226 -2.0654
  160MOL   H21738695   2.180   4.614   5.627 -0.7592  3.1968  1.0710
  160MOL   C21838696   2.254   4.349   5.311 -0.4571 -0.4477 -0.0972
  160MOL   C21938697   2.313   4.227   5.387 -0.4067  0.0134  0.4883
  160MOL   C22038698   2.317   4.105   5.290 -0.2415 -0.1519  0.2092
  160MOL   C22138699   2.422   4.118   5.178  0.4077  0.2865  0.4182
  160MOL   H22238700   2.337   4.374   5.245 -0.0966  0.4444  0.6788
  160MOL   H22338701   2.172   4.322   5.244  0.7808  0.2032 -1.8990
  160MOL   H22438702   2.409   4.245   5.434 -0.2320  0.6691 -0.1240
  160MOL   H22538703   2.218   4.085   5.248  1.5278 -1.5334 -3.4002
  160MOL   H22638704   2.327   4.011   5.344 -0.0199 -0.7292 -0.8281
  160MOL   H22738705   2.519   4.149   5.219  0.4655  1.3534 -0.4988
  160MOL   H22838706   2.423   4.024   5.123  2.1497 -1.2708  3.0087
  160MOL   H22938707   2.385   4.181   5.097 -1.8679 -0.6298  0.7197
  160MOL   C23038708   2.215   4.188   5.499 -0.8245 -0.5024 -0.0284
  160MOL   C23138709   2.266   4.081   5.605 -0.0276  0.8277 -0.4093
  160MOL   C23238710   2.155   4.025   5.694  0.4193  0.3099  0.8976
  160MOL   C23338711   2.059   3.937   5.600 -0.5609 -0.8698  0.1589
  160MOL   H23438712   2.127   4.152   5.445 -0.4455 -0.1807 -0.8603
  160MOL   H23538713   2.183   4.277   5.555 -1.5470  0.0414 -1.2799
  160MOL   H23638714   2.312   3.993   5.560 -1.2485 -1.1606  2.1132
  160MOL   H23738715   2.102   4.109   5.739 -1.6780 -0.0294 -0.8529
  160MOL   H23838716   2.198   3.953   5.764  0.9219 -0.3586 -0.0903
  160MOL   H23938717   2.115   3.856   5.554  1.6042  1.3692 -1.2617
  160MOL   H24038718   1.982   3.898   5.668  1.0742  0.3072  2.7680
  160MOL   H24138719   2.011   3.986   5.515  0.2492 -2.6738 -1.3583
  160MOL   H24238720   2.339   4.133   5.666 -0.8814  1.9192 -0.2941
  161MOL     C138721   3.544   7.183   1.897 -1.0542 -0.5557 -0.6267
  161MOL     C238722   3.591   7.066   1.984  1.2581  0.7112  0.2741
  161MOL     C338723   3.470   6.997   2.047  0.1720 -0.8518 -0.6229
  161MOL     C438724   3.379   7.090   2.132  0.1098 -0.4519  0.2898
  161MOL     H538725   3.501   7.267   1.951 -0.3568 -1.0121  0.6457
  161MOL     H638726   3.623   7.212   1.826  1.3051 -0.4417  1.9649
  161MOL     H738727   3.617   6.998   1.903 -1.2211  0.0261  0.0190
  161MOL     H838728   3.509   6.914   2.107 -0.6076 -0.1657  0.8694
  161MOL     H938729   3.400   6.957   1.974 -1.9159  0.4067  0.6345
  161MOL    H1038730   3.323   7.017   2.190  0.0132  1.1047  2.1764
  161MOL    H1138731   3.425   7.173   2.186  0.3362 -0.0264 -0.5548
  161MOL    H1238732   3.324   7.151   2.060  2.1268  0.7069 -0.3226
  161MOL    H1338733   3.465   7.146   1.832 -0.5173  0.9656 -2.2080
  161MOL    C1438734   3.713   7.098   2.076  0.0779  0.1047 -1.1784
  161MOL    C1538735   3.846   7.143   2.002  0.6710  0.6620 -0.1459
  161MOL    C1638736   3.893   7.048   1.893  0.6298 -0.1983 -0.8782
  161MOL    C1738737   3.998   7.112   1.794  0.7791 -0.5199 -0.7673
  161MOL    H1838738   3.734   7.018   2.148  2.3007  3.0525  1.5929
  161MOL    H1938739   3.684   7.185   2.134  0.7863  1.2375 -2.4764
  161MOL    H2038740   3.817   7.239   1.959  0.9017  0.9548  0.3427
  161MOL    H2138741   3.808   7.011   1.836 -0.3281 -0.2519  0.5625
  161MOL    H2238742   3.937   6.964   1.947 -1.5981  1.1872  3.3958
  161MOL    H2338743   4.094   7.103   1.845 -0.3190 -2.3119  1.0633
  161MOL    H2438744   4.007   7.064   1.697  0.1552 -0.9244 -0.6296
  161MOL    H2538745   3.968   7.215   1.772  0.5109 -0.9509 -2.4629
  161MOL    C2638746   3.963   7.188   2.100  0.0953 -0.1403  0.2212
  161MOL    C2738747   3.926   7.301   2.204  0.3661  0.1553  0.2435
  161MOL    C2838748   3.865   7.430   2.145  0.1524 -0.7829 -0.8188
  161MOL    C2938749   3.944   7.484   2.028  1.0006  0.5647 -0.0139
  161MOL    H3038750   4.052   7.210   2.042 -0.7167  1.0446 -0.6143
  161MOL    H3138751   3.987   7.098   2.156  0.3019 -0.1181  0.1688
  161MOL    H3238752   3.864   7.242   2.271 -0.9351 -0.0419 -1.0927
  161MOL    H3338753   3.848   7.501   2.226 -1.9983 -3.2661  0.9838
  161MOL    H3438754   3.766   7.407   2.105  0.1653 -2.2807 -0.0264
  161MOL    H3538755   3.896   7.567   1.975 -0.9901 -0.0194  0.8375
  161MOL    H3638756   4.044   7.505   2.064  1.0423  0.6589 -0.1814
  161MOL    H3738757   3.952   7.409   1.950  0.4087  0.2823  0.1955
  161MOL    C3838758   4.049   7.331   2.295 -0.2482 -0.7250  0.2237
  161MOL    C3938759   4.131   7.222   2.364  0.0888  0.1323 -0.1640
  161MOL    C4038760   4.051   7.151   2.479  0.0951  0.2573 -0.5406
  161MOL    C4138761   4.117   7.021   2.503  0.6012 -0.7118 -0.4405
  161MOL    H4238762   4.026   7.418   2.356  0.3225  0.2114 -0.8843
  161MOL    H4338763   4.118   7.381   2.227 -1.1326  0.4046  0.1264
  161MOL    H4438764   4.160   7.148   2.290  2.3391 -0.2491  1.0600
  161MOL    H4538765   3.946   7.129   2.457 -0.3438  0.0827  1.6074
  161MOL    H4638766   4.056   7.213   2.569  0.3970  3.5247 -2.7514
  161MOL    H4738767   4.100   6.959   2.415 -0.9324 -1.1779  0.1726
  161MOL    H4838768   4.222   7.030   2.532  0.6961  0.7195 -1.1631
  161MOL    H4938769   4.064   6.990   2.593 -1.3429  1.8939 -0.6191
  161MOL    C5038770   4.263   7.293   2.411 -0.3833 -0.8139  0.4732
  161MOL    C5138771   4.387   7.267   2.308  0.6722 -0.1210  0.1330
  161MOL    C5238772   4.440   7.125   2.329  0.3423 -1.2048 -0.6710
  161MOL    C5338773   4.541   7.085   2.222 -0.1072 -0.3765 -0.3233
  161MOL    H5438774   4.287   7.258   2.512  2.5502 -0.1319  0.0598
  161MOL    H5538775   4.240   7.399   2.417 -0.6178 -0.8933  0.9910
  161MOL    H5638776   4.345   7.264   2.207 -0.1531  0.3032  0.4549
  161MOL    H5738777   4.347   7.068   2.327  0.1216 -0.9079  0.4028
  161MOL    H5838778   4.495   7.119   2.423  0.3740  0.3155 -0.5877
  161MOL    H5938779   4.511   7.114   2.122 -1.5941 -0.1503  0.1751
  161MOL    H6038780   4.643   7.121   2.236  0.3000 -1.8730  0.6680
  161MOL    H6138781   4.583   6.985   2.224 -0.1488 -0.3855  0.3989
  161MOL    C6238782   4.493   7.380   2.324  0.9428 -0.3090  0.1988
  161MOL    C6338783   4.442   7.520   2.278  0.4140  0.0236  0.3845
  161MOL    C6438784   4.416   7.518   2.130 -0.3609  0.5801 -0.2727
  161MOL    C6538785   4.328   7.638   2.092 -0.5123 -0.7885 -0.8456
  161MOL    H6638786   4.581   7.359   2.263  1.2152  1.4131 -0.0418
  161MOL    H6738787   4.518   7.388   2.429 -0.3961 -0.1442  0.5111
  161MOL    H6838788   4.350   7.553   2.326 -0.1187 -0.0149 -0.6107
  161MOL    H6938789   4.361   7.428   2.102  1.6021 -0.6825 -0.1132
  161MOL    H7038790   4.510   7.526   2.076 -0.5095 -0.8195 -0.7747
  161MOL    H7138791   4.224   7.623   2.122  0.2118  0.4699  2.4647
  161MOL    H7238792   4.359   0.013   2.158 -2.8594 -0.0723 -0.5494
  161MOL    H7338793   4.336   7.661   1.985  1.0810  1.7106 -0.2353
  161MOL    C7438794   4.549   7.631   2.312 -0.0851  0.3049  0.5129
  161MOL    C7538795   4.590   7.660   2.462  0.0735  0.6385  0.8699
  161MOL    C7638796   4.475   0.036   2.543  0.4941  0.6348  0.4113
  161MOL    C7738797   4.473   7.698   2.690 -0.1084 -0.5500  0.4391
  161MOL    H7838798   4.527   0.024   2.271 -2.1791 -0.8427 -1.2370
  161MOL    H7938799   4.638   7.600   2.257 -0.8593  3.1305 -2.4555
  161MOL    H8038800   4.612   7.568   2.517  2.3174 -0.0408 -1.0548
  161MOL    H8138801   4.381   0.030   2.488  0.8785 -1.2597 -0.0655
  161MOL    H8238802   4.489   0.144   2.539  2.9990  0.2779 -5.0931
  161MOL    H8338803   4.420   0.066   2.749  1.4072  2.6295 -2.0570
  161MOL    H8438804   4.431   7.598   2.704 -1.4198  0.1222  1.4043
  161MOL    H8538805   4.575   7.703   2.728  0.6927 -2.4918 -1.2858
  161MOL    C8638806   4.719   0.036   2.468  0.1786  0.1252  0.0699
  161MOL    C8738807   4.855   7.678   2.434 -0.3952  0.5672 -0.1923
  161MOL    C8838808   4.877   7.535   2.491 -0.3074  0.1278 -0.4972
  161MOL    C8938809   4.871   7.507   2.639  0.0096  0.0488 -0.1763
  161MOL    H9038810   4.714   0.080   2.568 -0.0188  2.0137 -0.7638
  161MOL    H9138811   4.703   0.122   2.404 -2.2631 -1.5265 -1.6292
  161MOL    H9238812   4.877   7.655   2.330 -2.1007  0.4652 -0.5361
  161MOL    H9338813   4.970   7.498   2.449 -0.3217  0.1230 -0.5242
  161MOL    H9438814   4.810   7.467   2.438 -1.3488 -0.7685  1.9040
  161MOL    H9538815   4.968   7.539   2.675  0.0484 -0.0868 -0.1609
  161MOL    H9638816   4.791   7.553   2.697 -0.3148 -0.8701  0.1193
  161MOL    H9738817   4.882   7.399   2.652 -0.7104 -0.0926 -0.6428
  161MOL    C9838818   4.975   0.063   2.475  0.7669 -0.0622  0.0051
  161MOL    C9938819   5.005   0.191   2.395 -0.1808  0.0360  0.9881
  161MOL   C10038820   5.156   0.220   2.385  0.1888  0.5277  0.2688
  161MOL   C10138821   5.213   0.163   2.257  0.3532 -0.9687  0.3824
  161MOL   H10238822   5.067   0.004   2.466  1.0631  0.5821 -1.3473
  161MOL   H10338823   4.987   0.086   2.581 -0.8533 -1.1626  0.4411
  161MOL   H10438824   4.970   0.166   2.295 -3.7736  1.0397  1.9308
  161MOL   H10538825   5.207   0.184   2.474 -2.0272 -1.0790  0.9373
  161MOL   H10638826   5.169   0.328   2.384 -2.5519  0.9171  1.5129
  161MOL   H10738827   5.221   0.054   2.257 -1.1396 -1.0834  1.5636
  161MOL   H10838828   5.154   0.188   2.169  1.7821 -0.3678 -0.4315
  161MOL   H10938829   5.311   0.205   2.233 -1.3274  2.2859 -1.0241
  161MOL   C11038830   4.932   0.312   2.460 -0.1285 -0.3069 -0.8254
  161MOL   C11138831   4.884   0.414   2.356 -0.1620 -0.2836 -0.0639
  161MOL   C11238832   4.858   0.555   2.412 -0.5588  0.3863  0.4508
  161MOL   C11338833   4.973   0.653   2.426 -0.1414 -0.0657  0.1159
  161MOL   H11438834   5.010   0.350   2.526  1.2112 -0.6753 -2.1738
  161MOL   H11538835   4.850   0.277   2.522  0.9049 -0.2073  0.6021
  161MOL   H11638836   4.963   0.434   2.284 -0.2277 -1.9187 -0.6214
  161MOL   H11738837   4.818   0.551   2.513  0.9430  0.5105  1.0567
  161MOL   H11838838   4.782   0.609   2.354 -1.0934 -0.0488  0.7381
  161MOL   H11938839   4.947   0.755   2.453  1.0637 -0.4975  3.0432
  161MOL   H12038840   5.045   0.613   2.498 -1.9483 -0.4022  1.7541
  161MOL   H12138841   5.032   0.674   2.336  0.1878 -1.5451 -0.0326
  161MOL   C12238842   4.763   0.366   2.272 -0.4861 -0.1830  0.2591
  161MOL   C12338843   4.715   0.454   2.154 -0.5506 -1.1072  0.6815
  161MOL   C12438844   4.564   0.478   2.157  0.0850  0.0505  0.4680
  161MOL   C12538845   4.486   0.346   2.171 -0.6287  0.1736  0.9779
  161MOL   H12638846   4.687   0.354   2.350 -0.7453 -3.1665 -0.4014
  161MOL   H12738847   4.772   0.263   2.239 -2.5691 -0.3551  0.1328
  161MOL   H12838848   4.754   0.556   2.158 -0.8711 -1.0091  1.3152
  161MOL   H12938849   4.545   0.509   2.054 -0.6177  1.6140  1.0443
  161MOL   H13038850   4.535   0.552   2.231 -0.8389  1.0596 -0.8828
  161MOL   H13138851   4.505   0.269   2.096 -1.8330 -0.1993  1.0413
  161MOL   H13238852   4.501   0.294   2.266 -1.6897 -1.4946  0.2437
  161MOL   H13338853   4.383   0.376   2.154 -1.0118 -2.1194 -1.1003
  161MOL   C13438854   4.768   0.390   2.022  0.0901  0.4393  0.4847
  161MOL   C13538855   4.916   0.366   2.001  0.6359  0.0329  0.3256
  161MOL   C13638856   4.996   0.495   1.998  0.4727  0.3111  0.8594
  161MOL   C13738857   5.150   0.479   2.023 -0.4566 -0.7260  0.2062
  161MOL   H13838858   4.734   0.451   1.939  0.4261  1.4474  1.0838
  161MOL   H13938859   4.721   0.292   2.014 -2.0627  1.6701 -2.5936
  161MOL   H14038860   4.951   0.312   2.089  2.3395  1.1014  0.3152
  161MOL   H14138861   4.961   0.567   2.073 -0.6130  1.3576 -0.5984
  161MOL   H14238862   4.999   0.544   1.901 -1.2635 -1.3723 -0.0697
  161MOL   H14338863   5.209   0.434   1.944  1.1211  0.2229  0.7967
  161MOL   H14438864   5.197   0.577   2.038  2.0292 -1.5968 -1.5503
  161MOL   H14538865   5.174   0.420   2.112 -0.3026 -0.4113  0.3782
  161MOL   C14638866   4.943   0.281   1.872  0.1837 -0.0945  0.1322
  161MOL   C14738867   4.901   0.128   1.884 -0.0969 -0.4951  0.2710
  161MOL   C14838868   4.944   0.051   2.016  0.5266 -0.3119  0.4420
  161MOL   C14938869   4.876   7.623   2.037 -0.0940  0.2651 -0.3581
  161MOL   H15038870   5.050   0.275   1.852 -0.2329 -3.0357 -1.4303
  161MOL   H15138871   4.895   0.320   1.783 -1.6356 -2.4748  0.0347
  161MOL   H15238872   4.795   0.107   1.893  0.0561 -0.7500  1.5354
  161MOL   H15338873   4.904   0.119   2.092 -3.3960 -0.2777 -1.5271
  161MOL   H15438874   5.052   0.051   2.026  0.5430 -1.1666  0.2706
  161MOL   H15538875   4.768   7.621   2.022 -0.2033  1.2663  0.2288
  161MOL   H15638876   4.917   7.548   1.970  1.5325  0.5559  0.2919
  161MOL   H15738877   4.887   7.574   2.134  1.2068 -1.4275 -1.3550
  161MOL   C15838878   4.944   0.054   1.758 -0.5629  0.3951  0.2685
  161MOL   C15938879   4.851   0.102   1.640 -0.3291 -0.3052 -0.0660
  161MOL   C16038880   4.766   7.675   1.618  0.2671 -0.1999  0.3891
  161MOL   C16138881   4.654   7.636   1.713  0.3451  0.4274  0.3315
  161MOL   H16238882   4.957   7.652   1.768 -0.6958  0.2085 -1.5359
  161MOL   H16338883   5.044   0.084   1.729 -0.6237 -2.7702 -3.5307
  161MOL   H16438884   4.777   0.175   1.670  0.6306  1.2411 -1.3811
  161MOL   H16538885   4.832   7.592   1.593  0.6327  0.1367  0.2392
  161MOL   H16638886   4.710   7.692   1.526 -2.0361  0.6487  1.8996
  161MOL   H16738887   4.694   7.586   1.801 -0.6566  2.6504  2.0907
  161MOL   H16838888   4.603   0.015   1.757 -0.0627 -0.2494  1.1923
  161MOL   H16938889   4.576   7.568   1.678 -0.8143  0.3099  3.0115
  161MOL   C17038890   4.925   0.155   1.508 -0.0032 -0.8287  0.2031
  161MOL   C17138891   4.830   0.202   1.396 -0.1946 -0.3130 -0.9222
  161MOL   C17238892   4.932   0.232   1.283  0.2868  0.2308  0.6134
  161MOL   C17338893   4.965   0.106   1.205 -0.2177 -0.3379  0.1445
  161MOL   H17438894   4.980   0.067   1.475  0.3976 -1.4628  2.4854
  161MOL   H17538895   5.003   0.226   1.536 -0.8782 -0.0103  0.5996
  161MOL   H17638896   4.761   0.123   1.368  0.3486 -0.5796 -1.5090
  161MOL   H17738897   5.024   0.282   1.314  1.7275 -1.1340 -1.3116
  161MOL   H17838898   4.887   0.305   1.215  1.1041 -1.0325 -1.3605
  161MOL   H17938899   4.890   0.077   1.132  0.8638 -1.1248 -0.6712
  161MOL   H18038900   5.054   0.106   1.143 -0.7145 -1.4003 -0.5711
  161MOL   H18138901   4.987   0.017   1.264 -1.1801  0.4951  1.8032
  161MOL   C18238902   4.744   0.323   1.444 -0.0584 -0.2259 -0.7870
  161MOL   C18338903   4.594   0.294   1.458  0.2340  0.5897 -0.3862
  161MOL   C18438904   4.515   0.326   1.334  0.2657 -0.1777 -0.1670
  161MOL   C18538905   4.540   0.254   1.204  0.3191  0.0626 -0.4498
  161MOL   H18638906   4.755   0.411   1.381  0.1557  2.2121  2.4735
  161MOL   H18738907   4.785   0.352   1.541  1.1475 -0.3201 -1.2550
  161MOL   H18838908   4.577   0.191   1.487  0.4237  0.4246 -0.8617
  161MOL   H18938909   4.534   0.432   1.315  1.9962 -0.3162  0.7189
  161MOL   H19038910   4.408   0.330   1.353 -0.2165 -0.5792 -2.6617
  161MOL   H19138911   4.633   0.284   1.155  1.1740  0.0410  1.1181
  161MOL   H19238912   4.568   0.153   1.234  2.1729  1.2089  1.8520
  161MOL   H19338913   4.455   0.252   1.136 -0.9484  1.7158  1.0477
  161MOL   C19438914   4.548   0.374   1.583  0.6157 -0.4737  0.0088
  161MOL   C19538915   4.399   0.344   1.632 -0.5809 -0.5381  0.9201
  161MOL   C19638916   4.379   0.394   1.779  0.0931  0.5784 -0.6208
  161MOL   C19738917   4.398   0.548   1.803 -0.3658 -0.2690  0.7600
  161MOL   H19838918   4.553   0.482   1.569 -1.0856 -0.7046 -2.9105
  161MOL   H19938919   4.614   0.351   1.666  0.3909  2.3178  1.0364
  161MOL   H20038920   4.332   0.396   1.564  1.0069 -1.0900 -1.1036
  161MOL   H20138921   4.440   0.331   1.845  0.3058  1.4250 -0.0094
  161MOL   H20238922   4.278   0.375   1.814 -0.8041  0.1994 -3.3248
  161MOL   H20338923   4.363   0.581   1.901  1.6438 -0.7154  1.6669
  161MOL   H20438924   4.497   0.588   1.779 -0.9448  1.3706  1.0883
  161MOL   H20538925   4.342   0.603   1.728  0.7643  3.3699  2.4885
  161MOL   C20638926   4.356   0.196   1.617  0.7128 -0.1860  0.6690
  161MOL   C20738927   4.209   0.155   1.657  0.4123 -0.4261  0.1446
  161MOL   C20838928   4.186   0.006   1.684  0.2511 -0.4403 -0.3906
  161MOL   C20938929   4.085   7.673   1.792  0.8340  0.1497  0.3155
  161MOL   H21038930   4.428   0.140   1.677 -0.0271 -1.8674  0.0077
  161MOL   H21138931   4.374   0.155   1.518 -0.5355 -3.0237  1.5673
  161MOL   H21238932   4.192   0.208   1.750 -1.8583 -1.2677  0.2507
  161MOL   H21338933   4.278   7.671   1.725 -0.2036  0.2644  1.3771
  161MOL   H21438934   4.170   7.654   1.593  0.8703  0.4908 -1.0991
  161MOL   H21538935   4.112   0.004   1.891  0.9954  1.9256 -0.3765
  161MOL   H21638936   3.986   0.004   1.770 -0.5574 -2.6547  1.6019
  161MOL   H21738937   4.082   7.565   1.804  0.2154  0.0136 -1.0360
  161MOL   C21838938   4.099   0.207   1.563  0.0421 -0.8990 -0.5762
  161MOL   C21938939   4.057   0.358   1.573 -0.3613  0.1831  0.0818
  161MOL   C22038940   3.943   0.382   1.669  0.2384  0.5228 -0.4103
  161MOL   C22138941   3.918   0.537   1.687  0.4785  0.1054  0.1128
  161MOL   H22238942   4.014   0.139   1.565  0.4333 -1.3405  1.9115
  161MOL   H22338943   4.129   0.192   1.459 -1.3250 -1.7369 -0.8648
  161MOL   H22438944   4.143   0.412   1.613 -1.5827  2.1761  0.0741
  161MOL   H22538945   3.973   0.345   1.767 -0.0433  2.0430  0.2711
  161MOL   H22638946   3.844   0.340   1.649 -0.0105  1.2505 -0.7641
  161MOL   H22738947   3.849   0.570   1.765  0.7067  0.3143  0.2270
  161MOL   H22838948   4.006   0.599   1.707  0.3467  0.8896 -1.6897
  161MOL   H22938949   3.876   0.580   1.596  0.2775  0.6445  0.4533
  161MOL   C23038950   4.027   0.421   1.431 -0.0807  0.2875 -0.0107
  161MOL   C23138951   3.909   0.356   1.350  0.0468  0.2322 -0.9487
  161MOL   C23238952   3.908   0.412   1.207 -0.3654  0.3579 -0.6633
  161MOL   C23338953   3.837   0.311   1.109  0.2281 -0.2541  0.2568
  161MOL   H23438954   4.119   0.410   1.373  0.3415 -0.5265  0.8080
  161MOL   H23538955   4.024   0.530   1.437  0.4946  0.4648 -2.2505
  161MOL   H23638956   3.901   0.249   1.365  1.2566  0.2026 -0.4170
  161MOL   H23738957   4.009   0.429   1.172 -0.7102  1.8350 -0.9675
  161MOL   H23838958   3.870   0.513   1.193  1.4762  0.8958 -1.9963
  161MOL   H23938959   3.845   0.343   1.006  2.2427 -0.8734  0.1815
  161MOL   H24038960   3.881   0.211   1.110  1.2596  0.1616 -1.3263
  161MOL   H24138961   3.733   0.309   1.139 -1.0760  2.9841 -3.7282
  161MOL   H24238962   3.820   0.393   1.401  2.2692  0.8007  2.7546
  162MOL     C138963   4.124   0.709   2.996 -0.1941 -0.2986  0.1182
  162MOL     C238964   4.049   0.845   3.004  0.1507 -0.1075 -0.3595
  162MOL     C338965   4.133   0.946   3.091  0.0583  0.7521 -0.0452
  162MOL     C438966   4.254   0.997   3.010 -0.1138  0.0445  0.2096
  162MOL     H538967   4.069   0.628   2.949 -2.6416  2.3424 -1.8076
  162MOL     H638968   4.222   0.723   2.951  1.3445 -0.0613  3.4141
  162MOL     H738969   4.030   0.887   2.904  0.9793 -0.8075 -0.8143
  162MOL     H838970   4.169   0.900   3.183  1.2565  0.9010 -0.4336
  162MOL     H938971   4.064   1.027   3.115  0.3685  2.2669 -3.9899
  162MOL    H1038972   4.321   1.049   3.078  2.2472  0.9368 -2.7094
  162MOL    H1138973   4.313   0.920   2.961 -2.8854 -1.7411 -0.4275
  162MOL    H1238974   4.228   1.068   2.931 -1.2766 -0.5430  0.0533
  162MOL    H1338975   4.135   0.680   3.100 -1.2917 -0.5768  0.1623
  162MOL    C1438976   3.907   0.823   3.067 -0.1501 -0.1550  0.2238
  162MOL    C1538977   3.802   0.741   2.982  0.4041 -0.1250 -0.1444
  162MOL    C1638978   3.770   0.807   2.847  0.3764  0.0952 -0.5626
  162MOL    C1738979   3.689   0.729   2.751  0.0151 -0.0752 -0.4461
  162MOL    H1838980   3.872   0.925   3.082  0.0096 -0.2124  1.0457
  162MOL    H1938981   3.905   0.775   3.165 -1.3722 -0.1985  0.1807
  162MOL    H2038982   3.843   0.643   2.961  1.0781  0.2186 -0.4319
  162MOL    H2138983   3.861   0.840   2.797  1.7972 -0.0209  1.8732
  162MOL    H2238984   3.710   0.897   2.864 -0.5216 -0.2327 -1.8806
  162MOL    H2338985   3.582   0.738   2.772  0.2675  0.4096  0.6346
  162MOL    H2438986   3.698   0.756   2.646 -0.8897  1.5732 -0.1085
  162MOL    H2538987   3.719   0.624   2.754  0.8454  0.1955  0.5078
  162MOL    C2638988   3.677   0.720   3.068 -0.3089 -0.4181 -0.0561
  162MOL    C2738989   3.672   0.583   3.137 -0.2866 -0.0087  0.0095
  162MOL    C2838990   3.615   0.487   3.033  0.0748 -0.2858  0.3110
  162MOL    C2938991   3.595   0.339   3.079 -0.4840 -0.3651 -0.5877
  162MOL    H3038992   3.589   0.740   3.007  0.0462 -1.8430 -1.0677
  162MOL    H3138993   3.678   0.806   3.135  1.4165  0.0813 -0.7107
  162MOL    H3238994   3.766   0.549   3.180 -0.7354  1.4819  2.2536
  162MOL    H3338995   3.669   0.506   2.940 -0.0597  0.0389  0.2992
  162MOL    H3438996   3.514   0.524   3.015  0.8726  2.2209  0.7947
  162MOL    H3538997   3.681   0.301   3.134 -0.5539 -1.5264 -1.2619
  162MOL    H3638998   3.514   0.324   3.151 -0.4805  0.4295 -0.4116
  162MOL    H3738999   3.587   0.276   2.991  2.1062  1.9308 -2.5362
  162MOL    C3839000   3.587   0.596   3.271 -0.4079 -0.5002 -0.1159
  162MOL    C3939001   3.677   0.623   3.400  0.1867  0.7813 -0.3252
  162MOL    C4039002   3.748   0.501   3.463 -0.0234  0.5153  0.4006
  162MOL    C4139003   3.656   0.393   3.510  0.0536 -0.3738  0.2622
  162MOL    H4239004   3.539   0.502   3.301  1.3944 -0.4284  3.1538
  162MOL    H4339005   3.499   0.656   3.249 -2.8302 -3.6981  0.3523
  162MOL    H4439006   3.763   0.685   3.373  0.5813  0.1981 -0.4381
  162MOL    H4539007   3.812   0.528   3.547 -0.1948 -2.0519  1.3853
  162MOL    H4639008   3.820   0.472   3.387 -1.0611  0.1906 -0.4743
  162MOL    H4739009   3.709   0.310   3.557 -0.2566  0.7846  2.7071
  162MOL    H4839010   3.584   0.437   3.578 -1.7599 -0.8409 -1.3113
  162MOL    H4939011   3.602   0.350   3.425 -2.0699  0.8978  0.9206
  162MOL    C5039012   3.590   0.690   3.502  0.3718 -0.0494  0.4941
  162MOL    C5139013   3.553   0.835   3.480  1.0349 -0.1517 -0.3422
  162MOL    C5239014   3.663   0.941   3.499 -0.1124 -0.8100  0.0843
  162MOL    C5339015   3.702   0.955   3.647 -0.2911 -0.0179 -0.1398
  162MOL    H5439016   3.641   0.688   3.598  2.1241 -0.3564 -0.4320
  162MOL    H5539017   3.497   0.633   3.508  0.4484 -0.3106 -0.7344
  162MOL    H5639018   3.535   0.846   3.373  1.3682  3.4894 -0.0900
  162MOL    H5739019   3.621   1.034   3.458  0.2974 -1.3369 -1.5397
  162MOL    H5839020   3.747   0.908   3.438 -0.3944 -1.5481  0.0944
  162MOL    H5939021   3.768   1.041   3.638  0.9143 -0.7677  1.2924
  162MOL    H6039022   3.614   0.973   3.710  0.2969 -3.3212  1.7424
  162MOL    H6139023   3.754   0.872   3.694  0.4572  0.9701  0.8081
  162MOL    C6239024   3.421   0.875   3.546  0.4745 -0.0030  0.1402
  162MOL    C6339025   3.306   0.839   3.446 -0.5032  0.4114 -0.4981
  162MOL    C6439026   3.235   0.970   3.399 -0.1521 -0.3429 -0.0106
  162MOL    C6539027   3.322   1.047   3.296 -0.7568 -0.5099  0.0746
  162MOL    H6639028   3.420   0.982   3.566 -1.4044  0.1688 -0.7975
  162MOL    H6739029   3.414   0.826   3.643  3.2299 -2.5177 -0.8308
  162MOL    H6839030   3.336   0.778   3.361 -2.1417 -0.7904 -0.2377
  162MOL    H6939031   3.206   1.047   3.470  0.1165  1.7653 -2.0976
  162MOL    H7039032   3.142   0.949   3.346  0.1403 -0.2811 -0.5542
  162MOL    H7139033   3.268   1.125   3.245  1.2902 -0.5614 -2.2520
  162MOL    H7239034   3.407   1.092   3.347  0.0347 -1.4503 -0.4055
  162MOL    H7339035   3.359   0.978   3.220  0.4484 -0.9590  1.0443
  162MOL    C7439036   3.206   0.738   3.521 -0.0720  0.2173  0.0686
  162MOL    C7539037   3.105   0.666   3.428  0.5670 -0.3667  0.1776
  162MOL    C7639038   2.977   0.625   3.503 -1.0194  0.3702  0.6868
  162MOL    C7739039   2.887   0.735   3.551  0.2866 -0.3069 -0.0876
  162MOL    H7839040   3.157   0.785   3.606 -1.6237 -0.3472 -0.5003
  162MOL    H7939041   3.270   0.663   3.568 -1.8151 -1.4713 -0.1640
  162MOL    H8039042   3.075   0.735   3.349  0.1067 -0.1019  0.5809
  162MOL    H8139043   2.993   0.551   3.582  0.7618 -0.6075 -0.5610
  162MOL    H8239044   2.927   0.567   3.425  1.2723 -0.4731 -0.1928
  162MOL    H8339045   2.890   0.822   3.485 -1.6235  0.5005  0.8475
  162MOL    H8439046   2.783   0.704   3.549  0.6006 -1.3347 -0.7276
  162MOL    H8539047   2.921   0.763   3.651  5.4334 -2.6705 -0.9905
  162MOL    C8639048   3.173   0.544   3.354 -0.1405 -0.1250  0.1868
  162MOL    C8739049   3.095   0.498   3.231 -0.3275 -0.2154  0.2821
  162MOL    C8839050   3.086   0.339   3.216 -0.1678  0.8982  0.6724
  162MOL    C8939051   2.998   0.275   3.325 -0.0592  0.0811  0.9643
  162MOL    H9039052   3.168   0.460   3.424  3.7723 -0.0333  0.6945
  162MOL    H9139053   3.279   0.558   3.331  0.0831 -2.1843 -0.1685
  162MOL    H9239054   2.993   0.537   3.241 -0.1625 -0.1664  1.9518
  162MOL    H9339055   3.190   0.304   3.214 -0.4981 -0.4383  3.6145
  162MOL    H9439056   3.056   0.305   3.117 -0.0715  1.2835  0.5109
  162MOL    H9539057   3.011   0.309   3.428  0.1274  3.6060 -0.1593
  162MOL    H9639058   2.895   0.306   3.309  0.0280  0.3410  0.9047
  162MOL    H9739059   3.014   0.167   3.328 -1.8328 -0.1745  2.8336
  162MOL    C9839060   3.149   0.548   3.101 -0.3804  0.1215 -0.0979
  162MOL    C9939061   3.150   0.699   3.063  0.4728  0.4762 -0.3432
  162MOL   C10039062   3.005   0.741   3.044 -0.2774  0.7090 -0.7773
  162MOL   C10139063   2.975   0.890   3.008  0.0689 -0.0835 -0.5605
  162MOL   H10239064   3.092   0.507   3.018 -0.6375  0.4665 -0.0937
  162MOL   H10339065   3.244   0.500   3.078  0.7661  3.2297 -2.0694
  162MOL   H10439066   3.191   0.754   3.147  1.8344  0.7499 -1.1604
  162MOL   H10539067   2.965   0.729   3.145 -0.3714 -2.1179 -1.0856
  162MOL   H10639068   2.950   0.668   2.984 -0.2609  0.0648 -0.0120
  162MOL   H10739069   3.066   0.948   3.009  0.0750 -0.0419 -2.7094
  162MOL   H10839070   2.945   0.900   2.904  0.2305  1.3117 -0.4824
  162MOL   H10939071   2.895   0.935   3.067  2.4947 -1.2618  3.8394
  162MOL   C11039072   3.242   0.722   2.943  0.0945 -0.4065  0.1765
  162MOL   C11139073   3.190   0.725   2.795  0.0002 -0.5681  0.3516
  162MOL   C11239074   3.119   0.588   2.756  0.2810  0.2132  0.0835
  162MOL   C11339075   3.208   0.459   2.761 -0.0944  1.2164  0.3646
  162MOL   H11439076   3.325   0.652   2.941 -0.2717 -0.8262 -2.8545
  162MOL   H11539077   3.289   0.819   2.961 -0.1677  0.2883 -2.6558
  162MOL   H11639078   3.107   0.795   2.795 -0.6601 -1.2685  3.1395
  162MOL   H11739079   3.078   0.593   2.655 -1.7304 -1.8457  0.7413
  162MOL   H11839080   3.030   0.578   2.818  0.4146  0.3510  0.2990
  162MOL   H11939081   3.248   0.443   2.861 -1.1463 -0.5409  0.5394
  162MOL   H12039082   3.157   0.364   2.743 -1.8117  2.5891 -2.3609
  162MOL   H12139083   3.295   0.466   2.697  0.1949 -0.2339  0.5786
  162MOL   C12239084   3.307   0.751   2.695 -0.4834  0.1998  0.8112
  162MOL   C12339085   3.280   0.773   2.547  0.0578 -0.3750  0.0519
  162MOL   C12439086   3.413   0.774   2.469  0.5321 -0.4901  0.0252
  162MOL   C12539087   3.482   0.638   2.460 -0.3046  0.3557  0.8243
  162MOL   H12639088   3.366   0.659   2.697  0.3090  0.6612 -0.7474
  162MOL   H12739089   3.384   0.825   2.716 -0.0893  0.3697 -1.1983
  162MOL   H12839090   3.211   0.700   2.505 -2.6697  0.7225  2.3890
  162MOL   H12939091   3.481   0.847   2.514 -0.7885  0.3321  0.7259
  162MOL   H13039092   3.398   0.804   2.365  2.3426 -1.3395 -0.5018
  162MOL   H13139093   3.512   0.608   2.561 -0.6819 -4.1481 -0.3270
  162MOL   H13239094   3.422   0.561   2.412 -1.0720  0.5145  1.4981
  162MOL   H13339095   3.577   0.648   2.409  0.1318 -0.5662  1.4461
  162MOL   C13439096   3.198   0.903   2.535  0.7351  0.0674  0.8327
  162MOL   C13539097   3.115   0.932   2.405  0.0293  0.0370  0.2227
  162MOL   C13639098   3.079   1.085   2.385  0.0796  0.2890 -1.0278
  162MOL   C13739099   3.001   1.165   2.486  0.2836 -0.1956 -0.1373
  162MOL   H13839100   3.260   0.992   2.546 -1.0060  1.3814  0.2772
  162MOL   H13939101   3.126   0.917   2.615  0.1838  1.6732  0.0816
  162MOL   H14039102   3.189   0.909   2.329  1.1782  1.5910  0.8276
  162MOL   H14139103   3.037   1.098   2.285 -1.3702  0.8401 -0.3612
  162MOL   H14239104   3.173   1.140   2.376  1.0184 -1.2419 -0.8893
  162MOL   H14339105   2.895   1.145   2.475  0.5367 -1.1735 -0.8399
  162MOL   H14439106   3.024   1.138   2.590 -0.6133 -0.1503  0.0766
  162MOL   H14539107   3.028   1.270   2.481  0.3238 -0.2145 -0.2988
  162MOL   C14639108   2.978   0.841   2.397 -0.4307  0.1274  0.3377
  162MOL   C14739109   2.963   0.751   2.268 -0.3363  0.6037  0.2372
  162MOL   C14839110   2.949   0.827   2.135 -0.3115  0.1545  0.6439
  162MOL   C14939111   2.824   0.915   2.124 -0.5867  0.2714 -0.3949
  162MOL   H15039112   2.901   0.919   2.400 -0.5865  0.1799 -2.9884
  162MOL   H15139113   2.975   0.793   2.495  0.4679  1.6747  1.1441
  162MOL   H15239114   3.060   0.701   2.271 -1.0556 -0.8036  0.3902
  162MOL   H15339115   2.954   0.757   2.052 -0.5479  1.5778 -0.5886
  162MOL   H15439116   3.035   0.893   2.136 -1.4331  1.6802 -0.2696
  162MOL   H15539117   2.732   0.856   2.133 -1.2999  1.2540 -1.0972
  162MOL   H15639118   2.825   0.984   2.209  0.0606 -0.3322  0.0935
  162MOL   H15739119   2.816   0.967   2.029 -1.8041  1.5666  0.3832
  162MOL   C15839120   2.852   0.646   2.275  0.1216 -0.0786 -1.1295
  162MOL   C15939121   2.883   0.520   2.363  0.5478 -0.0066  0.1714
  162MOL   C16039122   2.998   0.439   2.295  0.4455  0.4636  0.3291
  162MOL   C16139123   3.084   0.369   2.397 -0.3846 -0.1003  0.0704
  162MOL   H16239124   2.834   0.606   2.175 -1.5402 -2.1642 -0.0479
  162MOL   H16339125   2.749   0.675   2.295 -1.5770 -2.9039 -5.1230
  162MOL   H16439126   2.927   0.541   2.460  0.8813 -0.0713  0.0354
  162MOL   H16539127   3.066   0.502   2.238 -0.8961  0.7147 -1.0371
  162MOL   H16639128   2.956   0.367   2.224  1.3973  0.0504  0.1882
  162MOL   H16739129   3.148   0.303   2.338 -2.2872 -1.7451 -0.2094
  162MOL   H16839130   3.153   0.441   2.440  1.5126 -1.2849 -0.9181
  162MOL   H16939131   3.028   0.323   2.479 -1.1373 -0.3338 -0.5656
  162MOL   C17039132   2.759   0.434   2.401  0.4711 -0.0394 -0.4619
  162MOL   C17139133   2.641   0.503   2.476 -0.1698  0.0752 -0.6335
  162MOL   C17239134   2.690   0.574   2.606  0.4525  0.1405  0.7561
  162MOL   C17339135   2.762   0.481   2.710 -0.0266  0.1995 -0.4396
  162MOL   H17439136   2.794   0.350   2.459  0.1887 -1.2032 -1.9376
  162MOL   H17539137   2.710   0.394   2.312 -1.6185  1.8411 -0.2117
  162MOL   H17639138   2.587   0.571   2.410 -0.8652 -0.3952 -0.5525
  162MOL   H17739139   2.614   0.635   2.654 -0.6197 -1.0610  0.6030
  162MOL   H17839140   2.759   0.656   2.585  1.7655 -1.0273  0.3543
  162MOL   H17939141   2.797   0.540   2.795 -1.0689 -1.7458  1.3862
  162MOL   H18039142   2.691   0.410   2.752  0.8422  0.4279  1.4755
  162MOL   H18139143   2.844   0.428   2.661  0.9798  0.8608  0.4974
  162MOL   C18239144   2.522   0.402   2.506 -0.3295 -0.6432  0.5821
  162MOL   C18339145   2.397   0.465   2.578 -0.0928 -0.6902 -0.1625
  162MOL   C18439146   2.319   0.359   2.659  0.1578  0.2365 -0.3779
  162MOL   C18539147   2.372   0.346   2.803 -0.2095  0.0191  0.2226
  162MOL   H18639148   2.563   0.331   2.578 -1.2497 -2.8485 -1.0371
  162MOL   H18739149   2.507   0.355   2.409 -3.4047 -0.7701  1.0625
  162MOL   H18839150   2.429   0.527   2.662 -0.7294  0.7205 -0.9384
  162MOL   H18939151   2.297   0.269   2.603  3.4011  0.9325 -2.9307
  162MOL   H19039152   2.222   0.406   2.670  0.5170  0.5139  1.7953
  162MOL   H19139153   2.303   0.297   2.870 -0.8727  0.8497  0.1629
  162MOL   H19239154   2.474   0.309   2.802 -0.6981 -1.3401 -1.6685
  162MOL   H19339155   2.373   0.445   2.849  0.2875  0.2276 -0.2285
  162MOL   C19439156   2.313   0.548   2.474 -0.2421 -0.1997 -0.3591
  162MOL   C19539157   2.296   0.692   2.522  0.5139  0.5753  0.0968
  162MOL   C19639158   2.194   0.696   2.639  0.0974 -0.5806 -0.4260
  162MOL   C19739159   2.202   0.821   2.722  0.6988  0.5831  0.3106
  162MOL   H19839160   2.215   0.504   2.458  0.4169 -0.8133 -3.0091
  162MOL   H19939161   2.357   0.569   2.376  0.8830 -0.1770  0.1491
  162MOL   H20039162   2.394   0.722   2.560  0.9168  0.8450 -1.1322
  162MOL   H20139163   2.199   0.604   2.696  1.2102  0.4724  1.2197
  162MOL   H20239164   2.095   0.699   2.593 -0.4250  0.3488  0.7135
  162MOL   H20339165   2.133   0.818   2.806  0.0819  1.0660 -0.1721
  162MOL   H20439166   2.296   0.838   2.774  0.2257  1.8095  0.7732
  162MOL   H20539167   2.187   0.914   2.668  0.9990 -0.5465 -1.7996
  162MOL   C20639168   2.254   0.783   2.408  0.0554  0.0777  0.4160
  162MOL   C20739169   2.363   0.832   2.307 -0.6997  0.5980  0.7152
  162MOL   C20839170   2.402   0.978   2.346  0.8453  0.6874  0.0557
  162MOL   C20939171   2.529   1.031   2.277 -0.0907 -0.2331  0.0090
  162MOL   H21039172   2.206   0.872   2.448  2.0290  1.7068 -0.7409
  162MOL   H21139173   2.173   0.733   2.356 -0.5536  0.8085  0.6642
  162MOL   H21239174   2.455   0.772   2.309  0.2228  1.9505 -0.5312
  162MOL   H21339175   2.425   0.967   2.452  1.2613  0.4297 -0.0631
  162MOL   H21439176   2.316   1.045   2.347  1.0403  0.9750  2.5783
  162MOL   H21539177   2.615   0.973   2.310 -0.1949  0.2364  1.1122
  162MOL   H21639178   2.520   1.035   2.168  1.6816  1.2313 -0.1160
  162MOL   H21739179   2.552   1.131   2.314 -1.6872 -0.4954  1.7716
  162MOL   C21839180   2.303   0.829   2.165  0.6986  0.3655  0.7189
  162MOL   C21939181   2.324   0.708   2.073  0.9183  0.5589 -0.0014
  162MOL   C22039182   2.243   0.587   2.103 -0.0464 -0.2873  0.1678
  162MOL   C22139183   2.217   0.505   1.982  0.3961  0.1315  0.2120
  162MOL   H22239184   2.349   0.916   2.119 -0.3330  0.5357 -0.0151
  162MOL   H22339185   2.196   0.848   2.171  0.7323  0.8036 -0.0328
  162MOL   H22439186   2.285   0.754   1.982  2.4467  0.7915 -0.5620
  162MOL   H22539187   2.142   0.612   2.133 -0.7775  0.6455 -2.9236
  162MOL   H22639188   2.296   0.524   2.175 -0.7921 -0.9097  0.1710
  162MOL   H22739189   2.148   0.424   2.005 -1.1651  0.3949 -3.1080
  162MOL   H22839190   2.176   0.548   1.890  1.3406 -0.0843 -0.3208
  162MOL   H22939191   2.307   0.458   1.942  0.4130 -0.1593  0.5951
  162MOL   C23039192   2.477   0.672   2.061 -0.6052  0.1489  0.1342
  162MOL   C23139193   2.530   0.644   1.916 -0.1332 -0.2851 -0.2134
  162MOL   C23239194   2.509   0.759   1.819  0.2014 -0.0708  0.0924
  162MOL   C23339195   2.604   0.878   1.839 -0.0286 -0.1929  0.2812
  162MOL   H23439196   2.502   0.584   2.121 -0.2092 -0.6162 -1.1440
  162MOL   H23539197   2.545   0.752   2.093  1.3500 -1.3834 -0.1049
  162MOL   H23639198   2.635   0.613   1.921 -0.7124 -2.0646  1.4769
  162MOL   H23739199   2.408   0.799   1.831 -0.4384 -1.6655  0.1898
  162MOL   H23839200   2.512   0.716   1.719 -2.3581 -0.7837  0.2742
  162MOL   H23939201   2.706   0.854   1.868  0.1082  0.8451  0.6761
  162MOL   H24039202   2.610   0.936   1.748  3.6287 -0.5224  0.2663
  162MOL   H24139203   2.570   0.945   1.918  0.6898 -0.0161  0.4449
  162MOL   H24239204   2.485   0.554   1.874 -0.8796 -0.7831  1.6307
  163MOL     C139205   6.881   4.625   2.303 -0.0441 -0.2322  0.1412
  163MOL     C239206   6.856   4.563   2.447 -0.0708  0.2255  0.4911
  163MOL     C339207   6.944   4.439   2.464 -0.2608  0.0258  0.0479
  163MOL     C439208   6.941   4.388   2.604  0.4412 -0.0025 -0.3437
  163MOL     H539209   6.852   4.729   2.290  1.6991  0.3923  1.0568
  163MOL     H639210   6.989   4.623   2.287 -0.4681  0.8386 -3.0268
  163MOL     H739211   6.894   4.638   2.517 -1.5840  0.3209  1.2266
  163MOL     H839212   7.048   4.454   2.432 -0.6767  0.4601 -1.1437
  163MOL     H939213   6.907   4.363   2.395  1.0504 -0.8297  0.2518
  163MOL    H1039214   6.848   4.333   2.618 -0.4557  1.1202 -1.8084
  163MOL    H1139215   7.011   4.311   2.638 -0.2024 -0.6539 -0.4800
  163MOL    H1239216   6.943   4.473   2.672 -0.0488 -0.0630 -0.2488
  163MOL    H1339217   6.838   4.564   2.224 -0.9987  0.9716 -0.2836
  163MOL    C1439218   6.705   4.540   2.471  0.6488 -0.0133  0.3689
  163MOL    C1539219   6.613   4.660   2.451 -0.1308  0.1042 -0.2285
  163MOL    C1639220   6.646   4.778   2.543  0.3669 -0.4038  0.0173
  163MOL    C1739221   6.564   4.901   2.500  0.2605 -1.6345  0.1431
  163MOL    H1839222   6.690   4.513   2.576  0.1533  3.0158  1.1160
  163MOL    H1939223   6.682   4.450   2.414 -0.4414  2.4075 -3.1692
  163MOL    H2039224   6.638   4.692   2.350  2.2364 -0.7906  0.0518
  163MOL    H2139225   6.751   4.805   2.541  0.3664 -0.4260 -0.4049
  163MOL    H2239226   6.626   4.737   2.642  2.1237 -2.2745 -0.3635
  163MOL    H2339227   6.603   4.988   2.553  0.9335 -0.9393 -1.4341
  163MOL    H2439228   6.595   4.919   2.397  2.5702 -1.2940  0.8743
  163MOL    H2539229   6.457   4.901   2.521  0.0153  0.6154 -0.9144
  163MOL    C2639230   6.456   4.616   2.463  0.5198 -0.4804  0.4276
  163MOL    C2739231   6.409   4.515   2.356  0.3525  0.0623  0.7484
  163MOL    C2839232   6.429   4.561   2.213  0.2873  0.3733 -0.4901
  163MOL    C2939233   6.352   4.684   2.173  0.4166 -0.4738 -0.0315
  163MOL    H3039234   6.394   4.705   2.466 -1.8218 -2.0154 -1.1950
  163MOL    H3139235   6.448   4.574   2.563  1.4329  1.8625  1.5119
  163MOL    H3239236   6.477   4.431   2.367  0.2969  0.1629  1.8953
  163MOL    H3339237   6.398   4.476   2.154 -0.3603  0.2827 -0.0240
  163MOL    H3439238   6.536   4.573   2.196  0.4413 -0.5726 -0.2306
  163MOL    H3539239   6.378   4.693   2.068  2.3270  0.4880  0.5002
  163MOL    H3639240   6.247   4.662   2.191  0.2904  1.4459  1.8509
  163MOL    H3739241   6.374   4.774   2.231 -1.7669 -0.1593  0.3486
  163MOL    C3839242   6.262   4.473   2.383  0.8628  0.6756 -0.4269
  163MOL    C3939243   6.238   4.386   2.511  0.1779  0.5055 -1.0259
  163MOL    C4039244   6.328   4.257   2.506 -0.2334 -0.3506 -0.8951
  163MOL    C4139245   6.282   4.158   2.409  0.0528  0.1215  0.3784
  163MOL    H4239246   6.239   4.421   2.290  1.6569 -0.8049  0.1834
  163MOL    H4339247   6.193   4.557   2.384  1.4045  1.1213  1.9447
  163MOL    H4439248   6.283   4.441   2.594 -0.3991  0.2259 -0.5283
  163MOL    H4539249   6.339   4.212   2.605 -0.9414  0.2517 -0.5429
  163MOL    H4639250   6.434   4.278   2.492 -0.1772  0.5817  0.7749
  163MOL    H4739251   6.210   4.091   2.456 -1.2733  1.4618  0.2821
  163MOL    H4839252   6.236   4.205   2.322  1.5111 -0.3125 -0.6394
  163MOL    H4939253   6.362   4.089   2.384 -0.2867  0.3010 -1.2315
  163MOL    C5039254   6.085   4.362   2.545 -0.0178  0.2547  0.2054
  163MOL    C5139255   6.007   4.481   2.600  0.5452 -0.8791 -0.0055
  163MOL    C5239256   6.024   4.496   2.758 -0.5073  0.5090 -0.1907
  163MOL    C5339257   5.960   4.379   2.842 -0.2314  0.4216  0.2363
  163MOL    H5439258   6.070   4.276   2.610 -2.3632  0.2355 -0.3027
  163MOL    H5539259   6.035   4.330   2.453  1.9657 -1.1855 -0.3918
  163MOL    H5639260   6.047   4.572   2.558 -2.0449 -0.3288 -1.4044
  163MOL    H5739261   6.004   4.598   2.790  0.0286  0.3395  0.7028
  163MOL    H5839262   6.130   4.479   2.777 -0.2809  1.9753 -0.0821
  163MOL    H5939263   5.999   4.282   2.812 -4.0497 -0.7719 -1.0807
  163MOL    H6039264   5.968   4.378   2.951  0.7794  2.3760  0.1996
  163MOL    H6139265   5.853   4.370   2.825 -0.0582  0.9707 -1.2233
  163MOL    C6239266   5.867   4.495   2.548 -1.0101  0.2748  0.7426
  163MOL    C6339267   5.841   4.542   2.399 -0.2084 -0.2803  0.2756
  163MOL    C6439268   5.866   4.692   2.372  0.2005  0.3160 -0.6240
  163MOL    C6539269   5.894   4.712   2.218  0.1124  0.3382  0.5431
  163MOL    H6639270   5.807   4.553   2.618 -0.2987  1.2723  0.5232
  163MOL    H6739271   5.832   4.393   2.564  0.2588  0.0045  1.9625
  163MOL    H6839272   5.897   4.482   2.328  0.3302  0.8150 -0.2204
  163MOL    H6939273   5.942   4.734   2.439  1.2287 -0.8907 -1.0009
  163MOL    H7039274   5.772   4.742   2.390 -0.3669 -1.0417  0.2649
  163MOL    H7139275   5.823   4.659   2.154  0.0247 -1.9494  2.5077
  163MOL    H7239276   5.889   4.817   2.185 -0.7369 -0.4754 -2.1101
  163MOL    H7339277   5.991   4.665   2.208  0.3913  1.1020 -0.4702
  163MOL    C7439278   5.703   4.484   2.362  0.2420  0.0262  0.0384
  163MOL    C7539279   5.703   4.331   2.325 -0.1355  0.4978 -1.0081
  163MOL    C7639280   5.754   4.302   2.179 -0.2782 -0.3358  0.6519
  163MOL    C7739281   5.683   4.371   2.058 -0.4587  0.2959 -0.6301
  163MOL    H7839282   5.658   4.547   2.286 -1.2355  0.0624  0.9285
  163MOL    H7939283   5.633   4.513   2.440 -2.1023 -2.4769 -1.0530
  163MOL    H8039284   5.780   4.287   2.388 -1.7835  0.5913  1.1188
  163MOL    H8139285   5.764   4.196   2.155 -1.0657  0.3650 -3.0331
  163MOL    H8239286   5.851   4.351   2.174 -0.2579 -0.6021 -2.1603
  163MOL    H8339287   5.691   4.302   1.973 -0.8607 -0.2344 -0.2461
  163MOL    H8439288   5.579   4.397   2.079 -0.9328 -2.2316  0.3261
  163MOL    H8539289   5.733   4.465   2.037  1.3891 -0.5097  0.0906
  163MOL    C8639290   5.558   4.273   2.354  0.2874  0.0373  0.4704
  163MOL    C8739291   5.563   4.144   2.436  0.1319  0.0489  0.2511
  163MOL    C8839292   5.426   4.065   2.431 -0.6732 -0.5324 -0.0264
  163MOL    C8939293   5.405   3.975   2.303 -0.1371 -0.0985  0.2325
  163MOL    H9039294   5.508   4.241   2.262  1.5631 -2.3802  0.5759
  163MOL    H9139295   5.497   4.351   2.400  2.2580  0.4659  2.4221
  163MOL    H9239296   5.637   4.077   2.394  0.4635  1.7953 -2.0226
  163MOL    H9339297   5.343   4.135   2.443  0.4899  0.7645  0.5422
  163MOL    H9439298   5.428   4.001   2.519  2.9847  0.0533  0.4007
  163MOL    H9539299   5.414   4.036   2.213 -0.1274  1.2761  1.1460
  163MOL    H9639300   5.485   3.902   2.289 -1.6809 -1.6773 -0.5304
  163MOL    H9739301   5.310   3.923   2.298 -0.0818 -0.0046 -2.9138
  163MOL    C9839302   5.589   4.180   2.579 -0.8408 -0.0743 -1.1794
  163MOL    C9939303   5.657   4.073   2.660 -0.5536 -0.1682 -0.4515
  163MOL   C10039304   5.624   4.098   2.810  0.4297  0.2749  0.2763
  163MOL   C10139305   5.486   4.041   2.852  0.5369  0.3876 -0.5109
  163MOL   H10239306   5.486   4.197   2.611 -0.9609  3.8856 -3.3184
  163MOL   H10339307   5.653   4.267   2.593 -0.0275 -0.6656 -1.1704
  163MOL   H10439308   5.618   3.975   2.632  1.6976 -1.2781  0.1678
  163MOL   H10539309   5.645   4.204   2.826  0.0978 -0.0423  3.1066
  163MOL   H10639310   5.701   4.052   2.871  2.9969  1.1113 -2.2160
  163MOL   H10739311   5.455   4.058   2.955  0.1900 -2.8465  0.0011
  163MOL   H10839312   5.406   4.083   2.791  0.8221 -0.9327 -1.8272
  163MOL   H10939313   5.477   3.932   2.846 -0.1081  0.3505  0.8843
  163MOL   C11039314   5.807   4.059   2.638 -0.0436  0.3357 -0.0533
  163MOL   C11139315   5.856   3.920   2.683  0.3821  0.9535  0.0577
  163MOL   C11239316   5.967   3.923   2.786  0.4987 -0.1349 -0.6219
  163MOL   C11339317   6.013   3.788   2.846 -0.1925  0.6333  0.0845
  163MOL   H11439318   5.857   4.141   2.690 -0.6969  0.6575  0.0724
  163MOL   H11539319   5.833   4.064   2.532  2.5254  4.8832  0.6504
  163MOL   H11639320   5.775   3.878   2.742  2.7517 -1.4564  1.7209
  163MOL   H11739321   5.943   3.995   2.865  1.7541 -0.0353 -0.3188
  163MOL   H11839322   6.050   3.968   2.731 -0.7367 -1.0339 -3.2828
  163MOL   H11939323   5.931   3.718   2.858 -0.7107  1.5140  1.9354
  163MOL   H12039324   6.094   3.747   2.786  0.7431 -1.0579  2.4421
  163MOL   H12139325   6.052   3.811   2.945 -0.4118 -0.2102  0.3630
  163MOL   C12239326   5.890   3.831   2.562  0.0908 -0.0623 -0.6173
  163MOL   C12339327   5.761   3.796   2.482  0.3675 -0.9248  0.2400
  163MOL   C12439328   5.671   3.689   2.556  0.1118  0.0142 -0.6173
  163MOL   C12539329   5.538   3.664   2.493 -0.2043  0.2672 -0.1543
  163MOL   H12639330   5.922   3.731   2.589  0.2140  0.5309  1.5667
  163MOL   H12739331   5.956   3.874   2.486  1.5450 -0.4289  0.4273
  163MOL   H12839332   5.706   3.889   2.464  0.8663 -1.2225 -3.2650
  163MOL   H12939333   5.655   3.714   2.661  2.2040 -0.5427 -0.1371
  163MOL   H13039334   5.740   3.604   2.556  2.1596  1.6509 -0.6154
  163MOL   H13139335   5.547   3.629   2.390  1.0709  0.2846 -0.0575
  163MOL   H13239336   5.485   3.584   2.546 -2.2432  0.4228 -1.8961
  163MOL   H13339337   5.480   3.756   2.484 -1.3754 -0.4797 -0.3049
  163MOL   C13439338   5.799   3.744   2.343  0.3466  0.2385 -0.0055
  163MOL   C13539339   5.882   3.611   2.332  0.0662  0.6207 -0.0786
  163MOL   C13639340   6.004   3.635   2.238  0.2202 -0.2189  0.3535
  163MOL   C13739341   5.976   3.689   2.098  0.1565  0.1131 -0.3239
  163MOL   H13839342   5.827   3.828   2.279 -2.7554  0.9810 -0.5025
  163MOL   H13939343   5.704   3.715   2.298  1.1144 -0.5403 -1.1653
  163MOL   H14039344   5.923   3.605   2.433 -1.4302 -0.2783  0.4937
  163MOL   H14139345   6.072   3.551   2.232 -0.3368 -0.5873 -1.0003
  163MOL   H14239346   6.070   3.704   2.291  0.2102  0.3827 -0.4157
  163MOL   H14339347   5.943   3.792   2.109 -2.5086 -0.9440  2.5817
  163MOL   H14439348   6.062   3.699   2.033 -0.7831  0.1284 -1.5866
  163MOL   H14539349   5.902   3.628   2.045  0.6036 -0.7825  0.0586
  163MOL   C14639350   5.791   3.491   2.294 -0.0213 -0.0042 -0.2255
  163MOL   C14739351   5.855   3.351   2.290 -0.0848 -0.8728  0.0720
  163MOL   C14839352   5.768   3.260   2.203 -0.2395  0.1570  0.4453
  163MOL   C14939353   5.628   3.237   2.254 -0.2762  0.1822  1.1751
  163MOL   H15039354   5.743   3.518   2.200 -0.6532  1.0867  0.4076
  163MOL   H15139355   5.703   3.479   2.356  1.7105  2.3373  2.7880
  163MOL   H15239356   5.949   3.362   2.234  0.0743 -1.4206  0.2361
  163MOL   H15339357   5.813   3.161   2.210  1.1197  0.8981  3.0179
  163MOL   H15439358   5.774   3.285   2.097 -2.1169 -1.2613 -0.0289
  163MOL   H15539359   5.560   3.320   2.231  0.0310  0.7128  2.1666
  163MOL   H15639360   5.582   3.140   2.232 -2.1785  1.0530  1.1493
  163MOL   H15739361   5.631   3.241   2.362  1.5769  1.5751  1.0929
  163MOL   C15839362   5.885   3.299   2.433  0.2960  0.1242  0.4047
  163MOL   C15939363   5.945   3.161   2.448  0.3120  0.4960  0.0129
  163MOL   C16039364   5.849   3.068   2.524  0.4410  0.7013  0.3584
  163MOL   C16139365   5.886   2.921   2.519  0.3969 -0.3075 -0.1906
  163MOL   H16239366   5.799   3.312   2.498 -0.5741 -2.5056 -0.1582
  163MOL   H16339367   5.948   3.368   2.489  1.3572 -0.7545  0.3050
  163MOL   H16439368   5.948   3.117   2.349 -2.8545  0.0634  0.0618
  163MOL   H16539369   5.760   3.071   2.461  0.8221  0.0212 -0.2168
  163MOL   H16639370   5.823   3.098   2.625 -0.4839 -1.3057  0.7416
  163MOL   H16739371   5.921   2.881   2.424 -1.2216 -0.8099 -0.5876
  163MOL   H16839372   5.963   2.896   2.593  0.0254  1.2177  0.7338
  163MOL   H16939373   5.795   2.873   2.555 -0.5332  1.7668  0.2924
  163MOL   C17039374   6.089   3.161   2.514 -0.7917  0.1284  0.3095
  163MOL   C17139375   6.195   3.245   2.434 -0.5354 -0.8528 -0.2132
  163MOL   C17239376   6.238   3.168   2.306  0.1027 -0.9301  0.5725
  163MOL   C17339377   6.323   3.248   2.194 -0.2818  0.1227 -0.6780
  163MOL   H17439378   6.134   3.063   2.501  0.5759  1.0116 -1.9851
  163MOL   H17539379   6.076   3.192   2.617 -1.6983  1.5840 -0.2250
  163MOL   H17639380   6.155   3.338   2.396  0.9263  2.0936  5.0171
  163MOL   H17739381   6.150   3.128   2.256  0.8288 -1.2803 -0.4604
  163MOL   H17839382   6.297   3.083   2.340 -1.0383 -1.1943  1.9046
  163MOL   H17939383   6.252   3.308   2.136 -1.7117 -0.2174  0.6602
  163MOL   H18039384   6.392   3.326   2.227 -1.2803  0.9494 -0.4943
  163MOL   H18139385   6.367   3.185   2.118  1.0796 -0.0330  0.2336
  163MOL   C18239386   6.319   3.294   2.517  0.0472 -0.4384 -0.3758
  163MOL   C18339387   6.286   3.388   2.636  0.6723 -0.9479 -0.4383
  163MOL   C18439388   6.215   3.517   2.598 -0.7042  0.7903 -0.1198
  163MOL   C18539389   6.282   3.587   2.486  0.1687 -0.5159  0.2309
  163MOL   H18639390   6.376   3.347   2.441  0.7726  1.5455  1.5144
  163MOL   H18739391   6.371   3.203   2.548 -1.5448 -2.0787 -2.3464
  163MOL   H18839392   6.226   3.333   2.708  0.3080  0.8385  0.6540
  163MOL   H18939393   6.215   3.576   2.690  0.0299 -0.4872  0.7041
  163MOL   H19039394   6.109   3.506   2.573 -0.5866 -1.3688  0.2441
  163MOL   H19139395   6.389   3.585   2.509  0.1840 -1.6792  0.0838
  163MOL   H19239396   6.281   3.557   2.381 -1.7754  0.6420 -0.1132
  163MOL   H19339397   6.253   3.692   2.484  3.8387  0.5839 -0.4446
  163MOL   C19439398   6.417   3.411   2.713  0.1045  0.5173 -0.2825
  163MOL   C19539399   6.460   3.304   2.818  0.1959 -1.3186  0.6204
  163MOL   C19639400   6.356   3.277   2.940 -0.5015  0.6247 -0.1709
  163MOL   C19739401   6.316   3.394   3.032 -0.4091  0.3799 -0.6872
  163MOL   H19839402   6.399   3.501   2.773 -1.3082  1.3911 -1.9635
  163MOL   H19939403   6.498   3.426   2.642 -0.1495  0.2288 -0.6353
  163MOL   H20039404   6.464   3.208   2.766 -0.7445 -0.0342 -1.9092
  163MOL   H20139405   6.406   3.197   2.996 -1.5398  1.6613  2.3382
  163MOL   H20239406   6.260   3.240   2.904  0.5417 -2.2469 -0.1463
  163MOL   H20339407   6.397   3.464   3.055 -0.2674 -0.4189  1.3009
  163MOL   H20439408   6.243   3.454   2.978 -1.2335 -0.5029 -0.5562
  163MOL   H20539409   6.270   3.363   3.126  1.4122  0.2428  0.1844
  163MOL   C20639410   6.601   3.340   2.882 -0.0239  0.3380  0.0437
  163MOL   C20739411   6.727   3.298   2.793  0.2889 -0.3603 -0.5744
  163MOL   C20839412   6.789   3.159   2.839  0.3781 -0.0306  0.3819
  163MOL   C20939413   6.703   3.039   2.831 -0.9793  0.5029  0.5340
  163MOL   H21039414   6.609   3.280   2.972 -1.3954  1.9143  1.2586
  163MOL   H21139415   6.600   3.446   2.906 -0.5856  0.5586 -0.9187
  163MOL   H21239416   6.698   3.283   2.689 -2.4170  2.3094 -0.2803
  163MOL   H21339417   6.823   3.164   2.942 -0.3901  3.4991  0.5394
  163MOL   H21439418   6.884   3.134   2.791 -0.8622 -3.5828 -0.3505
  163MOL   H21539419   6.641   3.024   2.742  1.1405 -0.0599 -0.8968
  163MOL   H21639420   6.742   2.939   2.849  0.4157  0.9800  0.2038
  163MOL   H21739421   6.616   3.051   2.896 -2.1885  2.1080 -1.2964
  163MOL   C21839422   6.833   3.416   2.787  0.1472  0.0014 -0.4358
  163MOL   C21939423   6.943   3.404   2.682  0.1500 -0.1636 -0.5899
  163MOL   C22039424   7.052   3.510   2.691  0.2012 -0.7398 -0.5404
  163MOL   C22139425   7.135   3.518   2.821 -0.2473  1.0577  0.0509
  163MOL   H22239426   6.885   3.430   2.881  0.9369  4.5010 -1.4345
  163MOL   H22339427   6.776   3.506   2.766  0.8102  0.6157  0.4086
  163MOL   H22439428   7.001   3.312   2.687 -1.1072 -0.8553  1.6031
  163MOL   H22539429   7.011   3.610   2.679 -2.0218 -1.3219  1.6912
  163MOL   H22639430   7.126   3.498   2.612  0.8138 -1.8157  0.1770
  163MOL   H22739431   7.085   3.535   2.917 -1.4487  1.1492 -0.5856
  163MOL   H22839432   7.184   3.423   2.840  0.0197  1.0713 -0.5676
  163MOL   H22939433   7.213   3.594   2.815  1.4374 -0.5975  0.6212
  163MOL   C23039434   6.897   3.400   2.534 -0.0230 -0.3096 -0.2345
  163MOL   C23139435   6.809   3.518   2.485  0.2313 -0.1596 -0.7576
  163MOL   C23239436   6.723   3.492   2.361  1.3085  0.5892 -0.0324
  163MOL   C23339437   6.620   3.606   2.326 -0.4451 -0.1083 -0.4040
  163MOL   H23439438   6.846   3.307   2.506 -0.8259  0.2996 -0.8079
  163MOL   H23539439   6.981   3.400   2.464 -1.1442  2.4894 -1.6618
  163MOL   H23639440   6.744   3.541   2.570  0.0821  0.4374 -1.0286
  163MOL   H23739441   6.662   3.405   2.386  0.6042  0.4913 -2.0295
  163MOL   H23839442   6.785   3.476   2.274  0.8516  1.1387 -0.4623
  163MOL   H23939443   6.669   3.700   2.303  0.7760  0.0031  2.5363
  163MOL   H24039444   6.558   3.572   2.242 -0.4967  1.6315 -1.0967
  163MOL   H24139445   6.556   3.631   2.411 -0.0469  1.7393 -0.6404
  163MOL   H24239446   6.878   3.601   2.468  0.9635 -0.8640 -1.2207
  164MOL     C139447   3.713   2.114   5.978 -0.5807  0.4067 -0.1496
  164MOL     C239448   3.782   2.111   5.839  0.0923 -0.1221  0.1462
  164MOL     C339449   3.929   2.072   5.850  0.1204 -0.4408 -0.2534
  164MOL     C439450   3.981   1.988   5.727  0.3212  0.4270 -0.1889
  164MOL     H539451   3.742   2.032   6.043 -1.1189  0.0044 -0.4233
  164MOL     H639452   3.742   2.212   6.018 -2.1258  0.6731  0.3243
  164MOL     H739453   3.737   2.021   5.797  1.6419  0.4585 -2.8893
  164MOL     H839454   3.941   2.005   5.934 -1.6356  0.5091  0.7749
  164MOL     H939455   4.000   2.153   5.867  0.1397 -0.4056 -0.4943
  164MOL    H1039456   3.948   1.886   5.739  0.2463  0.5515  0.6652
  164MOL    H1139457   3.935   2.022   5.634  0.4281 -1.6927 -1.0486
  164MOL    H1239458   4.090   1.988   5.714  0.2963  1.9611 -0.5269
  164MOL    H1339459   3.605   2.119   5.965 -0.5753  0.8931 -0.0412
  164MOL    C1439460   3.766   2.248   5.757 -0.2950 -0.1556 -0.1342
  164MOL    C1539461   3.628   2.279   5.692  0.1929  0.4387  0.0768
  164MOL    C1639462   3.583   2.161   5.597 -0.2759 -0.3883 -0.1498
  164MOL    C1739463   3.433   2.163   5.568  0.2554  1.1359 -0.0821
  164MOL    H1839464   3.834   2.244   5.672  1.1600  0.2867  0.9894
  164MOL    H1939465   3.790   2.330   5.824  0.8224  1.1162 -2.0462
  164MOL    H2039466   3.548   2.285   5.766 -0.0849  2.0492 -0.3341
  164MOL    H2139467   3.601   2.063   5.640 -1.0558 -0.7258 -0.5850
  164MOL    H2239468   3.644   2.174   5.507  0.0795  1.9945  0.4110
  164MOL    H2339469   3.401   2.261   5.534 -0.6824  1.3389  1.3557
  164MOL    H2439470   3.405   2.097   5.486  1.0547  0.2687  0.3367
  164MOL    H2539471   3.376   2.136   5.657  1.6631 -0.3573  0.3830
  164MOL    C2639472   3.635   2.417   5.616  0.0380  0.6718  0.6487
  164MOL    C2739473   3.640   2.547   5.702 -0.0464  0.0181 -0.5003
  164MOL    C2839474   3.526   2.557   5.811  0.4730 -0.2833 -0.4457
  164MOL    C2939475   3.524   2.657   5.920 -0.7669 -0.7338  0.0426
  164MOL    H3039476   3.554   2.425   5.543  0.9923 -0.8141 -0.6349
  164MOL    H3139477   3.722   2.413   5.550 -1.5561  1.7511 -1.5857
  164MOL    H3239478   3.735   2.544   5.756 -0.5119  0.6943  0.3810
  164MOL    H3339479   3.527   2.461   5.863  2.1172 -0.5233 -0.8741
  164MOL    H3439480   3.436   2.557   5.749  0.8953  0.5411 -1.0646
  164MOL    H3539481   3.623   2.656   5.966 -1.2345 -1.9636  1.0605
  164MOL    H3639482   3.501   2.760   5.892 -0.2712 -0.6055  0.0918
  164MOL    H3739483   3.444   2.631   5.989 -0.9264  0.2403  0.2283
  164MOL    C3839484   3.647   2.677   5.621 -0.4824  0.6699  0.0246
  164MOL    C3939485   3.792   2.704   5.572 -0.7008 -0.6166 -0.5130
  164MOL    C4039486   3.866   2.789   5.682  0.1850  0.4047  0.1620
  164MOL    C4139487   4.019   2.788   5.663  0.1331 -0.2874 -0.2548
  164MOL    H4239488   3.613   2.757   5.686  1.2382  1.8481 -0.4897
  164MOL    H4339489   3.571   2.662   5.544 -1.6821  1.5093  1.0262
  164MOL    H4439490   3.851   2.613   5.556 -1.1423 -0.9457 -0.2947
  164MOL    H4539491   3.850   2.756   5.785  0.2746 -0.1568 -0.0076
  164MOL    H4639492   3.835   2.894   5.676  0.0773  0.3028 -1.1689
  164MOL    H4739493   4.072   2.857   5.728  0.2669  1.9570 -2.6535
  164MOL    H4839494   4.050   2.686   5.686  1.4570 -0.0737 -0.9971
  164MOL    H4939495   4.047   2.819   5.562 -0.8861 -1.3104 -0.8742
  164MOL    C5039496   3.791   2.782   5.441  0.3379  0.1799  0.5248
  164MOL    C5139497   3.734   2.711   5.313  0.3466 -0.2047  0.1190
  164MOL    C5239498   3.812   2.589   5.266  0.2218 -0.0303  0.1545
  164MOL    C5339499   3.962   2.621   5.216 -0.2388  0.4593 -0.1012
  164MOL    H5439500   3.891   2.820   5.420  0.6604  0.3214  2.1967
  164MOL    H5539501   3.741   2.878   5.456 -1.6362 -1.0520  2.1334
  164MOL    H5639502   3.640   2.668   5.347 -0.5411  0.3740 -1.5280
  164MOL    H5739503   3.751   2.538   5.191  2.6362 -0.8631 -1.3047
  164MOL    H5839504   3.814   2.510   5.342  0.9276 -0.9408 -0.7863
  164MOL    H5939505   3.958   2.653   5.112  1.4953  2.6331  0.4793
  164MOL    H6039506   4.013   2.694   5.278 -1.3514  1.0198  0.1561
  164MOL    H6139507   4.028   2.534   5.215  0.1991  0.7777  0.7946
  164MOL    C6239508   3.694   2.810   5.206 -0.3000 -0.5637 -0.8257
  164MOL    C6339509   3.593   2.760   5.102  0.3765  0.4464  0.1013
  164MOL    C6439510   3.628   2.817   4.957  0.3965 -0.1859  0.2665
  164MOL    C6539511   3.765   2.769   4.889  0.7825  0.0375 -0.5379
  164MOL    H6639512   3.782   2.854   5.160  0.5545 -1.5235 -0.1332
  164MOL    H6739513   3.657   2.898   5.258  1.7173 -1.5362  2.4152
  164MOL    H6839514   3.602   2.651   5.098 -0.3438  0.3575  0.8007
  164MOL    H6939515   3.627   2.925   4.972 -0.5929 -0.3444  1.4621
  164MOL    H7039516   3.553   2.794   4.881  1.3232 -0.4933 -0.5575
  164MOL    H7139517   3.773   2.662   4.873 -1.1051 -0.1594 -0.2294
  164MOL    H7239518   3.783   2.819   4.794 -0.0500  0.5782 -0.4150
  164MOL    H7339519   3.839   2.798   4.963  1.0592  3.0724 -1.9146
  164MOL    C7439520   3.448   2.785   5.150 -0.2827 -0.8082  0.0099
  164MOL    C7539521   3.350   2.673   5.115 -0.1375  0.3083 -0.2663
  164MOL    C7639522   3.206   2.722   5.139  0.2000 -0.1718 -0.2936
  164MOL    C7739523   3.157   2.831   5.050 -0.1615 -0.4961 -0.6411
  164MOL    H7839524   3.416   2.879   5.107  1.2467 -0.1202  0.3442
  164MOL    H7939525   3.454   2.792   5.258 -2.4458  0.3191  0.0683
  164MOL    H8039526   3.365   2.644   5.011  0.8277 -2.8751  0.7033
  164MOL    H8139527   3.203   2.754   5.243  0.3560 -2.5332  0.4723
  164MOL    H8239528   3.143   2.633   5.140  0.4945 -0.3646  0.6751
  164MOL    H8339529   3.162   2.805   4.944  1.7606 -0.8447 -0.4801
  164MOL    H8439530   3.052   2.857   5.064 -0.6230 -1.2859 -2.5523
  164MOL    H8539531   3.208   2.927   5.055  2.7218 -1.8680 -2.3735
  164MOL    C8639532   3.375   2.538   5.190 -0.0548  0.0441 -0.1185
  164MOL    C8739533   3.312   2.408   5.137  0.6593 -0.5106  0.4812
  164MOL    C8839534   3.282   2.306   5.254 -0.7046 -0.1395  0.0870
  164MOL    C8939535   3.165   2.344   5.351 -0.1939 -0.1108 -0.8573
  164MOL    H9039536   3.344   2.568   5.290 -1.0860  3.0624 -1.2823
  164MOL    H9139537   3.483   2.527   5.194  0.4579  3.1775 -2.8550
  164MOL    H9239538   3.215   2.426   5.091  0.6748  0.2030  0.7100
  164MOL    H9339539   3.376   2.304   5.309 -0.3277  0.2325 -0.5323
  164MOL    H9439540   3.274   2.203   5.219  0.0203 -0.5647  1.1716
  164MOL    H9539541   3.078   2.391   5.305 -1.1944  0.8366  1.8931
  164MOL    H9639542   3.124   2.259   5.404  2.0208 -0.9821 -0.4718
  164MOL    H9739543   3.209   2.416   5.421 -1.8882  1.5938 -1.5066
  164MOL    C9839544   3.385   2.338   5.009 -0.4694 -0.4901 -0.2985
  164MOL    C9939545   3.530   2.286   5.027  0.0055 -0.2826  0.2144
  164MOL   C10039546   3.580   2.269   4.887 -0.4446  0.1863 -0.3834
  164MOL   C10139547   3.613   2.398   4.815 -1.0043  0.0140 -0.4711
  164MOL   H10239548   3.370   2.416   4.934 -0.2526 -1.0399 -0.9159
  164MOL   H10339549   3.324   2.252   4.979 -2.1136  1.2187 -1.9936
  164MOL   H10439550   3.579   2.368   5.078 -0.0652  0.7481 -1.3194
  164MOL   H10539551   3.513   2.206   4.828  0.2242 -1.1104  0.2171
  164MOL   H10639552   3.673   2.214   4.896 -1.0323 -0.7523  0.0566
  164MOL   H10739553   3.638   2.385   4.710 -1.0426 -0.3212 -0.4377
  164MOL   H10839554   3.539   2.479   4.816 -2.8758 -1.6336 -1.7199
  164MOL   H10939555   3.696   2.440   4.871  0.4225 -1.3304 -1.5634
  164MOL   C11039556   3.547   2.156   5.120  0.4243  0.4691  0.5683
  164MOL   C11139557   3.694   2.089   5.135 -0.1554 -0.1773  0.4310
  164MOL   C11239558   3.673   1.948   5.184 -0.0034  0.6730  0.0323
  164MOL   C11339559   3.664   1.844   5.065  0.3925 -0.1296 -0.0100
  164MOL   H11439560   3.476   2.084   5.080  0.7426 -0.4638  1.6395
  164MOL   H11539561   3.514   2.179   5.221  2.1452 -1.0780  1.5300
  164MOL   H11639562   3.747   2.090   5.040 -0.2724 -0.0116  0.3673
  164MOL   H11739563   3.585   1.943   5.249 -2.2207 -1.2368 -2.9856
  164MOL   H11839564   3.756   1.923   5.250  0.2540 -2.2731 -1.3557
  164MOL   H11939565   3.744   1.861   4.993 -1.0527 -0.2187 -1.6891
  164MOL   H12039566   3.670   1.748   5.117 -3.8635  0.2229  1.3074
  164MOL   H12139567   3.568   1.853   5.013 -0.3898 -1.9653  1.0534
  164MOL   C12239568   3.763   2.182   5.231 -0.4964  0.1710 -0.8640
  164MOL   C12339569   3.917   2.168   5.227 -0.0853 -0.2907 -0.6847
  164MOL   C12439570   3.973   2.213   5.361  1.1702  0.1185 -0.3791
  164MOL   C12539571   4.117   2.172   5.398  0.0286  0.3218 -0.2848
  164MOL   H12639572   3.716   2.173   5.329  1.8909  0.5981  0.3508
  164MOL   H12739573   3.744   2.285   5.200 -0.7224 -0.3439 -2.4601
  164MOL   H12839574   3.937   2.063   5.209 -0.9429 -0.3814 -1.1437
  164MOL   H12939575   3.908   2.178   5.441  1.5078  3.0803  1.2766
  164MOL   H13039576   3.950   2.320   5.360  2.2673  0.4873  3.3045
  164MOL   H13139577   4.119   2.150   5.505 -2.4847 -0.7485 -0.4348
  164MOL   H13239578   4.142   2.077   5.350  0.2896  0.1782  0.1366
  164MOL   H13339579   4.189   2.251   5.376 -1.4373  1.5997 -0.5565
  164MOL   C13439580   3.977   2.243   5.107 -0.0985 -0.2523  0.0827
  164MOL   C13539581   4.095   2.157   5.033 -0.2497  0.0547  0.3682
  164MOL   C13639582   4.180   2.257   4.941  0.2732 -0.1919 -0.1221
  164MOL   C13739583   4.291   2.320   5.016 -0.9119  0.4572  0.1028
  164MOL   H13839584   4.024   2.339   5.126  1.1472 -1.1275  1.6109
  164MOL   H13939585   3.903   2.252   5.028 -0.0731 -2.7714 -0.2747
  164MOL   H14039586   4.163   2.127   5.113  1.0102  1.0657 -0.2925
  164MOL   H14139587   4.105   2.323   4.899  0.3107 -1.4846 -2.3127
  164MOL   H14239588   4.222   2.201   4.857  0.9786  0.0603  0.0606
  164MOL   H14339589   4.342   2.405   4.971 -1.0475  1.1710  1.2527
  164MOL   H14439590   4.260   2.360   5.113  0.9652  0.5761  0.6775
  164MOL   H14539591   4.365   2.240   5.018 -2.2402 -0.7745  0.8548
  164MOL   C14639592   4.046   2.034   4.953 -0.0444 -0.2163 -0.7917
  164MOL   C14739593   4.148   1.921   4.954  0.8264 -0.4795  0.4554
  164MOL   C14839594   4.164   1.851   4.811 -0.4380 -0.7333  0.5683
  164MOL   C14939595   4.250   1.930   4.711  0.5343  0.2906 -0.6027
  164MOL   H15039596   4.024   2.060   4.849 -1.3207  1.1906 -0.1837
  164MOL   H15139597   3.949   1.992   4.980 -0.1429 -0.1778 -1.0856
  164MOL   H15239598   4.244   1.966   4.982  0.5504  0.6767 -0.4534
  164MOL   H15339599   4.066   1.834   4.766 -1.5109  0.5181  2.3663
  164MOL   H15439600   4.200   1.750   4.827 -1.9094 -1.3881 -0.1160
  164MOL   H15539601   4.333   1.984   4.756 -0.7449  2.3197 -0.6193
  164MOL   H15639602   4.295   1.855   4.646  0.8546 -0.1203  0.0740
  164MOL   H15739603   4.189   1.998   4.653  1.6831  0.1357 -2.0288
  164MOL   C15839604   4.103   1.807   5.055 -0.2726 -0.1699  0.4696
  164MOL   C15939605   4.219   1.715   5.108 -0.1360 -0.0551  0.9263
  164MOL   C16039606   4.162   1.591   5.182  0.0227  0.6273 -0.1642
  164MOL   C16139607   4.091   1.613   5.320 -0.4088 -0.2282 -0.2989
  164MOL   H16239608   4.033   1.736   5.011  1.0719 -0.5001 -1.1969
  164MOL   H16339609   4.057   1.839   5.149  0.4927 -2.1950  1.5832
  164MOL   H16439610   4.268   1.668   5.023 -1.1381  0.4881  0.0230
  164MOL   H16539611   4.246   1.525   5.204 -0.3354  0.1573 -0.2016
  164MOL   H16639612   4.094   1.534   5.119 -0.0190 -2.1114  2.2758
  164MOL   H16739613   4.155   1.651   5.399  0.0298  1.5585 -1.4720
  164MOL   H16839614   4.009   1.683   5.301 -0.2168  0.4650  1.3167
  164MOL   H16939615   4.052   1.521   5.364 -0.6052 -0.0349 -0.0608
  164MOL   C17039616   4.334   1.789   5.191 -0.0136  0.3939  0.7424
  164MOL   C17139617   4.457   1.711   5.227 -0.2133  0.1908  0.5082
  164MOL   C17239618   4.533   1.774   5.344  0.2532 -0.0973 -0.1826
  164MOL   C17339619   4.464   1.770   5.487  0.4995  0.4940  0.1369
  164MOL   H17439620   4.285   1.807   5.287 -1.0941  1.3602  0.0314
  164MOL   H17539621   4.369   1.883   5.147  0.7362 -0.8453 -1.3342
  164MOL   H17639622   4.426   1.613   5.262 -0.3864  0.1578  0.2634
  164MOL   H17739623   4.570   1.876   5.337 -0.6104  0.5273  3.4709
  164MOL   H17839624   4.630   1.727   5.362  1.2086  1.1295 -1.8960
  164MOL   H17939625   4.407   1.864   5.492  0.3626  0.3771  0.8198
  164MOL   H18039626   4.398   1.684   5.494 -1.3771  1.6174 -2.7173
  164MOL   H18139627   4.538   1.765   5.566  0.6890  2.5629  0.1339
  164MOL   C18239628   4.551   1.675   5.108 -0.5807  0.2692 -0.4692
  164MOL   C18339629   4.592   1.527   5.087  0.4382  0.0322 -0.1711
  164MOL   C18439630   4.729   1.507   5.159  0.2451 -0.4058  0.2790
  164MOL   C18539631   4.761   1.366   5.201 -0.6638  0.0882  0.0882
  164MOL   H18639632   4.633   1.744   5.127 -2.7162  2.6030  0.6253
  164MOL   H18739633   4.508   1.711   5.014 -0.7213  0.1082 -0.4669
  164MOL   H18839634   4.521   1.460   5.135 -2.1521 -0.1562 -4.0097
  164MOL   H18939635   4.737   1.568   5.249 -1.6768 -0.4027  0.4498
  164MOL   H19039636   4.809   1.531   5.089  0.1536 -0.4251  0.1693
  164MOL   H19139637   4.845   1.373   5.270 -1.3520 -0.0845  0.9501
  164MOL   H19239638   4.679   1.306   5.239 -1.0010 -0.4631 -1.4777
  164MOL   H19339639   4.796   1.307   5.117 -1.6041 -0.1781 -0.1210
  164MOL   C19439640   4.593   1.488   4.938  0.7814  0.3859  0.5755
  164MOL   C19539641   4.452   1.456   4.871  1.4499  0.8918  0.2489
  164MOL   C19639642   4.370   1.345   4.947  0.6949  0.2009 -0.2159
  164MOL   C19739643   4.446   1.216   4.981  0.1051 -0.4933 -0.5600
  164MOL   H19839644   4.645   1.392   4.937 -0.3945 -0.2490  0.3324
  164MOL   H19939645   4.650   1.571   4.897  0.7503  0.6645  1.0851
  164MOL   H20039646   4.384   1.541   4.873  0.6199  0.2069  1.6115
  164MOL   H20139647   4.286   1.314   4.885  1.4814 -1.2117 -0.5916
  164MOL   H20239648   4.323   1.397   5.031  3.1550 -0.3974  1.5937
  164MOL   H20339649   4.379   1.137   5.016 -1.0321  0.5567 -0.3465
  164MOL   H20439650   4.501   1.184   4.893  0.2811 -4.3331  0.8190
  164MOL   H20539651   4.521   1.232   5.058 -1.6448  1.2402  0.8552
  164MOL   C20639652   4.466   1.416   4.721  0.5766 -0.0381 -0.2712
  164MOL   C20739653   4.568   1.495   4.639 -0.2173 -0.7613  0.1914
  164MOL   C20839654   4.533   1.647   4.637 -1.2189  0.1539  0.1649
  164MOL   C20939655   4.666   1.727   4.617  0.7136  0.1540 -0.3816
  164MOL   H21039656   4.369   1.424   4.672 -0.1979  0.5829  1.3253
  164MOL   H21139657   4.493   1.310   4.718 -0.6194 -0.3536 -0.0331
  164MOL   H21239658   4.668   1.481   4.680  0.0797  1.2934  0.2361
  164MOL   H21339659   4.483   1.690   4.724 -1.0147  0.9830 -0.1191
  164MOL   H21439660   4.464   1.671   4.555 -1.9427 -0.7523  0.5065
  164MOL   H21539661   4.729   1.676   4.544  0.0805  0.3368 -1.0667
  164MOL   H21639662   4.643   1.829   4.585  0.5237  0.6721  1.3377
  164MOL   H21739663   4.731   1.741   4.703  0.5085 -4.1537  0.5569
  164MOL   C21839664   4.568   1.445   4.498 -1.1395 -0.2935 -0.9210
  164MOL   C21939665   4.632   1.304   4.470 -0.0571  0.0957 -0.3237
  164MOL   C22039666   4.768   1.336   4.408  0.0824  0.1349 -0.7251
  164MOL   C22139667   4.857   1.220   4.403 -0.1760  0.4556  0.1302
  164MOL   H22239668   4.602   1.530   4.439  2.7962 -1.8950 -1.0975
  164MOL   H22339669   4.463   1.450   4.471 -1.0936  0.8755 -0.9104
  164MOL   H22439670   4.650   1.246   4.561 -0.5932 -0.2255 -0.4211
  164MOL   H22539671   4.827   1.414   4.456  2.3185 -2.1195  0.2775
  164MOL   H22639672   4.753   1.377   4.308  0.1415  3.4585  0.5467
  164MOL   H22739673   4.958   1.239   4.365  0.1884 -0.4109  0.6381
  164MOL   H22839674   4.883   1.182   4.502  0.5709  2.3737  0.6920
  164MOL   H22939675   4.819   1.129   4.357 -1.0009  0.2569  1.1898
  164MOL   C23039676   4.545   1.220   4.372  0.0366 -0.0539  0.2387
  164MOL   C23139677   4.422   1.163   4.439 -0.4772 -0.1386  0.4531
  164MOL   C23239678   4.325   1.088   4.338  0.5864  0.4835 -0.6593
  164MOL   C23339679   4.238   0.982   4.406  0.5688 -0.0002  0.2813
  164MOL   H23439680   4.605   1.140   4.329 -1.0363  0.0817 -1.5573
  164MOL   H23539681   4.509   1.278   4.287 -0.3923 -2.6245 -1.3628
  164MOL   H23639682   4.452   1.091   4.515  0.0835 -0.3953 -0.0057
  164MOL   H23739683   4.383   1.032   4.266 -2.1660  1.2513 -3.5889
  164MOL   H23839684   4.266   1.165   4.288 -2.2676 -0.9795  0.3964
  164MOL   H23939685   4.288   0.891   4.439  1.2233  0.9817  2.0690
  164MOL   H24039686   4.170   1.017   4.483 -0.8996 -2.9231  0.3732
  164MOL   H24139687   4.161   0.944   4.340  1.2954 -0.4564 -0.3077
  164MOL   H24239688   4.365   1.242   4.489 -1.8079 -1.5595  1.2001
  165MOL     C139689   0.200   0.527   4.503  0.6492 -0.7411 -0.5860
  165MOL     C239690   0.275   0.663   4.520  0.4911 -0.5480  0.2068
  165MOL     C339691   0.287   0.702   4.669 -0.2462 -0.8492 -0.3928
  165MOL     C439692   0.327   0.591   4.768  0.2116 -0.6625 -0.0784
  165MOL     H539693   0.266   0.447   4.534  1.1470 -0.3757 -0.7067
  165MOL     H639694   0.112   0.524   4.567 -0.4039  0.6499 -1.9026
  165MOL     H739695   0.372   0.636   4.478  0.5640  0.2556 -0.1473
  165MOL     H839696   0.189   0.741   4.699  0.3206 -0.2740  0.7239
  165MOL     H939697   0.370   0.772   4.663 -0.5006 -0.4501  0.6333
  165MOL    H1039698   0.244   0.520   4.771  0.1296 -0.5511  0.3769
  165MOL    H1139699   0.419   0.541   4.737  1.1128 -0.4955  2.2148
  165MOL    H1239700   0.341   0.621   4.872  3.1718  1.6228 -1.0717
  165MOL    H1339701   0.158   0.522   4.402 -0.4019  0.2978 -0.2108
  165MOL    C1439702   0.202   0.775   4.440  0.9531 -0.5524  0.2632
  165MOL    C1539703   0.273   0.914   4.442 -0.2933 -0.0090  0.6560
  165MOL    C1639704   0.183   1.018   4.370  0.3977 -0.4605  0.2222
  165MOL    C1739705   0.050   1.048   4.440 -0.3187  0.1648 -0.3232
  165MOL    H1839706   0.099   0.778   4.475  1.1435 -1.0124  0.8781
  165MOL    H1939707   0.202   0.747   4.335  1.2749  1.0980 -0.1957
  165MOL    H2039708   0.286   0.935   4.548 -1.4921 -0.4508  0.8912
  165MOL    H2139709   0.172   0.991   4.265  0.0592 -1.7470  0.5835
  165MOL    H2239710   0.231   1.116   4.363 -2.2933  0.9611  0.8122
  165MOL    H2339711   7.691   0.964   4.418 -1.4949  0.0517  3.3119
  165MOL    H2439712   0.064   1.064   4.547 -1.2526  0.1438 -0.1981
  165MOL    H2539713   0.008   1.141   4.402  0.5210  0.4600 -0.5620
  165MOL    C2639714   0.408   0.893   4.372 -0.8193  0.0302 -0.0920
  165MOL    C2739715   0.502   1.020   4.337  0.5688  0.1708 -0.0809
  165MOL    C2839716   0.646   0.981   4.283  1.0547 -0.9676 -0.4697
  165MOL    C2939717   0.736   0.888   4.367 -0.4172  0.3371 -0.2489
  165MOL    H3039718   0.389   0.828   4.287  1.1397 -0.3872 -0.2339
  165MOL    H3139719   0.461   0.824   4.437 -0.9965  0.2865  0.3258
  165MOL    H3239720   0.463   1.088   4.261  1.4435 -1.5225 -2.0875
  165MOL    H3339721   0.707   1.071   4.277  0.6348 -0.5546  1.2281
  165MOL    H3439722   0.639   0.950   4.178  2.9397 -2.3587 -0.2178
  165MOL    H3539723   0.732   0.915   4.473 -0.3852  1.0969 -0.4392
  165MOL    H3639724   0.695   0.787   4.357  0.2459  0.3903 -4.3184
  165MOL    H3739725   0.840   0.888   4.335 -0.9022  1.0370 -1.8878
  165MOL    C3839726   0.523   1.122   4.453  0.6320  0.3031 -0.1120
  165MOL    C3939727   0.506   1.266   4.420  0.0539  0.2251  0.3783
  165MOL    C4039728   0.613   1.318   4.320  0.0733  0.6734  0.8762
  165MOL    C4139729   0.583   1.464   4.263  0.2536  0.7981  0.1095
  165MOL    H4239730   0.604   1.091   4.519  2.4512  2.2177 -1.3879
  165MOL    H4339731   0.437   1.104   4.517  0.0169  1.6655 -0.5540
  165MOL    H4439732   0.408   1.272   4.372 -0.5590  0.2369  1.6108
  165MOL    H4539733   0.616   1.248   4.237 -2.9174 -1.1674  2.2598
  165MOL    H4639734   0.715   1.299   4.353 -0.2849  0.0891  1.6751
  165MOL    H4739735   0.489   1.466   4.208 -0.8530  2.5139  1.9902
  165MOL    H4839736   0.577   1.536   4.344 -0.2359  1.4147 -0.4713
  165MOL    H4939737   0.663   1.494   4.195 -0.4551 -0.1003 -1.1294
  165MOL    C5039738   0.519   1.355   4.546 -0.1362 -0.7797 -0.6750
  165MOL    C5139739   0.425   1.331   4.666 -0.2131 -0.4787 -0.2814
  165MOL    C5239740   0.276   1.361   4.627  0.0439 -0.0606 -0.5993
  165MOL    C5339741   0.175   1.291   4.722  0.3384 -0.0414 -0.4715
  165MOL    H5439742   0.493   1.459   4.525 -0.1544 -0.7570 -0.5434
  165MOL    H5539743   0.625   1.359   4.569 -0.2203 -1.6820 -0.1404
  165MOL    H5639744   0.421   1.227   4.697  0.5314 -0.7242 -0.9546
  165MOL    H5739745   0.259   1.309   4.533  0.3019 -1.6112  0.2102
  165MOL    H5839746   0.250   1.467   4.624  0.1544 -0.0594 -1.9562
  165MOL    H5939747   0.079   1.311   4.676  0.4767  3.8235  0.6840
  165MOL    H6039748   0.185   1.184   4.739  1.3297 -0.0315 -0.9772
  165MOL    H6139749   0.177   1.335   4.822  0.4774 -1.3300  0.1027
  165MOL    C6239750   0.455   1.416   4.793 -0.8292 -0.0524  0.2360
  165MOL    C6339751   0.561   1.343   4.882 -0.1242 -0.0778 -0.0479
  165MOL    C6439752   0.479   1.240   4.974 -0.3831 -0.0111 -0.2564
  165MOL    C6539753   0.576   1.124   5.020 -0.4267  0.5529 -0.3951
  165MOL    H6639754   0.367   1.437   4.855  1.0567  2.8063  2.0526
  165MOL    H6739755   0.490   1.516   4.768  1.3169 -0.6004  0.9170
  165MOL    H6839756   0.622   1.284   4.813  1.6549  1.3076  0.3076
  165MOL    H6939757   0.395   1.199   4.918  0.2531 -0.9648 -0.5154
  165MOL    H7039758   0.432   1.287   5.061  0.2711  0.2962 -0.0698
  165MOL    H7139759   0.648   1.101   4.943 -0.2323  3.0368 -0.9970
  165MOL    H7239760   0.622   1.173   5.106  1.4416  0.8825 -1.5660
  165MOL    H7339761   0.526   1.037   5.064  0.1639  1.7219  2.7768
  165MOL    C7439762   0.641   1.448   4.965  0.8422  0.5743 -0.2990
  165MOL    C7539763   0.736   1.536   4.891 -0.6550 -0.0622  0.7140
  165MOL    C7639764   0.868   1.469   4.846  0.2278  0.3721  0.1275
  165MOL    C7739765   0.917   1.510   4.704  0.7080 -0.6506 -0.2701
  165MOL    H7839766   0.687   1.390   5.045  0.8959 -1.7283 -1.9301
  165MOL    H7939767   0.566   1.513   5.010  1.9179  1.1465  0.6674
  165MOL    H8039768   0.698   1.561   4.792  0.0346  2.4467  1.0544
  165MOL    H8139769   0.873   1.360   4.838  0.2299  0.4554 -1.1051
  165MOL    H8239770   0.941   1.501   4.920  0.4351 -0.4878  0.3092
  165MOL    H8339771   0.956   1.610   4.727  0.7251 -0.1466 -2.3632
  165MOL    H8439772   0.983   1.437   4.658  0.1517 -1.0787 -0.3872
  165MOL    H8539773   0.834   1.523   4.635  1.6327 -0.2020 -1.3231
  165MOL    C8639774   0.751   1.671   4.967  0.5997  0.1463  0.6359
  165MOL    C8739775   0.659   1.783   4.926  0.3098  0.1046  0.7385
  165MOL    C8839776   0.741   1.875   4.832  0.3390 -0.0866  0.3637
  165MOL    C8939777   0.668   1.968   4.736  0.8517  0.0784  0.4585
  165MOL    H9039778   0.854   1.705   4.969  0.1823  1.4580  4.1326
  165MOL    H9139779   0.734   1.651   5.073  0.5511 -3.0532  0.0666
  165MOL    H9239780   0.578   1.734   4.872  0.4181 -1.7752  2.2758
  165MOL    H9339781   0.803   1.809   4.773  0.0026  0.3699 -0.5044
  165MOL    H9439782   0.819   1.929   4.886 -1.2400  2.7498 -0.0708
  165MOL    H9539783   0.735   2.037   4.685 -1.0347  0.3519 -1.7761
  165MOL    H9639784   0.621   1.911   4.656  1.1681  0.5586 -0.0653
  165MOL    H9739785   0.592   2.031   4.783 -0.3840 -2.6745  2.2874
  165MOL    C9839786   0.593   1.868   5.033 -0.5056 -0.1308 -0.0410
  165MOL    C9939787   0.491   1.813   5.145 -0.8054  0.4386 -0.0506
  165MOL   C10039788   0.374   1.751   5.082 -0.1711 -0.4830 -0.0232
  165MOL   C10139789   0.283   1.666   5.174 -0.2700  0.2392  0.2882
  165MOL   H10239790   0.544   1.944   4.972 -0.3515 -0.7567 -0.9530
  165MOL   H10339791   0.672   1.929   5.079 -1.1920  0.5114  0.2951
  165MOL   H10439792   0.545   1.745   5.211 -0.4709  0.1279 -0.6431
  165MOL   H10539793   0.410   1.682   5.006 -1.0485 -1.4945  0.4680
  165MOL   H10639794   0.321   1.817   5.013  0.1787  0.0037  0.1714
  165MOL   H10739795   0.192   1.716   5.208  0.0333  1.6696 -0.9332
  165MOL   H10839796   0.251   1.580   5.115 -1.9783  0.1657  1.2913
  165MOL   H10939797   0.326   1.639   5.271  0.3305 -1.6959 -0.5015
  165MOL   C11039798   0.449   1.924   5.237 -0.2079 -0.2829 -0.8416
  165MOL   C11139799   0.549   1.971   5.351  0.1865 -0.1023 -0.1021
  165MOL   C11239800   0.545   1.888   5.483  0.6303 -0.7388  0.4838
  165MOL   C11339801   0.653   1.903   5.590  0.1332  0.0799 -1.2243
  165MOL   H11439802   0.361   1.896   5.296  0.4055  0.7422  0.5828
  165MOL   H11539803   0.414   2.009   5.179 -1.8018  0.9180  1.7583
  165MOL   H11639804   0.648   1.951   5.311 -0.4926 -0.1363 -1.8339
  165MOL   H11739805   0.540   1.781   5.466 -1.3166 -0.3469 -1.5399
  165MOL   H11839806   0.450   1.912   5.531  0.2205  0.9701 -1.1473
  165MOL   H11939807   0.753   1.886   5.552  0.1513 -0.6879 -0.8468
  165MOL   H12039808   0.650   2.003   5.634 -1.8619 -0.4390 -0.1016
  165MOL   H12139809   0.630   1.828   5.665  0.5296  1.9192  0.7998
  165MOL   C12239810   0.564   2.125   5.369  0.8037  0.4006 -0.0067
  165MOL   C12339811   0.609   2.208   5.239  0.3016  0.3969 -0.6166
  165MOL   C12439812   0.749   2.175   5.188 -0.4815 -0.4207  0.6870
  165MOL   C12539813   0.772   2.188   5.035  0.3094 -0.1344  0.6517
  165MOL   H12639814   0.634   2.134   5.452 -0.1460  0.0407  0.8513
  165MOL   H12739815   0.464   2.155   5.399 -1.1881 -2.0356 -3.7974
  165MOL   H12839816   0.543   2.172   5.159  0.9917  1.1131 -1.5082
  165MOL   H12939817   0.773   2.075   5.226  2.5269 -0.2421 -0.6466
  165MOL   H13039818   0.816   2.247   5.235 -1.0806 -0.3758  1.4987
  165MOL   H13139819   0.862   2.126   5.028 -1.5215 -2.8211 -0.3102
  165MOL   H13239820   0.701   2.141   4.968  0.2915  1.7834 -0.7140
  165MOL   H13339821   0.785   2.291   5.003 -0.4537  0.5292  2.4303
  165MOL   C13439822   0.599   2.361   5.250  0.6841  0.8032 -0.9409
  165MOL   C13539823   0.464   2.426   5.280  0.0979 -0.5064 -0.1942
  165MOL   C13639824   0.351   2.367   5.186  0.4216 -0.2553 -0.5446
  165MOL   C13739825   0.218   2.434   5.184  0.4540 -0.1910  0.1435
  165MOL   H13839826   0.639   2.411   5.161 -0.3696  2.1488 -0.6733
  165MOL   H13939827   0.665   2.400   5.328 -1.1691 -0.2335  1.2158
  165MOL   H14039828   0.428   2.399   5.379 -1.0267 -2.2762 -1.0546
  165MOL   H14139829   0.339   2.262   5.214 -0.7724 -0.8100 -3.0006
  165MOL   H14239830   0.398   2.357   5.088 -0.2993  1.2616 -1.0435
  165MOL   H14339831   0.225   2.535   5.144 -2.0530  0.0561  0.2190
  165MOL   H14439832   0.149   2.371   5.128 -1.3714  1.1438  0.8199
  165MOL   H14539833   0.176   2.447   5.284  1.0858  0.4255  0.3347
  165MOL   C14639834   0.480   2.584   5.289 -0.0607  0.0342  0.2835
  165MOL   C14739835   0.577   2.645   5.396  0.3492 -0.0174  0.4144
  165MOL   C14839836   0.533   2.600   5.529 -0.2015  0.3537  0.1164
  165MOL   C14939837   0.395   2.640   5.581 -0.1503 -0.0464 -0.5082
  165MOL   H15039838   0.376   2.614   5.299  0.7206  3.3772 -1.1500
  165MOL   H15139839   0.506   2.621   5.190 -0.2761  0.1106  0.2567
  165MOL   H15239840   0.680   2.610   5.382 -0.9184 -3.0547 -1.7359
  165MOL   H15339841   0.604   2.641   5.602 -0.1779  0.3975  0.0699
  165MOL   H15439842   0.550   2.493   5.542  2.4589  0.7967  0.5786
  165MOL   H15539843   0.321   2.593   5.516  0.7102 -1.3857 -0.5428
  165MOL   H15639844   0.362   2.611   5.680  0.3500  0.2336 -0.2541
  165MOL   H15739845   0.381   2.748   5.588  0.5088 -0.0274  0.6610
  165MOL   C15839846   0.584   2.797   5.385 -0.0607  0.1802 -0.4129
  165MOL   C15939847   0.675   2.885   5.481 -0.1468  0.1575 -0.1519
  165MOL   C16039848   0.663   3.041   5.478 -0.4977  0.2426 -0.0556
  165MOL   C16139849   0.719   3.100   5.351 -0.0127  0.0410 -0.1124
  165MOL   H16239850   0.484   2.841   5.392 -0.2304 -0.3197  0.3225
  165MOL   H16339851   0.635   2.814   5.290  0.5243  0.2351 -0.0898
  165MOL   H16439852   0.641   2.861   5.582 -0.8432  1.5451 -0.0564
  165MOL   H16539853   0.708   3.085   5.568  1.5663  1.8776 -1.8365
  165MOL   H16639854   0.558   3.069   5.477 -0.6504 -0.3483 -0.8201
  165MOL   H16739855   0.820   3.141   5.356  0.3869 -0.9428  0.1284
  165MOL   H16839856   0.722   3.025   5.272  1.7495 -0.3837  0.3241
  165MOL   H16939857   0.663   3.179   5.301  1.2375  1.6297  0.9365
  165MOL   C17039858   0.828   2.833   5.484 -0.3103  0.2249 -0.1227
  165MOL   C17139859   0.876   2.781   5.613  0.3849  0.2545 -0.7067
  165MOL   C17239860   0.926   2.893   5.709  1.0256 -0.3170  0.6865
  165MOL   C17339861   1.055   2.963   5.667 -0.9369  0.3556 -0.6033
  165MOL   H17439862   0.890   2.917   5.453 -0.7526  0.2031 -1.1087
  165MOL   H17539863   0.843   2.754   5.410 -2.6326  1.3026 -1.8068
  165MOL   H17639864   0.787   2.731   5.651  1.4923 -1.8696 -0.8708
  165MOL   H17739865   0.948   2.846   5.805 -1.9414  0.2754  1.7233
  165MOL   H17839866   0.847   2.966   5.728 -2.2348 -3.5691  0.1130
  165MOL   H17939867   1.100   3.010   5.755 -1.3838  0.6811 -0.5463
  165MOL   H18039868   1.139   2.900   5.638 -1.1120 -0.3065  0.3162
  165MOL   H18139869   1.043   3.043   5.593 -2.0153  0.5106 -0.2582
  165MOL   C18239870   0.987   2.673   5.593  0.6656  0.4551 -0.4123
  165MOL   C18339871   0.950   2.526   5.547 -0.6074  1.2422  0.1594
  165MOL   C18439872   0.877   2.439   5.655 -0.0554  0.0557 -0.3582
  165MOL   C18539873   0.838   2.298   5.606  0.2129  0.2050  0.6296
  165MOL   H18639874   1.032   2.661   5.691  0.6508  2.6512 -0.1086
  165MOL   H18739875   1.067   2.719   5.536  0.9034 -0.0778 -0.5135
  165MOL   H18839876   0.872   2.540   5.472 -2.7579  1.0527  2.3078
  165MOL   H18939877   0.792   2.504   5.672 -0.6580 -1.0093  0.8097
  165MOL   H19039878   0.937   2.445   5.746 -2.1443  0.9228  1.0036
  165MOL   H19139879   0.749   2.270   5.662  0.6612  0.4539  1.4594
  165MOL   H19239880   0.820   2.292   5.498  0.8004 -0.3610  0.5579
  165MOL   H19339881   0.911   2.220   5.628 -1.8593 -1.7127  0.9569
  165MOL   C19439882   1.074   2.458   5.488  0.1238  0.2767 -0.4718
  165MOL   C19539883   1.076   2.425   5.336  0.2683  0.6409 -0.0965
  165MOL   C19639884   1.169   2.305   5.321 -0.9246 -0.2613  0.0766
  165MOL   C19739885   1.110   2.166   5.362 -0.4649 -0.2402 -0.6323
  165MOL   H19839886   1.087   2.369   5.550  1.6875  0.1836 -0.9380
  165MOL   H19939887   1.165   2.514   5.506  0.7804 -1.1992  0.9413
  165MOL   H20039888   0.973   2.400   5.308  0.2949 -1.4827  1.5739
  165MOL   H20139889   1.266   2.332   5.363  0.1357  0.6921 -2.8607
  165MOL   H20239890   1.189   2.285   5.216 -2.2385 -0.1425 -0.2075
  165MOL   H20339891   1.104   2.159   5.470 -0.1682  0.6588 -0.5577
  165MOL   H20439892   1.014   2.143   5.315 -1.0002  0.4418  0.1158
  165MOL   H20539893   1.185   2.094   5.328 -2.5307 -2.9334  0.3203
  165MOL   C20639894   1.126   2.546   5.247  0.2602 -0.6911  0.3258
  165MOL   C20739895   1.043   2.671   5.224  0.1607  0.7760 -0.2272
  165MOL   C20839896   0.900   2.637   5.177 -0.1224  0.4065  0.1057
  165MOL   C20939897   0.888   2.577   5.039 -0.2463  0.0139  0.0123
  165MOL   H21039898   1.150   2.510   5.147 -0.0293  1.2831 -0.4922
  165MOL   H21139899   1.220   2.571   5.296  0.2660 -1.8487  0.9173
  165MOL   H21239900   1.030   2.714   5.323  0.1709 -0.8463  0.5070
  165MOL   H21339901   0.833   2.723   5.179 -1.2033 -0.3528 -1.8260
  165MOL   H21439902   0.857   2.562   5.244  0.1959  0.4764  0.3867
  165MOL   H21539903   0.911   2.644   4.956  2.4983 -0.7530  0.1247
  165MOL   H21639904   0.947   2.486   5.040  0.9458  0.7922  2.1719
  165MOL   H21739905   0.788   2.537   5.018 -0.0932 -1.1697  1.4754
  165MOL   C21839906   1.115   2.784   5.145  0.0589 -0.4418 -0.2057
  165MOL   C21939907   1.044   2.926   5.129 -0.2879 -0.4044  0.6774
  165MOL   C22039908   0.990   2.952   4.991  0.0456  0.0631  0.8809
  165MOL   C22139909   0.893   3.068   4.970  0.1606 -0.6406 -0.0392
  165MOL   H22239910   1.121   2.737   5.047 -0.3950  0.4780 -0.6795
  165MOL   H22339911   1.215   2.807   5.183 -1.1500  1.8067  1.6914
  165MOL   H22439912   0.952   2.922   5.187 -0.5572  2.5926  0.5380
  165MOL   H22539913   0.945   2.859   4.957  0.4546  0.0844  0.2618
  165MOL   H22639914   1.073   2.965   4.921 -0.2625 -2.2657  0.0301
  165MOL   H22739915   0.836   3.088   5.060 -0.2804 -1.5612 -0.1008
  165MOL   H22839916   0.938   3.163   4.942 -3.6374  1.4123  0.5348
  165MOL   H22939917   0.824   3.063   4.886  0.4965  0.1398 -0.3648
  165MOL   C23039918   1.136   3.046   5.177 -0.3847 -0.0346  0.0372
  165MOL   C23139919   1.265   3.076   5.102 -0.2242 -0.2419  0.3162
  165MOL   C23239920   1.295   3.224   5.094 -0.1906 -0.4810 -0.0558
  165MOL   C23339921   1.201   3.294   5.007 -0.0755 -1.0957  0.3791
  165MOL   H23439922   1.168   3.039   5.281 -0.2295 -2.7814 -0.1644
  165MOL   H23539923   1.070   3.133   5.174  1.0663  1.0585 -1.3718
  165MOL   H23639924   1.345   3.031   5.161 -1.1977  0.4313  2.2207
  165MOL   H23739925   1.395   3.235   5.053 -0.5062 -0.0692 -0.7189
  165MOL   H23839926   1.303   3.272   5.192 -0.6194  2.2658 -1.3229
  165MOL   H23939927   1.244   3.391   4.984 -0.9510 -0.8228 -0.1627
  165MOL   H24039928   1.181   3.241   4.914  1.7888 -3.2510  1.1732
  165MOL   H24139929   1.101   3.310   5.048 -1.0138  1.1113 -2.5700
  165MOL   H24239930   1.263   3.038   5.000 -2.6380 -1.0244  0.6302
  166MOL     C139931   6.611   7.188   0.186 -0.2337 -0.2502  0.2590
  166MOL     C239932   6.663   7.126   0.313 -0.4391  0.5867  0.2309
  166MOL     C339933   6.604   7.197   0.436 -0.5176 -0.2908 -0.4603
  166MOL     C439934   6.457   7.170   0.452  0.3746  0.2910 -0.1727
  166MOL     H539935   6.639   7.294   0.194  2.5938 -0.8864 -0.7048
  166MOL     H639936   6.659   7.159   0.092  1.2592 -1.7309  1.4625
  166MOL     H739937   6.641   7.019   0.310  1.4680  0.1500  0.6340
  166MOL     H839938   6.623   7.304   0.428  0.1886 -0.3555  0.2537
  166MOL     H939939   6.645   7.156   0.528  0.8841 -0.5838 -1.1967
  166MOL    H1039940   6.406   7.180   0.356 -1.9644  0.5906  1.0626
  166MOL    H1139941   6.438   7.068   0.484 -1.4798  0.7034  0.1549
  166MOL    H1239942   6.409   7.243   0.518  0.4116  0.0580  0.1136
  166MOL    H1339943   6.503   7.182   0.171 -0.1114 -2.2594  0.1039
  166MOL    C1439944   6.817   7.146   0.320 -0.0184  0.5531 -0.1648
  166MOL    C1539945   6.908   7.056   0.233 -0.3519  0.3675 -0.3029
  166MOL    C1639946   6.921   6.917   0.300 -0.3243 -0.2863  0.2034
  166MOL    C1739947   7.033   6.815   0.246 -0.0368 -0.1778  0.1713
  166MOL    H1839948   6.853   7.134   0.422  1.4704 -0.7470 -0.8131
  166MOL    H1939949   6.829   7.252   0.298  0.1279  0.2543 -1.6314
  166MOL    H2039950   6.874   7.050   0.130 -2.4975 -0.2614  0.4062
  166MOL    H2139951   6.818   6.884   0.311 -0.0760 -0.8636  0.7935
  166MOL    H2239952   6.952   6.957   0.396  2.2568 -0.3908 -0.5472
  166MOL    H2339953   7.133   6.855   0.233 -0.1228 -0.3599 -1.1053
  166MOL    H2439954   7.045   6.734   0.318  1.9550  0.7804  0.9601
  166MOL    H2539955   7.012   6.773   0.147  0.5621 -1.1419  0.4426
  166MOL    C2639956   7.053   7.119   0.218 -0.4798 -0.2343 -0.5985
  166MOL    C2739957   7.059   7.264   0.156 -0.4662  0.0286 -0.3848
  166MOL    C2839958   7.007   7.279   0.014  0.0436  1.0474  0.1449
  166MOL    C2939959   7.087   7.194   7.612 -0.0427  0.1782 -0.1133
  166MOL    H3039960   7.121   7.059   0.157 -0.0297 -3.2777  2.8163
  166MOL    H3139961   7.098   7.134   0.316  0.2857  1.6487 -1.2051
  166MOL    H3239962   6.998   7.330   0.218  0.8148  0.7657  0.1265
  166MOL    H3339963   7.008   7.384   7.693 -0.2416  1.0534  0.1612
  166MOL    H3439964   6.905   7.239   0.014  0.4340 -0.0257 -1.6131
  166MOL    H3539965   7.188   7.227   7.587  0.3897 -1.5183 -0.6421
  166MOL    H3639966   7.090   7.086   7.626  2.7097  0.6065  3.1917
  166MOL    H3739967   7.033   7.214   7.519  1.4108 -1.3540 -1.3193
  166MOL    C3839968   7.202   7.330   0.166  0.1516  0.0246 -0.4191
  166MOL    C3939969   7.212   7.460   0.254  0.6778  0.7925 -0.4560
  166MOL    C4039970   7.153   7.585   0.182  0.0086  0.3027 -0.0621
  166MOL    C4139971   7.209   7.619   0.040  0.4407  0.4126 -0.2679
  166MOL    H4239972   7.247   7.344   0.068  2.8741  2.0891  1.0410
  166MOL    H4339973   7.272   7.265   0.220  1.5403  3.1162  1.6696
  166MOL    H4439974   7.157   7.446   0.348  0.8724  1.3718 -0.2558
  166MOL    H4539975   7.167   7.669   0.250  1.0000 -0.4424  0.6841
  166MOL    H4639976   7.044   7.577   0.188  0.0224 -1.3830 -1.8440
  166MOL    H4739977   7.149   7.688   7.686 -0.4770  0.0038  0.1721
  166MOL    H4839978   7.304   7.673   0.044  1.7994 -1.9242 -0.4967
  166MOL    H4939979   7.216   7.529   7.685 -0.7919 -1.0377  1.6571
  166MOL    C5039980   7.361   7.480   0.298 -0.1217 -0.2708 -0.1271
  166MOL    C5139981   7.404   7.605   0.377 -0.2818 -0.5140 -0.0691
  166MOL    C5239982   7.555   7.619   0.373  0.3783  0.1045  0.1667
  166MOL    C5339983   7.632   7.497   0.421  0.0172  0.3331 -0.7721
  166MOL    H5439984   7.432   7.486   0.215 -1.6593  0.0034 -1.4498
  166MOL    H5539985   7.393   7.386   0.343 -0.1686  0.4704  1.4768
  166MOL    H5639986   7.359   7.693   0.332 -3.4710 -1.4948  1.0474
  166MOL    H5739987   7.584   7.706   0.433  1.6971 -0.2836  0.1025
  166MOL    H5839988   7.588   7.646   0.273 -0.8622  1.5393  0.1246
  166MOL    H5939989   7.606   7.398   0.382 -1.9824  0.2913  0.6149
  166MOL    H6039990   0.027   7.516   0.383  0.6210 -1.2776 -0.0252
  166MOL    H6139991   7.637   7.475   0.528  1.1541 -0.3336 -0.9431
  166MOL    C6239992   7.353   7.595   0.521 -0.5424 -0.4025 -0.1229
  166MOL    C6339993   7.252   7.699   0.578 -0.1561 -0.3236  0.5014
  166MOL    C6439994   7.317   0.122   0.627 -0.3316 -0.3320  0.3612
  166MOL    C6539995   7.341   0.222   0.511 -0.0144  0.3175  0.2405
  166MOL    H6639996   7.437   7.585   0.590  0.6714 -1.0713 -1.6766
  166MOL    H6739997   7.302   7.499   0.530  0.5403 -0.9734 -0.0499
  166MOL    H6839998   7.189   0.025   0.496 -0.0588 -0.6256  0.3095
  166MOL    H6939999   7.404   0.100   0.688  1.7274 -1.7037 -2.8999
  166MOL    H7040000   7.248   0.167   0.698 -0.3726  1.1382 -0.6007
  166MOL    H7140001   7.407   0.188   0.431  0.1231  0.1485  0.4228
  166MOL    H7240002   7.244   0.238   0.466  0.5428  1.7120 -0.4977
  166MOL    H7340003   7.368   0.320   0.550  0.7968 -0.6884  2.3084
  166MOL    C7440004   7.165   7.642   0.693  0.3255  0.7484 -0.5929
  166MOL    C7540005   7.027   0.010   0.713 -0.0666 -0.0250  0.1065
  166MOL    C7640006   6.997   0.007   0.860  0.9271  0.2591 -0.1047
  166MOL    C7740007   7.071   0.115   0.946 -0.0381 -0.2220 -0.1636
  166MOL    H7840008   7.229   7.638   0.782 -2.0385 -1.6972  1.0713
  166MOL    H7940009   7.147   7.535   0.681 -0.5954  0.9145 -0.6951
  166MOL    H8040010   7.024   0.110   0.672  1.0824  0.2007  0.5603
  166MOL    H8140011   7.008   7.614   0.905 -1.6886 -2.0821 -4.2425
  166MOL    H8240012   6.892   0.033   0.878  0.9303 -0.4562  0.9887
  166MOL    H8340013   7.068   0.216   0.906 -1.4318 -0.2075 -0.0413
  166MOL    H8440014   7.025   0.122   1.044  0.1698  0.1837 -0.0929
  166MOL    H8540015   7.172   0.083   0.973 -0.6212 -3.1398 -1.2256
  166MOL    C8640016   6.922   7.637   0.629 -0.6947  0.0694  0.2720
  166MOL    C8740017   6.832   0.024   0.540 -0.5883  0.0491 -1.4214
  166MOL    C8840018   6.714   7.646   0.491 -0.4265 -0.5766 -0.5084
  166MOL    C8940019   6.589   7.658   0.574  0.5186  0.4149  0.4937
  166MOL    H9040020   6.851   7.595   0.700  1.0985 -0.0827  2.0094
  166MOL    H9140021   6.965   7.555   0.571  1.7551  1.4521  0.0528
  166MOL    H9240022   6.791   0.098   0.608  2.3443 -1.8492  2.6310
  166MOL    H9340023   6.738   7.543   0.466 -0.5312 -0.3464 -1.5821
  166MOL    H9440024   6.670   7.697   0.406  0.9215  0.0599 -0.8520
  166MOL    H9540025   6.551   0.055   0.571 -1.0359 -0.1204  1.6691
  166MOL    H9640026   6.512   7.592   0.534  1.5581 -0.6876  0.2863
  166MOL    H9740027   6.609   7.635   0.678  0.4147 -0.5838  0.2935
  166MOL    C9840028   6.906   0.097   0.429 -0.0208 -0.1536 -0.9634
  166MOL    C9940029   6.840   0.227   0.367  0.2054  0.6689  0.4731
  166MOL   C10040030   6.899   0.257   0.219 -0.3923 -0.3008 -0.0846
  166MOL   C10140031   7.049   0.294   0.211 -0.2827 -0.5040 -0.3365
  166MOL   H10240032   6.934   0.024   0.353  2.0460  0.2294 -0.6136
  166MOL   H10340033   7.007   0.121   0.463  0.2280  0.8795 -2.3962
  166MOL   H10440034   6.734   0.205   0.356  0.1759  2.2081 -2.9792
  166MOL   H10540035   6.841   0.326   0.158  0.2426 -0.0505 -0.4031
  166MOL   H10640036   6.880   0.166   0.161 -0.8764 -0.6012  0.5326
  166MOL   H10740037   7.087   0.311   0.110  0.0885 -0.8758 -0.2627
  166MOL   H10840038   7.080   0.383   0.264 -2.3891 -0.5021  0.9418
  166MOL   H10940039   7.100   0.204   0.247  0.4404 -1.0266 -2.5109
  166MOL   C11040040   6.857   0.354   0.458 -0.0031 -0.2564  0.2223
  166MOL   C11140041   6.788   0.491   0.425 -0.2585  0.2385 -0.0671
  166MOL   C11240042   6.871   0.607   0.360  0.4698  0.1084 -0.4838
  166MOL   C11340043   6.970   0.679   0.455 -0.0345 -0.2290  0.9440
  166MOL   H11440044   6.963   0.377   0.455 -0.2047  0.7959  0.7537
  166MOL   H11540045   6.851   0.329   0.564 -3.0012 -1.5333 -0.1961
  166MOL   H11640046   6.712   0.462   0.353  0.2960 -0.5007 -0.3640
  166MOL   H11740047   6.805   0.679   0.311 -0.8801  0.6518  2.0478
  166MOL   H11840048   6.926   0.560   0.279 -0.3098 -0.5370 -0.6312
  166MOL   H11940049   6.931   0.748   0.530  0.9309  2.6531 -1.1429
  166MOL   H12040050   7.014   0.593   0.506 -0.4967 -0.8118  0.3734
  166MOL   H12140051   7.050   0.726   0.398  0.1756 -1.1117  0.5011
  166MOL   C12240052   6.707   0.541   0.537  0.3992 -0.5324 -0.5926
  166MOL   C12340053   6.588   0.459   0.593 -0.1332  0.0451 -0.2460
  166MOL   C12440054   6.469   0.450   0.491 -0.0862  0.0417 -0.2001
  166MOL   C12540055   6.397   0.589   0.469  0.0073  0.2640 -0.0152
  166MOL   H12640056   6.671   0.642   0.517 -1.1760 -0.6882  1.2643
  166MOL   H12740057   6.786   0.548   0.613  0.0372 -3.4614  0.1323
  166MOL   H12840058   6.622   0.359   0.621 -1.2666 -0.1329  0.5185
  166MOL   H12940059   6.394   0.377   0.522 -1.1803  0.7660 -1.0760
  166MOL   H13040060   6.510   0.411   0.398 -1.3927  0.2536 -0.8864
  166MOL   H13140061   6.328   0.584   0.385 -0.8648  0.9945  0.6430
  166MOL   H13240062   6.347   0.618   0.561 -1.1961 -0.6135 -0.3781
  166MOL   H13340063   6.469   0.667   0.445  1.9114 -1.5591 -0.4414
  166MOL   C13440064   6.530   0.499   0.730  0.0778 -0.5427  0.0281
  166MOL   C13540065   6.611   0.456   0.857  0.1708  1.0475  0.0739
  166MOL   C13640066   6.565   0.311   0.906  0.4248  0.1452  0.6854
  166MOL   C13740067   6.675   0.216   0.961  0.3094  0.2782  0.2728
  166MOL   H13840068   6.432   0.458   0.753  0.1392 -1.0973 -0.6874
  166MOL   H13940069   6.514   0.606   0.721  0.5387 -0.4486  0.3011
  166MOL   H14040070   6.720   0.456   0.847  0.0992  0.0841 -0.7625
  166MOL   H14140071   6.536   0.260   0.814 -1.6629 -0.1050  1.4399
  166MOL   H14240072   6.476   0.328   0.967  2.0153  1.2059  2.7335
  166MOL   H14340073   6.727   0.256   1.048 -1.3758  2.2934  0.3883
  166MOL   H14440074   6.629   0.123   0.997 -0.5169 -0.3678 -2.3195
  166MOL   H14540075   6.740   0.190   0.877 -0.7666 -0.0248 -0.4925
  166MOL   C14640076   6.595   0.556   0.976  0.0499 -0.9512  0.6525
  166MOL   C14740077   6.702   0.545   1.087 -0.0859  0.1149 -0.0908
  166MOL   C14840078   6.632   0.537   1.220 -0.2277  0.2364  0.3926
  166MOL   C14940079   6.714   0.478   1.336  0.1863  0.5411 -0.6147
  166MOL   H15040080   6.492   0.552   1.011 -0.8128  1.7079 -1.4327
  166MOL   H15140081   6.612   0.655   0.933  0.5608 -0.4664  1.9316
  166MOL   H15240082   6.754   0.449   1.081  0.2177  0.2410  0.4626
  166MOL   H15340083   6.549   0.467   1.205  0.6219 -0.6471 -0.2130
  166MOL   H15440084   6.587   0.630   1.255 -0.7983  0.3011 -0.5006
  166MOL   H15540085   6.648   0.473   1.422 -0.2134 -3.3172 -1.0571
  166MOL   H15640086   6.754   0.377   1.320 -0.2589  0.3572 -0.5741
  166MOL   H15740087   6.797   0.543   1.364  0.3005 -0.1065  0.5936
  166MOL   C15840088   6.815   0.653   1.095  0.6204  0.3140  0.3344
  166MOL   C15940089   6.899   0.646   0.963 -0.9230  0.2009  0.6826
  166MOL   C16040090   6.986   0.513   0.942  0.0024 -0.3922  0.1678
  166MOL   C16140091   7.055   0.500   0.805 -0.2734 -0.2600 -0.3446
  166MOL   H16240092   6.887   0.639   1.176 -0.3358 -0.9231  1.0011
  166MOL   H16340093   6.769   0.750   1.112 -1.5955 -0.7998  1.0560
  166MOL   H16440094   6.843   0.674   0.874  0.7161  1.6349  0.0774
  166MOL   H16540095   6.917   0.429   0.938 -1.2237  0.6183 -0.7011
  166MOL   H16640096   7.059   0.501   1.022  2.4875  0.9204 -1.8071
  166MOL   H16740097   7.163   0.506   0.814 -0.3482  0.5927  0.0696
  166MOL   H16840098   7.034   0.404   0.757  1.4465 -0.0376 -1.5632
  166MOL   H16940099   7.040   0.578   0.730 -2.0055 -1.2941 -1.1110
  166MOL   C17040100   7.005   0.763   0.978  0.3802 -0.2433 -0.4632
  166MOL   C17140101   6.946   0.899   0.950  0.0680 -0.5053  0.3245
  166MOL   C17240102   6.940   0.928   0.797 -0.0591 -0.1016 -0.5667
  166MOL   C17340103   6.866   1.059   0.766 -0.2607  0.0334  0.1329
  166MOL   H17440104   7.091   0.735   0.917 -0.1048 -1.1514 -0.7490
  166MOL   H17540105   7.037   0.758   1.082  1.8976  2.2417 -0.7842
  166MOL   H17640106   6.843   0.907   0.985  0.5709 -0.8081  1.9219
  166MOL   H17740107   6.908   0.837   0.746 -2.2302 -0.0026  0.5841
  166MOL   H17840108   7.041   0.936   0.756 -0.1394 -3.1190 -1.4650
  166MOL   H17940109   6.897   1.109   0.675  1.3985  0.2374  0.7898
  166MOL   H18040110   6.757   1.051   0.772 -0.2884 -0.4081 -0.9750
  166MOL   H18140111   6.893   1.140   0.834  0.9001 -1.5156  1.5408
  166MOL   C18240112   7.035   1.001   1.019  0.4466 -0.2893  0.1303
  166MOL   C18340113   7.021   1.013   1.171 -0.4976 -0.5442  0.7548
  166MOL   C18440114   6.882   1.045   1.228  0.6121  0.1319 -0.0011
  166MOL   C18540115   6.812   1.180   1.208  0.0467 -0.1491  0.1549
  166MOL   H18640116   7.013   1.102   0.983 -0.5989 -0.9081 -1.0013
  166MOL   H18740117   7.136   0.981   0.984  0.8266 -0.2232  1.1641
  166MOL   H18840118   7.046   0.919   1.220  1.0792 -0.4564  0.1617
  166MOL   H18940119   6.897   1.029   1.335 -1.4230 -0.0475  0.2784
  166MOL   H19040120   6.807   0.972   1.198  1.0384 -0.4053  0.2219
  166MOL   H19140121   6.870   1.264   1.247  0.5762 -0.1108 -0.7024
  166MOL   H19240122   6.792   1.200   1.103 -1.3335 -0.1718  0.4080
  166MOL   H19340123   6.713   1.182   1.254 -0.5064  1.2388 -1.0277
  166MOL   C19440124   7.135   1.099   1.227 -0.3328 -0.1036 -0.2656
  166MOL   C19540125   7.170   1.088   1.380 -0.1730 -0.1952  0.1244
  166MOL   C19640126   7.220   1.224   1.429  0.3906 -0.3651 -0.2012
  166MOL   C19740127   7.110   1.329   1.443  0.2872  0.0563 -0.2695
  166MOL   H19840128   7.118   1.198   1.186  0.2203  0.4729  0.8908
  166MOL   H19940129   7.234   1.084   1.183 -0.5217  1.8783 -1.3982
  166MOL   H20040130   7.084   1.062   1.443  1.1160 -0.3226  1.8770
  166MOL   H20140131   7.299   1.251   1.358  0.6870 -2.1454 -0.5579
  166MOL   H20240132   7.265   1.223   1.528  1.1778 -3.4430 -0.5392
  166MOL   H20340133   7.035   1.294   1.514 -0.4456 -1.2900 -1.6835
  166MOL   H20440134   7.146   1.423   1.487 -1.3407  0.3722  0.4300
  166MOL   H20540135   7.060   1.347   1.348 -0.9095  2.4745  0.7695
  166MOL   C20640136   7.287   0.990   1.416 -0.2324 -0.0283 -0.1746
  166MOL   C20740137   7.280   0.844   1.365 -0.1520 -0.4108 -0.4824
  166MOL   C20840138   7.194   0.758   1.466 -0.1279  0.1134  0.3075
  166MOL   C20940139   7.137   0.625   1.411  0.0351 -0.3788  0.0663
  166MOL   H21040140   7.329   0.989   1.516  0.1749 -0.9133 -0.3578
  166MOL   H21140141   7.380   1.029   1.376  0.7253 -0.5157  1.5336
  166MOL   H21240142   7.222   0.846   1.273 -2.7913  0.4065  1.1631
  166MOL   H21340143   7.109   0.817   1.499 -0.8842 -2.2256  2.7053
  166MOL   H21440144   7.250   0.745   1.559 -1.3583 -1.5088  0.8278
  166MOL   H21540145   7.067   0.646   1.330 -2.6507  2.3606  2.9458
  166MOL   H21640146   7.220   0.562   1.378  0.2171 -0.6740  1.0593
  166MOL   H21740147   7.097   0.570   1.496 -0.2095  0.7727  0.6996
  166MOL   C21840148   7.421   0.789   1.331  0.1436 -0.1534 -0.1038
  166MOL   C21940149   7.484   0.840   1.205 -0.4225  0.2983  0.3693
  166MOL   C22040150   7.413   0.764   1.085  0.2212 -0.0662 -0.0769
  166MOL   C22140151   7.449   0.826   0.950  0.1670  0.6994 -0.3901
  166MOL   H22240152   7.410   0.680   1.331 -1.5006 -0.0075 -0.0779
  166MOL   H22340153   7.482   0.809   1.419 -1.1646 -0.9995  1.0327
  166MOL   H22440154   7.477   0.948   1.197  0.6526  0.2464 -1.5948
  166MOL   H22540155   7.304   0.770   1.082  0.2438  0.1206 -0.6020
  166MOL   H22640156   7.433   0.657   1.086 -1.3904 -0.3840  1.4746
  166MOL   H22740157   7.556   0.835   0.932  0.7660  0.5202  2.7390
  166MOL   H22840158   7.421   0.763   0.866 -0.4302 -1.1876  1.1803
  166MOL   H22940159   7.410   0.927   0.937  0.6554  0.7905 -1.1461
  166MOL   C23040160   7.635   0.809   1.210 -0.1007  0.8709  0.0535
  166MOL   C23140161   0.022   0.864   1.325 -0.1050 -0.0925  0.2197
  166MOL   C23240162   0.026   1.018   1.329 -0.1133 -0.1209  0.8725
  166MOL   C23340163   0.118   1.082   1.441 -0.2730 -1.2451 -0.8065
  166MOL   H23440164   7.677   0.835   1.113  1.6398  3.5877  1.4694
  166MOL   H23540165   7.641   0.700   1.209 -1.9438  0.7464 -2.1073
  166MOL   H23640166   0.007   0.821   1.424 -0.3990  1.1795  0.7323
  166MOL   H23740167   7.630   1.054   1.342 -0.2841 -0.4447  0.4436
  166MOL   H23840168   0.059   1.049   1.229 -0.5929 -0.4341  0.6125
  166MOL   H23940169   0.074   1.097   1.540 -1.6112 -1.4930 -1.3559
  166MOL   H24040170   0.210   1.024   1.452  0.0056 -0.8259 -0.8982
  166MOL   H24140171   0.149   1.184   1.414 -2.8108 -0.2701 -0.1765
  166MOL   H24240172   0.128   0.839   1.311  0.2323  0.3243  1.9191
  167MOL     C140173   4.277   4.716   2.260  0.4627  0.3053 -0.2881
  167MOL     C240174   4.304   4.727   2.407  0.1984 -0.2443  0.2528
  167MOL     C340175   4.423   4.649   2.455 -0.0756  1.1474  0.2108
  167MOL     C440176   4.477   4.683   2.591  0.5480 -0.1349  0.1049
  167MOL     H540177   4.220   4.802   2.226 -1.2449 -0.5239  0.3955
  167MOL     H640178   4.372   4.707   2.207  1.5202 -0.4905  1.6906
  167MOL     H740179   4.334   4.831   2.412  4.8488 -1.4777  0.0394
  167MOL     H840180   4.494   4.684   2.379  0.3871 -1.2359 -0.5043
  167MOL     H940181   4.397   4.543   2.449  1.7349  0.3864  4.1159
  167MOL    H1040182   4.566   4.624   2.614 -0.4390 -0.6349  2.7889
  167MOL    H1140183   4.513   4.785   2.573 -2.1567  0.8716  0.2373
  167MOL    H1240184   4.406   4.663   2.671 -0.8013  0.5390 -0.9074
  167MOL    H1340185   4.215   4.629   2.241 -0.8971  1.4089 -0.9333
  167MOL    C1440186   4.181   4.706   2.490  0.1226  0.2397  0.3459
  167MOL    C1540187   4.077   4.821   2.489 -0.5722 -0.2996  0.2089
  167MOL    C1640188   4.136   4.955   2.547  0.3984 -0.8477 -0.7499
  167MOL    C1740189   4.174   4.957   2.697  0.3579 -0.5674  0.4461
  167MOL    H1840190   4.194   4.685   2.596 -1.0182 -0.3549  0.3770
  167MOL    H1940191   4.139   4.619   2.439 -2.2400  0.2469  2.1727
  167MOL    H2040192   4.038   4.846   2.390  0.0588 -1.8451 -0.4425
  167MOL    H2140193   4.063   5.033   2.527  1.6333  0.1313 -1.4703
  167MOL    H2240194   4.222   4.987   2.489  1.0517 -1.2768 -0.0340
  167MOL    H2340195   4.088   4.950   2.763 -0.2075 -0.4966 -0.2787
  167MOL    H2440196   4.247   4.880   2.723  0.4096 -0.4652  0.6054
  167MOL    H2540197   4.223   5.051   2.725 -0.3186 -0.5969  1.7809
  167MOL    C2640198   3.961   4.773   2.581 -0.2042 -0.7519 -0.7460
  167MOL    C2740199   3.868   4.662   2.525  0.0817  0.4431  0.1686
  167MOL    C2840200   3.778   4.694   2.404  0.6204  0.0841  0.4314
  167MOL    C2940201   3.665   4.798   2.424 -0.3968  0.8503 -0.2403
  167MOL    H3040202   3.905   4.867   2.584  1.4296  0.2063  1.2920
  167MOL    H3140203   3.994   4.761   2.684 -2.3912  1.8938  0.3198
  167MOL    H3240204   3.939   4.583   2.503  2.0099  1.2358  3.1784
  167MOL    H3340205   3.730   4.602   2.371  0.5865 -0.4736  2.0283
  167MOL    H3440206   3.840   4.733   2.323 -0.5923  0.3241 -0.3930
  167MOL    H3540207   3.623   4.786   2.524  1.4276  2.5167  0.7447
  167MOL    H3640208   3.713   4.895   2.426  1.5699 -0.1136 -0.2121
  167MOL    H3740209   3.594   4.785   2.341  0.5655  1.1282 -1.1106
  167MOL    C3840210   3.772   4.605   2.638  0.1238 -0.0260  0.4498
  167MOL    C3940211   3.848   4.518   2.743 -0.8266  0.0130  0.2323
  167MOL    C4040212   3.853   4.368   2.702  0.0409  1.2538  0.0236
  167MOL    C4140213   3.952   4.274   2.781  0.0560 -0.4411 -0.2062
  167MOL    H4240214   3.694   4.548   2.587 -0.1928  0.6552  0.1648
  167MOL    H4340215   3.720   4.688   2.685 -1.4269  0.8862 -2.7358
  167MOL    H4440216   3.951   4.550   2.763 -1.3371  2.5517 -1.0153
  167MOL    H4540217   3.887   4.356   2.599 -0.5628  2.7350 -0.3670
  167MOL    H4640218   3.753   4.325   2.705  0.8016 -0.8240 -2.6295
  167MOL    H4740219   3.926   4.267   2.887 -0.7833 -0.9346 -0.4350
  167MOL    H4840220   3.951   4.172   2.743  1.6277 -0.3427 -0.5440
  167MOL    H4940221   4.054   4.310   2.790  0.5030 -1.7736  0.0365
  167MOL    C5040222   3.762   4.521   2.871  0.1087 -0.4320  0.1133
  167MOL    C5140223   3.781   4.645   2.964  0.4529 -0.0255  0.6089
  167MOL    C5240224   3.896   4.623   3.065 -0.2765  0.1338  0.4340
  167MOL    C5340225   3.951   4.750   3.132  0.7518 -0.1682  0.6612
  167MOL    H5440226   3.779   4.437   2.939 -2.2682 -1.3110 -0.3179
  167MOL    H5540227   3.658   4.517   2.839  0.3671  1.7611 -1.1475
  167MOL    H5640228   3.802   4.732   2.902  2.9464 -0.0518  1.3504
  167MOL    H5740229   3.981   4.580   3.011 -0.8253  0.0980 -0.4135
  167MOL    H5840230   3.884   4.549   3.144 -1.9714 -0.1572 -0.0659
  167MOL    H5940231   3.928   4.742   3.238  2.2836  1.1421  1.1165
  167MOL    H6040232   4.057   4.773   3.123  0.4142  0.3473 -2.8749
  167MOL    H6140233   3.904   4.846   3.109  0.5769 -0.7304 -1.4042
  167MOL    C6240234   3.654   4.660   3.050 -0.1851 -0.1146  0.2573
  167MOL    C6340235   3.523   4.716   2.991 -0.1543  0.4156 -0.1912
  167MOL    C6440236   3.548   4.845   2.903  0.6584 -0.9567  0.2794
  167MOL    C6540237   3.623   4.949   2.976 -0.7844 -0.1147  0.3312
  167MOL    H6640238   3.682   4.727   3.132  0.9278 -0.2911  0.0273
  167MOL    H6740239   3.614   4.567   3.091 -2.3571  1.0113  0.7627
  167MOL    H6840240   3.504   4.632   2.924  0.7874  0.0362  0.0169
  167MOL    H6940241   3.456   4.901   2.884  0.1065 -1.4677  1.3975
  167MOL    H7040242   3.593   4.812   2.810  0.7587  1.2814 -0.5079
  167MOL    H7140243   3.616   5.048   2.931 -3.1054 -0.3407  0.1432
  167MOL    H7240244   3.583   4.960   3.077 -2.7744 -0.1928 -0.4281
  167MOL    H7340245   3.730   4.931   2.982 -0.3818  1.5758 -1.4147
  167MOL    C7440246   3.405   4.732   3.091  0.0394 -0.0675  0.1005
  167MOL    C7540247   3.264   4.731   3.025  0.0182  0.4098 -0.0200
  167MOL    C7640248   3.170   4.806   3.125  0.5718  0.6293  0.1965
  167MOL    C7740249   3.027   4.804   3.076  0.4474  0.4981  0.3593
  167MOL    H7840250   3.412   4.828   3.143 -1.6563 -0.3607  0.9067
  167MOL    H7940251   3.410   4.657   3.170 -1.8834  0.4664  0.7648
  167MOL    H8040252   3.263   4.798   2.939  1.2139 -0.3874 -0.6707
  167MOL    H8140253   3.206   4.908   3.125 -0.4948  1.0729  3.4861
  167MOL    H8240254   3.186   4.771   3.227  0.7758  0.1519  0.0038
  167MOL    H8340255   2.980   4.710   3.103 -0.9384  1.5580  1.7212
  167MOL    H8440256   2.963   4.879   3.123 -1.1520 -0.4668 -0.2074
  167MOL    H8540257   3.012   4.825   2.970  1.0141 -0.6753  0.0410
  167MOL    C8640258   3.218   4.591   3.000  0.3505  0.5294 -0.2761
  167MOL    C8740259   3.140   4.563   2.867 -0.4175 -0.3936  0.0637
  167MOL    C8840260   3.062   4.431   2.878  0.3054  0.2219  0.3556
  167MOL    C8940261   2.920   4.452   2.941  0.0465 -0.7074  0.4253
  167MOL    H9040262   3.170   4.566   3.094 -0.3643  0.5415 -0.6317
  167MOL    H9140263   3.309   4.530   2.998 -0.8959 -1.3637 -0.0921
  167MOL    H9240264   3.063   4.640   2.877  0.5114  0.4871  0.5565
  167MOL    H9340265   3.118   4.375   2.953  1.5125 -0.1437 -0.8003
  167MOL    H9440266   3.068   4.379   2.783  0.5499  0.0404  0.4711
  167MOL    H9540267   2.874   4.541   2.900 -1.8008 -1.9781 -0.3323
  167MOL    H9640268   2.849   4.375   2.913  0.6531 -1.0610 -0.1776
  167MOL    H9740269   2.916   4.451   3.050 -0.0584  0.4260  0.4346
  167MOL    C9840270   3.239   4.570   2.744 -0.3539  0.2363  0.0236
  167MOL    C9940271   3.171   4.605   2.610 -0.1055 -0.1560 -0.2226
  167MOL   C10040272   3.263   4.610   2.491 -0.4412  0.3226  0.8401
  167MOL   C10140273   3.212   4.565   2.352 -0.4541  0.5361  0.0849
  167MOL   H10240274   3.292   4.474   2.742 -1.0208 -0.1843  1.5439
  167MOL   H10340275   3.323   4.634   2.768 -1.0106  1.2056 -0.2444
  167MOL   H10440276   3.100   4.526   2.589  1.2293 -1.6304  0.6657
  167MOL   H10540277   3.347   4.543   2.511 -1.7040 -1.4178  0.4605
  167MOL   H10640278   3.324   4.700   2.487  0.2639 -0.1876 -0.2769
  167MOL   H10740279   3.158   4.470   2.355  0.7488 -0.2421 -1.8794
  167MOL   H10840280   3.163   4.638   2.288  0.6956  0.5608 -0.7742
  167MOL   H10940281   3.301   4.539   2.296 -1.1171 -0.2903 -0.6041
  167MOL   C11040282   3.093   4.746   2.612  0.1110 -0.3156 -0.7688
  167MOL   C11140283   2.955   4.759   2.547 -1.0077  0.4573 -0.3171
  167MOL   C11240284   2.920   4.911   2.515  0.4360  0.3354 -0.0330
  167MOL   C11340285   2.884   5.010   2.626 -0.3696  0.5361 -0.4631
  167MOL   H11440286   3.152   4.821   2.559 -0.8973  2.5024  1.9283
  167MOL   H11540287   3.088   4.781   2.715 -2.1430  0.7486 -1.2225
  167MOL   H11640288   2.958   4.705   2.452 -2.0980 -1.9891  1.0066
  167MOL   H11740289   2.846   4.919   2.435  0.7334 -0.4937 -0.3936
  167MOL   H11840290   3.015   4.947   2.474 -0.1799  1.7824 -0.2100
  167MOL   H11940291   2.811   4.966   2.694  2.7172  1.4542  3.6280
  167MOL   H12040292   2.974   5.017   2.688  0.9353 -1.6122 -2.0480
  167MOL   H12140293   2.838   5.106   2.601  0.0297  0.7781 -0.2841
  167MOL   C12240294   2.843   4.697   2.626  0.4647 -0.7388 -0.4877
  167MOL   C12340295   2.699   4.712   2.576 -0.1259 -0.2048 -0.5707
  167MOL   C12440296   2.604   4.641   2.678  0.4420 -0.6270 -0.6413
  167MOL   C12540297   2.587   4.744   2.796  0.3418  0.2598  0.2677
  167MOL   H12640298   2.849   4.728   2.731 -0.9462 -0.0245 -0.6003
  167MOL   H12740299   2.863   4.591   2.646 -0.2091 -0.7878 -0.0221
  167MOL   H12840300   2.673   4.817   2.563 -0.9637 -0.5864 -2.0498
  167MOL   H12940301   2.634   4.539   2.701 -2.2594 -1.6072 -1.2780
  167MOL   H13040302   2.504   4.631   2.637  0.7179 -0.5894 -1.3233
  167MOL   H13140303   2.675   4.752   2.859  2.0221  0.7487 -2.0541
  167MOL   H13240304   2.554   4.836   2.747  1.4651 -1.0328 -3.0852
  167MOL   H13340305   2.515   4.702   2.865  1.1610 -2.9348 -0.7596
  167MOL   C13440306   2.674   4.644   2.436 -0.8933  0.5658 -0.8859
  167MOL   C13540307   2.542   4.676   2.363 -0.7029  0.2674  0.3795
  167MOL   C13640308   2.524   4.591   2.239  0.3865 -0.1776 -0.0355
  167MOL   C13740309   2.436   4.468   2.264 -0.6237 -0.6357  0.3477
  167MOL   H13840310   2.675   4.535   2.444 -0.3319  0.6330  0.1221
  167MOL   H13940311   2.758   4.656   2.368  0.9453 -0.5984  1.0841
  167MOL   H14040312   2.464   4.645   2.433 -0.6498 -0.3249  0.1714
  167MOL   H14140313   2.618   4.542   2.211 -0.5221 -1.5469 -0.7133
  167MOL   H14240314   2.488   4.649   2.154 -1.0518 -1.8882 -0.6059
  167MOL   H14340315   2.445   4.413   2.171 -0.8482 -1.4392  0.8038
  167MOL   H14440316   2.458   4.401   2.347 -0.9992  0.0989  1.0481
  167MOL   H14540317   2.331   4.496   2.270 -0.7889 -0.4752 -2.5703
  167MOL   C14640318   2.536   4.831   2.329 -0.1274 -0.4414  0.7554
  167MOL   C14740319   2.415   4.887   2.247 -0.4293 -0.4132 -0.0291
  167MOL   C14840320   2.428   5.043   2.243 -0.6311  1.0150 -0.3049
  167MOL   C14940321   2.553   5.090   2.168 -0.6865  0.2031  0.5733
  167MOL   H15040322   2.629   4.851   2.277  0.5756 -0.4747  1.9894
  167MOL   H15140323   2.537   4.897   2.416 -2.2450  1.1531 -0.3911
  167MOL   H15240324   2.428   4.847   2.146 -0.4689 -1.0635  0.2181
  167MOL   H15340325   2.433   5.079   2.346  0.8098  0.2666 -0.0993
  167MOL   H15440326   2.345   5.090   2.190 -0.0472  1.9153 -0.4378
  167MOL   H15540327   2.648   5.065   2.216  0.3487 -0.1430 -1.6038
  167MOL   H15640328   2.557   5.042   2.070 -1.7508  0.6513  0.3040
  167MOL   H15740329   2.552   5.197   2.151  2.3922  0.5497  2.0919
  167MOL   C15840330   2.286   4.847   2.315 -0.2319  0.3924  0.0294
  167MOL   C15940331   2.161   4.843   2.226 -0.0518  0.0392 -0.4671
  167MOL   C16040332   2.042   4.793   2.310  1.1316  0.2827  0.4396
  167MOL   C16140333   1.993   4.896   2.422  0.5369  0.1323 -0.1324
  167MOL   H16240334   2.263   4.918   2.395 -2.1575  1.2289 -1.2017
  167MOL   H16340335   2.292   4.744   2.350 -1.5300 -0.3294 -1.7611
  167MOL   H16440336   2.139   4.947   2.200  1.9587 -0.0879 -2.7395
  167MOL   H16540337   2.068   4.696   2.353 -2.4574 -1.2731 -0.7537
  167MOL   H16640338   1.961   4.773   2.240  0.8028 -1.9506  1.4192
  167MOL   H16740339   2.035   4.994   2.398  0.9927 -0.1721 -0.5978
  167MOL   H16840340   1.884   4.896   2.425  0.4670 -1.4353 -1.9146
  167MOL   H16940341   2.046   4.862   2.511  3.2136 -2.7821 -2.6909
  167MOL   C17040342   2.175   4.745   2.104 -0.2242 -0.0162 -0.3854
  167MOL   C17140343   2.161   4.819   1.969  0.2729 -0.3473  0.8755
  167MOL   C17240344   2.013   4.854   1.942 -0.3627 -0.6223  0.4392
  167MOL   C17340345   1.982   4.971   1.848 -0.1365  0.1285 -0.4757
  167MOL   H17440346   2.115   4.657   2.125 -2.5310  1.7379  0.6220
  167MOL   H17540347   2.271   4.693   2.109  0.5494  1.3460 -0.8489
  167MOL   H17640348   2.218   4.913   1.968 -0.7317  0.2624  0.2411
  167MOL   H17740349   1.961   4.883   2.033 -2.1084 -0.0545 -0.7091
  167MOL   H17840350   1.963   4.762   1.912  1.6845 -1.6280  0.0057
  167MOL   H17940351   1.995   5.072   1.886 -1.8034  0.2141 -0.1037
  167MOL   H18040352   2.040   4.960   1.756  0.0406  0.0891 -0.3594
  167MOL   H18140353   1.879   4.974   1.811 -0.0490  0.9925 -0.6485
  167MOL   C18240354   2.215   4.731   1.850 -0.1517  0.3499 -0.8163
  167MOL   C18340355   2.368   4.718   1.855 -0.3380  0.2780  0.3452
  167MOL   C18440356   2.436   4.855   1.826 -0.7346  0.2799 -0.4821
  167MOL   C18540357   2.398   4.941   1.704 -0.3044  0.1944 -0.1632
  167MOL   H18640358   2.182   4.776   1.757 -0.5498 -0.8677 -1.2782
  167MOL   H18740359   2.157   4.639   1.843 -2.5276  1.8798 -1.8201
  167MOL   H18840360   2.392   4.676   1.953 -2.0213  1.7156  1.3944
  167MOL   H18940361   2.542   4.839   1.845 -0.7746  0.2222 -0.3042
  167MOL   H19040362   2.410   4.921   1.909  1.3097 -1.5964  1.7311
  167MOL   H19140363   2.293   4.971   1.701 -0.9811 -2.0091  0.4938
  167MOL   H19240364   2.445   5.038   1.714  0.1128  0.0233 -0.4541
  167MOL   H19340365   2.429   4.908   1.605  0.5583  0.2389  0.0911
  167MOL   C19440366   2.427   4.611   1.754  0.2987  0.1125  0.3097
  167MOL   C19540367   2.345   4.484   1.715 -0.4890 -0.3689  0.4769
  167MOL   C19640368   2.351   4.377   1.832 -0.3686 -0.4630  0.4142
  167MOL   C19740369   2.486   4.331   1.895 -0.0607 -0.2047 -0.4137
  167MOL   H19840370   2.534   4.594   1.772  0.6897  2.8908  0.7380
  167MOL   H19940371   2.427   4.668   1.662  0.6911 -0.3366  0.0256
  167MOL   H20040372   2.239   4.507   1.698 -0.6542 -0.1083  1.7686
  167MOL   H20140373   2.294   4.292   1.795  2.2826 -1.9400 -0.3372
  167MOL   H20240374   2.293   4.422   1.913  3.3256  1.4450  2.1421
  167MOL   H20340375   2.541   4.265   1.828  0.2275  0.2949 -0.6688
  167MOL   H20440376   2.549   4.418   1.916 -0.9734  1.0902 -2.8361
  167MOL   H20540377   2.459   4.278   1.986 -0.9104  0.7178 -0.1127
  167MOL   C20640378   2.401   4.423   1.587 -0.6203  0.0840  0.6051
  167MOL   C20740379   2.308   4.432   1.461  0.0638 -0.3468 -0.6753
  167MOL   C20840380   2.374   4.369   1.337  0.0842  0.2149  0.9697
  167MOL   C20940381   2.410   4.220   1.342 -0.1385  0.4505  0.2954
  167MOL   H21040382   2.438   4.321   1.598 -3.2245 -0.9532 -0.0139
  167MOL   H21140383   2.487   4.483   1.555 -0.3848  0.4684  1.9481
  167MOL   H21240384   2.211   4.390   1.486 -0.9017  2.4907  0.5538
  167MOL   H21340385   2.466   4.418   1.307  0.9689 -1.1472  1.4581
  167MOL   H21440386   2.308   4.398   1.255 -1.6859 -0.0186  2.2818
  167MOL   H21540387   2.467   4.177   1.260 -2.0237 -0.7021 -0.4509
  167MOL   H21640388   2.469   4.205   1.432 -1.2381 -0.2730  0.9094
  167MOL   H21740389   2.321   4.158   1.355  0.2759 -0.3610 -0.6627
  167MOL   C21840390   2.281   4.582   1.428  0.3962  0.3227 -0.2928
  167MOL   C21940391   2.205   4.622   1.302 -0.0711  0.2635  1.0655
  167MOL   C22040392   2.195   4.774   1.284  0.1845 -0.1236  0.4210
  167MOL   C22140393   2.332   4.839   1.245 -0.2272 -1.0000  0.1955
  167MOL   H22240394   2.374   4.637   1.435  1.8418 -2.1835  0.8184
  167MOL   H22340395   2.235   4.625   1.517  0.9284  0.0118  0.1334
  167MOL   H22440396   2.271   4.598   1.218 -2.8046  1.3518 -1.4722
  167MOL   H22540397   2.170   4.801   1.386 -2.1394 -1.6038  0.2612
  167MOL   H22640398   2.116   4.791   1.211  0.1275  1.2400  0.7995
  167MOL   H22740399   2.331   4.945   1.218 -0.7087 -0.1441  3.3968
  167MOL   H22840400   2.398   4.842   1.332  1.7343 -0.2964 -1.2828
  167MOL   H22940401   2.381   4.788   1.162  0.4085  2.0418 -1.3646
  167MOL   C23040402   2.065   4.563   1.279 -0.9449 -0.3785 -0.7072
  167MOL   C23140403   1.961   4.622   1.375  0.6175  0.1160  0.2966
  167MOL   C23240404   1.816   4.559   1.375  0.3873  0.6618 -0.5254
  167MOL   C23340405   1.724   4.612   1.477  0.3925  0.3101 -0.0956
  167MOL   H23440406   2.066   4.454   1.285 -0.4402 -0.3280  0.3517
  167MOL   H23540407   2.036   4.585   1.176 -1.4794  3.4645  0.1934
  167MOL   H23640408   2.001   4.608   1.476  1.8155  0.4914 -0.1136
  167MOL   H23740409   1.827   4.453   1.397 -0.1088  0.7443  0.1761
  167MOL   H23840410   1.767   4.557   1.278 -1.9592 -0.1480  0.6232
  167MOL   H23940411   1.705   4.718   1.492 -0.1650  0.8495 -4.0616
  167MOL   H24040412   1.625   4.568   1.459  0.2913  1.2331 -1.9540
  167MOL   H24140413   1.757   4.565   1.569 -0.3549 -1.4874 -0.7036
  167MOL   H24240414   1.943   4.727   1.355 -0.1646  0.1451  1.1575
  168MOL     C140415   2.827   0.801   0.895  0.2093 -0.2832 -0.5952
  168MOL     C240416   2.711   0.835   0.799 -0.4331  0.0806  0.0722
  168MOL     C340417   2.681   0.983   0.802  0.2280  0.4829  0.3393
  168MOL     C440418   2.786   1.096   0.787 -0.2590 -0.1825  0.1997
  168MOL     H540419   2.873   0.705   0.869 -2.5280 -1.9514  0.5051
  168MOL     H640420   2.915   0.865   0.887  0.0818 -0.3062 -2.2940
  168MOL     H740421   2.740   0.799   0.700 -0.3875 -2.4469  0.9553
  168MOL     H840422   2.621   1.018   0.887 -1.1344 -0.2793 -0.2871
  168MOL     H940423   2.614   1.002   0.717  3.0673  1.2027 -1.7992
  168MOL    H1040424   2.735   1.191   0.772  0.6021  0.1201 -0.8362
  168MOL    H1140425   2.840   1.104   0.882 -0.9324 -0.4864  0.6169
  168MOL    H1240426   2.855   1.084   0.704  0.2912  1.5760  0.3752
  168MOL    H1340427   2.794   0.788   0.998 -0.0205  2.5381 -0.2663
  168MOL    C1440428   2.588   0.748   0.837  0.2585  0.4829 -0.7673
  168MOL    C1540429   2.616   0.595   0.827  0.0456  0.6220  0.2852
  168MOL    C1640430   2.653   0.548   0.682  0.1996 -0.0918  0.4435
  168MOL    C1740431   2.691   0.402   0.666 -0.1586  0.1727 -0.3501
  168MOL    H1840432   2.502   0.775   0.776 -0.9512 -2.1382 -0.3078
  168MOL    H1940433   2.555   0.772   0.938 -1.3494 -0.6508 -1.0010
  168MOL    H2040434   2.691   0.569   0.902 -1.8075 -0.5103  1.7920
  168MOL    H2140435   2.748   0.595   0.655  0.2618  0.1011  0.9762
  168MOL    H2240436   2.576   0.580   0.612 -0.6403  0.0128  1.4126
  168MOL    H2340437   2.598   0.348   0.648  0.6178 -1.6723  0.9952
  168MOL    H2440438   2.754   0.390   0.578 -2.9585  0.6967 -2.4896
  168MOL    H2540439   2.735   0.361   0.757 -5.7519 -1.5898  1.7805
  168MOL    C2640440   2.481   0.522   0.874  0.1353 -0.4809 -0.2183
  168MOL    C2740441   2.458   0.513   1.027  0.4353 -0.4745  0.2175
  168MOL    C2840442   2.554   0.416   1.095 -0.4923  0.7059 -0.4156
  168MOL    C2940443   2.562   0.280   1.023  0.7753  0.1520  0.2256
  168MOL    H3040444   2.485   0.427   0.822 -0.5750  0.1270 -1.3938
  168MOL    H3140445   2.396   0.577   0.835 -0.4190  1.1236  3.0599
  168MOL    H3240446   2.486   0.612   1.063 -1.8942  0.1852  0.2611
  168MOL    H3340447   2.529   0.397   1.200  1.1559 -3.4096 -0.6589
  168MOL    H3440448   2.651   0.461   1.116  0.1679 -0.3034 -1.2401
  168MOL    H3540449   2.631   0.283   0.939 -1.3659 -1.9261 -1.6872
  168MOL    H3640450   2.626   0.218   1.086  0.0528 -1.4898 -0.6013
  168MOL    H3740451   2.467   0.231   0.999  0.0509  1.8308 -0.3673
  168MOL    C3840452   2.310   0.492   1.073 -0.2494  0.4775 -0.0380
  168MOL    C3940453   2.206   0.594   1.014  0.8266  0.6323 -0.2877
  168MOL    C4040454   2.244   0.742   1.025  0.2815 -0.4073 -0.1964
  168MOL    C4140455   2.155   0.840   0.940  0.3072 -0.2209 -0.1547
  168MOL    H4240456   2.305   0.506   1.181 -1.6001 -1.2067  0.1560
  168MOL    H4340457   2.278   0.388   1.068 -2.1022  0.9473  1.4082
  168MOL    H4440458   2.205   0.573   0.906  0.9321 -0.5638 -0.0690
  168MOL    H4540459   2.348   0.766   1.006 -0.1950  0.6047 -1.5502
  168MOL    H4640460   2.232   0.757   1.133 -0.6094 -2.5371  0.0400
  168MOL    H4740461   2.054   0.848   0.978  0.9527  0.4940  1.4643
  168MOL    H4840462   2.196   0.941   0.948  0.6930 -0.4121  0.3177
  168MOL    H4940463   2.142   0.829   0.832 -2.3694  1.4664 -0.0349
  168MOL    C5040464   2.062   0.571   1.068  0.8920 -0.1954 -0.1840
  168MOL    C5140465   1.995   0.449   1.001  0.2709  0.2950  0.2570
  168MOL    C5240466   1.955   0.467   0.856  0.0134  0.1949 -1.2490
  168MOL    C5340467   1.862   0.578   0.817  0.2214 -0.2159  0.3001
  168MOL    H5440468   1.996   0.657   1.056  1.9540  0.4781 -1.2583
  168MOL    H5540469   2.063   0.543   1.173 -0.4244 -0.0918 -0.1320
  168MOL    H5640470   2.070   0.370   0.993  0.7670  0.7365  0.5150
  168MOL    H5740471   1.919   0.373   0.815  0.2538  0.0963 -1.2373
  168MOL    H5840472   2.050   0.491   0.807  0.7213  1.8206  0.8353
  168MOL    H5940473   1.833   0.558   0.713 -1.9889  1.1440  0.6199
  168MOL    H6040474   1.766   0.574   0.868  0.5883  1.8773  1.1712
  168MOL    H6140475   1.918   0.670   0.833 -1.3218  0.5253  1.5654
  168MOL    C6240476   1.877   0.394   1.092  0.1737  0.1333  0.8273
  168MOL    C6340477   1.791   0.265   1.053  0.0200  0.0037  0.3127
  168MOL    C6440478   1.679   0.250   1.157 -0.0104  0.4590  0.1757
  168MOL    C6540479   1.576   0.361   1.180  0.2463  0.3257 -0.0618
  168MOL    H6640480   1.807   0.477   1.087 -0.0982 -0.2050 -1.4698
  168MOL    H6740481   1.904   0.390   1.198  3.1854 -1.2993  0.0603
  168MOL    H6840482   1.739   0.290   0.961  1.3839  1.6350 -0.0402
  168MOL    H6940483   1.719   0.239   1.258 -2.2786  0.1605  1.0825
  168MOL    H7040484   1.625   0.161   1.127 -1.6232  1.6647 -0.6172
  168MOL    H7140485   1.551   0.401   1.081  1.8298  0.6679 -0.3334
  168MOL    H7240486   1.502   0.305   1.237  1.7346 -0.1496  1.4447
  168MOL    H7340487   1.606   0.452   1.233  4.1139 -1.4024  0.8960
  168MOL    C7440488   1.879   0.146   1.031 -0.6558 -0.1061  0.1196
  168MOL    C7540489   1.972   0.106   1.147  0.0535  0.2914  0.3883
  168MOL    C7640490   2.115   0.067   1.105  0.2297 -0.1329  0.5202
  168MOL    C7740491   2.127   7.637   1.035 -0.3626  0.6784 -0.3240
  168MOL    H7840492   1.948   0.171   0.950  0.5953  0.7563  1.4380
  168MOL    H7940493   1.819   0.062   0.998  0.3418 -0.3661 -1.0871
  168MOL    H8040494   1.996   0.197   1.203 -0.5932 -0.1655  1.4224
  168MOL    H8140495   2.181   0.064   1.192  1.2442 -1.8914 -0.2859
  168MOL    H8240496   2.151   0.147   1.040  0.5394  0.1138  0.9941
  168MOL    H8340497   2.041   7.621   0.971 -0.1889 -0.1089 -0.3710
  168MOL    H8440498   2.220   7.647   0.978  0.3166 -0.9210  0.4447
  168MOL    H8540499   2.147   7.560   1.111 -0.2127  0.1948 -0.8520
  168MOL    C8640500   1.906   0.002   1.237 -0.2356  0.4235 -0.8474
  168MOL    C8740501   1.986   7.677   1.366 -0.3290  0.4137 -0.6500
  168MOL    C8840502   1.940   7.546   1.443 -0.6038  0.0283  0.2351
  168MOL    C8940503   1.988   7.413   1.377  0.5439  0.4751  0.9020
  168MOL    H9040504   1.884   7.617   1.180 -2.9882  0.6323 -0.1712
  168MOL    H9140505   1.809   0.037   1.270 -0.1196 -0.0152 -0.0197
  168MOL    H9240506   2.089   7.645   1.349  0.2883  1.1585  1.5633
  168MOL    H9340507   1.833   7.538   1.461 -0.6535  0.5466  0.1829
  168MOL    H9440508   1.975   7.552   1.547  2.1327 -0.7799 -0.5877
  168MOL    H9540509   1.959   7.318   1.422  3.7889 -0.8853  0.2359
  168MOL    H9640510   1.932   7.410   1.284  0.9061  0.9403  0.6691
  168MOL    H9740511   2.096   7.417   1.363  0.3297 -0.1404 -1.1145
  168MOL    C9840512   1.987   0.083   1.472  0.2011 -0.1957 -0.8015
  168MOL    C9940513   2.103   0.094   1.572 -0.0138  0.2649 -1.0238
  168MOL   C10040514   2.075   0.068   1.725 -0.1599 -0.0458  0.1228
  168MOL   C10140515   1.986   0.167   1.792  0.3585 -0.0841  0.0015
  168MOL   H10240516   1.891   0.065   1.520 -0.1724  0.5578 -1.2427
  168MOL   H10340517   1.961   0.183   1.435 -2.4489  0.1015  1.6936
  168MOL   H10440518   2.171   0.014   1.544  1.3199  0.9332  0.2123
  168MOL   H10540519   2.170   0.052   1.776 -0.7428 -0.6069  1.0472
  168MOL   H10640520   2.028   7.676   1.731  0.1309 -0.1705  0.3943
  168MOL   H10740521   1.966   0.130   1.893  0.8175 -1.5946 -0.4474
  168MOL   H10840522   2.038   0.257   1.825 -0.9566  0.3978  0.7947
  168MOL   H10940523   1.891   0.190   1.744 -0.3408 -2.6404  0.0698
  168MOL   C11040524   2.174   0.232   1.549 -0.2478  0.4794  0.9942
  168MOL   C11140525   2.326   0.254   1.585  0.4496  0.1204 -0.6595
  168MOL   C11240526   2.346   0.401   1.616 -0.5035  0.3897 -0.0101
  168MOL   C11340527   2.305   0.499   1.498  0.0393 -0.5920 -0.6665
  168MOL   H11440528   2.123   0.302   1.616  0.1051 -0.7053  2.5466
  168MOL   H11540529   2.166   0.273   1.449 -0.2790  1.1868  1.2820
  168MOL   H11640530   2.353   0.200   1.676  0.9709  2.9574  0.9092
  168MOL   H11740531   2.451   0.422   1.634  0.2390 -0.8947 -2.5744
  168MOL   H11840532   2.295   0.428   1.709 -0.3335  0.8888 -0.0558
  168MOL   H11940533   2.344   0.597   1.525 -0.6966  0.0640 -1.9193
  168MOL   H12040534   2.356   0.467   1.407 -0.0043 -0.5453 -0.7074
  168MOL   H12140535   2.201   0.521   1.473  0.6256  0.3827 -2.3974
  168MOL   C12240536   2.420   0.199   1.479 -0.2113 -0.2706  0.1863
  168MOL   C12340537   2.569   0.156   1.528 -0.0255 -0.3395 -0.2417
  168MOL   C12440538   2.666   0.137   1.409  0.5770  0.3936  0.0296
  168MOL   C12540539   2.622   0.027   1.304 -0.5300  0.4024 -0.4839
  168MOL   H12640540   2.437   0.271   1.399 -0.7212 -2.5088 -1.9808
  168MOL   H12740541   2.367   0.118   1.429  3.4460 -3.5411  1.3696
  168MOL   H12840542   2.607   0.237   1.590 -1.0058  1.4380 -1.9120
  168MOL   H12940543   2.769   0.110   1.434  0.4414  1.5561  1.9019
  168MOL   H13040544   2.677   0.231   1.354  2.2364 -1.4390 -2.8826
  168MOL   H13140545   2.697   0.006   1.228 -0.2425  0.8014 -0.3149
  168MOL   H13240546   2.599   7.633   1.341 -2.3090  0.4485 -1.3887
  168MOL   H13340547   2.533   0.056   1.249 -0.0449 -0.3902 -1.7056
  168MOL   C13440548   2.567   0.036   1.622 -0.6048  0.0244 -0.2835
  168MOL   C13540549   2.667   0.048   1.739  0.6085 -0.1049  0.2417
  168MOL   C13640550   2.696   7.618   1.798  0.9170  0.6094 -0.4429
  168MOL   C13740551   2.742   7.515   1.696 -0.4691  0.3048  0.4782
  168MOL   H13840552   2.601   7.658   1.561 -0.6687  1.5834 -2.5194
  168MOL   H13940553   2.469   0.003   1.656 -1.6076  0.4250 -2.6887
  168MOL   H14040554   2.763   0.069   1.693 -0.2865 -0.8981 -2.0135
  168MOL   H14140555   2.617   7.578   1.861  3.4047  0.1328  2.5498
  168MOL   H14240556   2.784   7.628   1.862 -0.0840 -1.6118  1.3347
  168MOL   H14340557   2.804   7.566   1.622  0.0634  0.3899  0.9815
  168MOL   H14440558   2.809   7.438   1.736 -0.9569 -0.1253  0.4780
  168MOL   H14540559   2.663   7.466   1.638 -2.6678  0.0639  3.5278
  168MOL   C14640560   2.615   0.144   1.841 -0.5587  0.2550  0.2886
  168MOL   C14740561   2.722   0.196   1.943  0.3400 -0.5048  0.5985
  168MOL   C14840562   2.667   0.193   2.086 -0.0755  0.3658 -0.0669
  168MOL   C14940563   2.548   0.282   2.112 -0.3021 -0.2680 -1.2687
  168MOL   H15040564   2.537   0.092   1.897 -2.4574  2.8099  0.1277
  168MOL   H15140565   2.555   0.221   1.793 -0.2975 -0.6579 -1.5724
  168MOL   H15240566   2.814   0.138   1.946  0.2526 -0.5676  2.1766
  168MOL   H15340567   2.739   0.231   2.159  1.0142  1.0669 -1.4805
  168MOL   H15440568   2.632   0.093   2.111 -2.3183  0.5524 -2.2418
  168MOL   H15540569   2.458   0.261   2.054 -1.7730  1.4943  0.3128
  168MOL   H15640570   2.518   0.267   2.215 -1.7590  2.9981 -1.1540
  168MOL   H15740571   2.567   0.390   2.111  1.9971 -0.6393 -2.2839
  168MOL   C15840572   2.763   0.340   1.911  0.0547  0.4026  0.3886
  168MOL   C15940573   2.850   0.361   1.782 -0.0781 -0.4122 -0.8614
  168MOL   C16040574   2.992   0.301   1.789 -0.1549  0.2607  0.6003
  168MOL   C16140575   3.092   0.340   1.904  0.4516 -0.3261  0.3047
  168MOL   H16240576   2.823   0.379   1.994  1.5784  0.2086 -0.6021
  168MOL   H16340577   2.669   0.396   1.907 -0.6210 -0.7810 -0.5995
  168MOL   H16440578   2.799   0.306   1.703 -1.0704 -0.4319 -0.2114
  168MOL   H16540579   3.034   0.312   1.689  0.4077  2.3464  1.0476
  168MOL   H16640580   2.976   0.193   1.784  0.2364  0.2709 -0.9142
  168MOL   H16740581   3.185   0.285   1.897 -0.4397 -1.4704 -3.3087
  168MOL   H16840582   3.127   0.443   1.911  0.2866 -0.3230  1.2637
  168MOL   H16940583   3.057   0.309   2.003  0.4417 -2.4794 -0.3402
  168MOL   C17040584   2.856   0.514   1.755 -0.0976 -0.1894 -0.2431
  168MOL   C17140585   2.929   0.567   1.622 -0.2375  0.0295 -0.6336
  168MOL   C17240586   3.044   0.662   1.669  0.5780 -0.6087 -0.3139
  168MOL   C17340587   2.996   0.806   1.707 -0.2657  0.1785  0.5315
  168MOL   H17440588   2.902   0.550   1.847 -0.7321 -0.5925  0.2343
  168MOL   H17540589   2.757   0.558   1.763 -0.2787 -0.7402  0.6811
  168MOL   H17640590   2.978   0.480   1.579  0.7510 -0.2847  1.0583
  168MOL   H17740591   3.112   0.676   1.585  0.8838 -0.0322  0.0224
  168MOL   H17840592   3.107   0.607   1.739  0.5188 -1.4408 -0.9093
  168MOL   H17940593   2.938   0.853   1.627  0.2819 -0.6408 -0.3575
  168MOL   H18040594   2.951   0.807   1.806 -0.7161 -1.3233  0.3452
  168MOL   H18140595   3.085   0.869   1.715  2.0156 -2.5424 -2.1329
  168MOL   C18240596   2.817   0.626   1.532  0.8164  0.4809  0.7587
  168MOL   C18340597   2.856   0.677   1.392 -0.1026 -0.2798  0.2225
  168MOL   C18440598   2.737   0.753   1.327 -0.1761 -0.2050  0.1828
  168MOL   C18540599   2.686   0.878   1.392 -0.1683 -1.2657  0.3802
  168MOL   H18640600   2.762   0.702   1.587  0.6766  0.8481  0.1253
  168MOL   H18740601   2.741   0.548   1.518  1.8098 -0.0397 -2.1596
  168MOL   H18840602   2.942   0.743   1.405 -0.2419  0.2584 -1.4447
  168MOL   H18940603   2.652   0.687   1.316 -1.5777  1.6936 -0.7685
  168MOL   H19040604   2.762   0.796   1.230 -1.6647 -0.7887 -0.4771
  168MOL   H19140605   2.764   0.953   1.397  0.1190 -1.3692 -2.0867
  168MOL   H19240606   2.601   0.921   1.339  0.1805  0.8113  1.4726
  168MOL   H19340607   2.663   0.861   1.497  1.1560  0.9061  1.0593
  168MOL   C19440608   2.897   0.560   1.293 -0.0261  0.4798  0.4443
  168MOL   C19540609   3.014   0.597   1.202  0.7168 -0.3584  0.4005
  168MOL   C19640610   3.019   0.498   1.079 -0.0121 -0.6352  0.1305
  168MOL   C19740611   3.134   0.534   0.988 -0.1255 -1.0657 -0.2534
  168MOL   H19840612   2.810   0.557   1.227 -2.4319 -1.6488  3.5594
  168MOL   H19940613   2.898   0.465   1.347  0.2326 -0.0366 -0.4661
  168MOL   H20040614   3.010   0.698   1.163  1.9838 -1.0419 -1.5754
  168MOL   H20140615   2.927   0.513   1.023  0.8540  0.1110 -1.1061
  168MOL   H20240616   3.038   0.397   1.115  1.2644 -0.3603  0.2491
  168MOL   H20340617   3.142   0.640   0.967 -1.8523 -1.1203 -1.2264
  168MOL   H20440618   3.227   0.499   1.033  0.5320  1.7158  0.5915
  168MOL   H20540619   3.126   0.478   0.894  1.0026  0.7794 -1.4933
  168MOL   C20640620   3.151   0.580   1.284  1.1809  0.1455  0.2040
  168MOL   C20740621   3.265   0.678   1.248  0.5707 -0.4236 -0.3142
  168MOL   C20840622   3.394   0.608   1.275 -0.0275  0.3290  0.0673
  168MOL   C20940623   3.418   0.578   1.421  0.2555 -0.1842  0.4415
  168MOL   H21040624   3.185   0.480   1.256  0.1288 -0.7411  2.0000
  168MOL   H21140625   3.124   0.566   1.388 -0.4833  0.7180 -0.1446
  168MOL   H21240626   3.252   0.697   1.142 -0.0172 -0.5089 -0.2577
  168MOL   H21340627   3.472   0.673   1.236  0.2187  0.2273  0.3945
  168MOL   H21440628   3.411   0.506   1.240 -1.3281  0.2415 -0.3289
  168MOL   H21540629   3.498   0.504   1.428 -1.2910 -2.1678 -2.0536
  168MOL   H21640630   3.449   0.665   1.479  0.9658 -0.8568  1.0782
  168MOL   H21740631   3.333   0.537   1.475 -0.4596 -1.3818 -1.5637
  168MOL   C21840632   3.254   0.812   1.313  0.4351 -0.5498  0.4987
  168MOL   C21940633   3.339   0.926   1.251  0.0907  0.9467 -0.1737
  168MOL   C22040634   3.395   1.019   1.354 -0.3085 -0.1393  0.6177
  168MOL   C22140635   3.499   0.971   1.458 -0.6220  0.0495  0.8466
  168MOL   H22240636   3.281   0.808   1.418  1.1375  1.2072  0.3994
  168MOL   H22340637   3.147   0.831   1.319  0.6201  0.2496  1.3072
  168MOL   H22440638   3.433   0.885   1.212  1.2317  2.1392  1.2806
  168MOL   H22540639   3.310   1.068   1.401  0.1532 -0.4850  1.8283
  168MOL   H22640640   3.441   1.106   1.306 -1.9633  0.0757 -0.6350
  168MOL   H22740641   3.559   0.882   1.440  0.3118  0.3074  2.4851
  168MOL   H22840642   3.571   1.051   1.480 -0.4079  0.4406 -1.2026
  168MOL   H22940643   3.445   0.955   1.551  0.0215 -1.3935  0.9837
  168MOL   C23040644   3.264   1.006   1.135  0.3804 -0.2947 -0.1791
  168MOL   C23140645   3.215   0.921   1.019  0.0486 -0.3641  0.5431
  168MOL   C23240646   3.185   0.996   0.889 -0.2391 -0.1885  0.2778
  168MOL   C23340647   3.188   0.906   0.766  0.0509 -0.4587  0.8192
  168MOL   H23440648   3.351   1.060   1.097  0.2313  0.3985  0.4409
  168MOL   H23540649   3.185   1.074   1.165  0.3578  0.0478 -1.0249
  168MOL   H23640650   3.284   0.842   0.992  0.5488  0.3195 -0.1872
  168MOL   H23740651   3.255   1.079   0.882 -0.6291  0.1270  0.0610
  168MOL   H23840652   3.086   1.044   0.888  0.4009  1.1357 -1.5108
  168MOL   H23940653   3.284   0.855   0.772  0.0587 -0.5522 -0.1371
  168MOL   H24040654   3.109   0.831   0.758  0.7183 -0.9048 -1.7116
  168MOL   H24140655   3.186   0.972   0.680 -0.1490  0.2565  1.3637
  168MOL   H24240656   3.129   0.869   1.062 -0.5046  0.3642  0.3243
  169MOL     C140657   2.432   2.590   5.162 -0.3342  0.0932 -0.3774
  169MOL     C240658   2.528   2.611   5.042 -0.3071 -0.0876  1.4046
  169MOL     C340659   2.513   2.756   4.988 -0.0710 -0.7354  0.2344
  169MOL     C440660   2.575   2.860   5.084 -0.0446  0.0688  1.3586
  169MOL     H540661   2.444   2.494   5.213  1.2874  0.9194  0.8348
  169MOL     H640662   2.434   2.665   5.241 -1.0652  0.4564 -0.7010
  169MOL     H740663   2.625   2.585   5.086  1.4761  0.3709 -2.0437
  169MOL     H840664   2.413   2.791   4.962  0.8339  1.3967 -0.5196
  169MOL     H940665   2.572   2.779   4.899  0.5838 -0.0808  0.8332
  169MOL    H1040666   2.559   2.960   5.045  1.2933 -0.4724 -0.6380
  169MOL    H1140667   2.534   2.860   5.185 -0.9935 -0.4913  0.9835
  169MOL    H1240668   2.683   2.847   5.093  0.6125  3.0321 -1.5676
  169MOL    H1340669   2.330   2.598   5.126 -0.9262  1.2990  1.5064
  169MOL    C1440670   2.503   2.508   4.935 -0.0869  0.5514  0.1753
  169MOL    C1540671   2.634   2.478   4.842 -0.5661 -0.2795  0.7875
  169MOL    C1640672   2.759   2.424   4.919  0.0935 -0.1653  0.0296
  169MOL    C1740673   2.734   2.309   5.018 -0.5050  0.7007  0.5898
  169MOL    H1840674   2.412   2.527   4.878  0.4998 -2.4883 -1.9078
  169MOL    H1940675   2.478   2.411   4.977  1.0498 -1.5109 -3.6728
  169MOL    H2040676   2.598   2.393   4.784  0.5788 -0.5795  0.5108
  169MOL    H2140677   2.818   2.502   4.969 -1.8597  1.8331 -0.7361
  169MOL    H2240678   2.832   2.400   4.841 -1.1440 -0.0150 -1.1798
  169MOL    H2340679   2.690   2.224   4.965  1.4307 -0.1903  0.3626
  169MOL    H2440680   2.817   2.268   5.075 -0.4253 -1.6468 -1.1228
  169MOL    H2540681   2.661   2.340   5.092 -0.2705  5.3972 -0.9653
  169MOL    C2640682   2.670   2.592   4.739  0.3705 -0.0300 -0.2135
  169MOL    C2740683   2.554   2.636   4.646 -0.6783 -0.6007  0.0407
  169MOL    C2840684   2.508   2.519   4.562  0.0300 -0.1690 -0.4627
  169MOL    C2940685   2.405   2.546   4.453 -0.6392 -0.4542  0.2184
  169MOL    H3040686   2.757   2.566   4.679  0.2485 -0.9827  0.0055
  169MOL    H3140687   2.708   2.681   4.788 -1.3098 -0.1025  1.2951
  169MOL    H3240688   2.466   2.670   4.701 -0.4131 -2.6929  1.8561
  169MOL    H3340689   2.472   2.434   4.620 -0.0282  0.3399  0.2523
  169MOL    H3440690   2.595   2.474   4.513 -0.0396 -1.3703  0.4937
  169MOL    H3540691   2.316   2.589   4.499  0.6604  0.9613  1.4480
  169MOL    H3640692   2.435   2.618   4.376  0.2682  0.8477  1.7739
  169MOL    H3740693   2.378   2.453   4.403 -0.9860 -0.5329  0.5554
  169MOL    C3840694   2.599   2.756   4.554  0.1910  0.6465  0.3906
  169MOL    C3940695   2.636   2.888   4.631  0.4495 -0.2383 -0.0320
  169MOL    C4040696   2.523   2.992   4.651 -0.3236 -0.7961 -0.1567
  169MOL    C4140697   2.553   3.101   4.757 -0.4521 -1.4584 -1.2539
  169MOL    H4240698   2.513   2.788   4.494 -0.1364  0.3280  0.6863
  169MOL    H4340699   2.671   2.711   4.485  1.3897  0.1090  1.9623
  169MOL    H4440700   2.665   2.869   4.734  0.0022  0.8674  0.3119
  169MOL    H4540701   2.433   2.935   4.672 -1.3239  0.2553 -1.5196
  169MOL    H4640702   2.506   3.046   4.558  0.7385 -0.2061 -0.0214
  169MOL    H4740703   2.628   3.174   4.728 -2.0163  1.2535  1.2655
  169MOL    H4840704   2.470   3.164   4.788  1.0565 -0.2875  0.5397
  169MOL    H4940705   2.588   3.063   4.853 -1.7579 -1.2623 -0.6827
  169MOL    C5040706   2.753   2.947   4.555  0.0757 -1.4202  0.3466
  169MOL    C5140707   2.900   2.894   4.560 -0.4299 -0.2426  0.2812
  169MOL    C5240708   2.960   2.876   4.702 -0.4044  0.1817  0.1443
  169MOL    C5340709   2.993   3.009   4.765 -0.1722  0.4094 -0.0065
  169MOL    H5440710   2.755   3.050   4.591 -0.6909 -1.2833  0.0137
  169MOL    H5540711   2.726   2.950   4.449 -0.8411  2.3601  0.6206
  169MOL    H5640712   2.888   2.792   4.524 -1.3995  0.5982 -1.9183
  169MOL    H5740713   3.052   2.819   4.688  0.3420  1.3501  0.2132
  169MOL    H5840714   2.899   2.811   4.765  0.6411  0.4521  1.4610
  169MOL    H5940715   3.064   3.068   4.708  0.6874 -0.6120 -0.0113
  169MOL    H6040716   2.901   3.066   4.758  0.2382  1.6145  3.3227
  169MOL    H6140717   3.033   2.997   4.866 -1.8885 -2.7410  0.3814
  169MOL    C6240718   2.991   2.979   4.462  0.2040  0.3693  0.6522
  169MOL    C6340719   3.121   2.920   4.411 -1.1996  0.0395  0.2984
  169MOL    C6440720   3.209   3.031   4.347  0.0687 -0.1345 -0.4086
  169MOL    C6540721   3.159   3.098   4.215  0.0440  0.0443 -0.0707
  169MOL    H6640722   3.018   3.074   4.509 -0.1121 -0.7100  3.0443
  169MOL    H6740723   2.935   3.006   4.372  0.2275  1.0679  0.8460
  169MOL    H6840724   3.167   2.888   4.505 -1.1170 -0.4425  0.0924
  169MOL    H6940725   3.307   2.990   4.323  0.0576 -0.6945  0.4683
  169MOL    H7040726   3.218   3.107   4.425 -3.1860 -0.2248  0.1391
  169MOL    H7140727   3.067   3.154   4.235 -0.6405 -0.5644 -1.4431
  169MOL    H7240728   3.232   3.174   4.187  1.3511 -1.6288 -1.2847
  169MOL    H7340729   3.149   3.022   4.138  0.1115 -0.3183  0.2786
  169MOL    C7440730   3.100   2.795   4.320  0.1519 -0.4021 -0.4667
  169MOL    C7540731   3.225   2.728   4.254  0.5648  0.8167 -0.4872
  169MOL    C7640732   3.209   2.709   4.105 -0.6961  0.1912  0.3530
  169MOL    C7740733   3.086   2.618   4.076 -0.5293 -0.4429  0.1049
  169MOL    H7840734   3.049   2.847   4.239 -0.6995 -0.0373  0.2994
  169MOL    H7940735   3.033   2.721   4.364  1.5383 -2.6874 -2.0535
  169MOL    H8040736   3.312   2.795   4.260 -0.0851  1.8012 -1.5972
  169MOL    H8140737   3.294   2.657   4.061 -1.9309 -1.1074 -0.5463
  169MOL    H8240738   3.200   2.808   4.061  0.8708  1.4801  2.7675
  169MOL    H8340739   3.089   2.522   4.128 -0.9720  0.7803  2.4955
  169MOL    H8440740   2.992   2.671   4.092 -1.8538 -2.9697  0.9794
  169MOL    H8540741   3.080   2.592   3.970 -0.7885 -1.2202  0.3036
  169MOL    C8640742   3.268   2.608   4.333 -0.3616 -0.5162 -0.4703
  169MOL    C8740743   3.313   2.615   4.485  0.1546 -0.2761 -0.2043
  169MOL    C8840744   3.435   2.706   4.503 -0.7635 -0.2385 -0.7903
  169MOL    C8940745   3.576   2.652   4.455  1.3698  0.3927 -0.2520
  169MOL    H9040746   3.344   2.558   4.273  3.5655  1.7422  2.3595
  169MOL    H9140747   3.192   2.531   4.329 -0.8864 -0.0837  0.8090
  169MOL    H9240748   3.239   2.679   4.533  0.6387  0.4596 -0.4259
  169MOL    H9340749   3.457   2.719   4.609  0.5065  0.8305 -1.1708
  169MOL    H9440750   3.416   2.806   4.464 -0.3433  0.1366 -0.0513
  169MOL    H9540751   3.614   2.579   4.526  0.9320 -0.4406 -0.8587
  169MOL    H9640752   3.572   2.610   4.355  0.7523  1.4543 -0.6863
  169MOL    H9740753   3.641   2.739   4.456  0.5239  1.0321  1.7879
  169MOL    C9840754   3.314   2.473   4.548 -0.1451  0.4688 -0.0032
  169MOL    C9940755   3.186   2.380   4.554 -0.1475 -0.6339  0.3394
  169MOL   C10040756   3.153   2.351   4.696 -0.2901 -0.4577 -0.3613
  169MOL   C10140757   3.105   2.481   4.758 -0.6042 -0.4663 -0.1405
  169MOL   H10240758   3.342   2.486   4.653 -0.1366  0.8911 -0.0601
  169MOL   H10340759   3.405   2.421   4.518 -0.5828  0.3221 -1.0899
  169MOL   H10440760   3.110   2.430   4.494  3.8521  2.2782 -2.5463
  169MOL   H10540761   3.236   2.306   4.751 -0.0180 -0.0399 -0.4353
  169MOL   H10640762   3.070   2.280   4.691 -0.5260 -0.2575  0.5134
  169MOL   H10740763   3.025   2.535   4.708 -1.0756 -0.2961  0.7743
  169MOL   H10840764   3.073   2.456   4.860 -2.5706  1.8017 -0.1638
  169MOL   H10940765   3.183   2.554   4.780 -0.0115 -1.4775  1.2979
  169MOL   C11040766   3.211   2.247   4.484  0.8508 -0.4404 -0.1803
  169MOL   C11140767   3.262   2.235   4.344  0.2324  0.6114 -0.5890
  169MOL   C11240768   3.146   2.254   4.233  0.0261  0.3709  0.0380
  169MOL   C11340769   3.175   2.240   4.084 -0.5211  0.1226  0.7118
  169MOL   H11440770   3.116   2.194   4.493  0.3496  0.2740 -1.2634
  169MOL   H11540771   3.285   2.188   4.538 -0.6666 -2.5612 -0.3802
  169MOL   H11640772   3.331   2.319   4.337  0.1265  0.6280 -1.5155
  169MOL   H11740773   3.095   2.350   4.237 -0.2531  0.1507  2.3446
  169MOL   H11840774   3.078   2.174   4.263  0.2357  0.4639  0.7869
  169MOL   H11940775   3.180   2.137   4.048 -2.5862  0.0063  0.6870
  169MOL   H12040776   3.095   2.285   4.025  0.5169 -0.2912 -1.0491
  169MOL   H12140777   3.265   2.295   4.057 -0.4374  0.6420  2.0390
  169MOL   C12240778   3.337   2.102   4.316  0.3022  1.0176 -0.4746
  169MOL   C12340779   3.482   2.090   4.367  0.3583  0.4048  0.1248
  169MOL   C12440780   3.582   2.184   4.298 -0.0830  0.2419  0.3619
  169MOL   C12540781   3.688   2.232   4.400 -0.6006 -0.2328  0.2740
  169MOL   H12640782   3.334   2.074   4.210  0.3902 -0.2938 -0.1449
  169MOL   H12740783   3.273   2.028   4.364 -0.5660  3.0740  1.6452
  169MOL   H12840784   3.482   2.114   4.474 -0.4770 -0.0675  0.2343
  169MOL   H12940785   3.530   2.269   4.254  0.4750 -0.3848 -1.5704
  169MOL   H13040786   3.627   2.141   4.209  1.7576  0.1579  1.3052
  169MOL   H13140787   3.653   2.277   4.493  0.4551  0.2121  0.4707
  169MOL   H13240788   3.762   2.158   4.431 -0.2400 -0.1673 -0.4162
  169MOL   H13340789   3.746   2.306   4.345 -0.6347  0.2591  0.8907
  169MOL   C13440790   3.533   1.944   4.371  0.5136  0.5152 -0.6306
  169MOL   C13540791   3.484   1.853   4.493 -0.9262 -0.2837  0.2676
  169MOL   C13640792   3.510   1.915   4.635 -0.2376  0.7327  0.2229
  169MOL   C13740793   3.651   1.956   4.672  0.1885 -0.5503  0.4641
  169MOL   H13840794   3.641   1.949   4.387  0.4407 -0.8071  0.4637
  169MOL   H13940795   3.528   1.899   4.272  1.1740  2.1299 -1.4042
  169MOL   H14040796   3.376   1.853   4.476 -1.0578  0.2333  1.1243
  169MOL   H14140797   3.480   1.841   4.709 -0.6827 -1.8346 -2.4385
  169MOL   H14240798   3.437   1.993   4.653 -1.4147 -0.4912  0.8411
  169MOL   H14340799   3.722   1.876   4.651  0.3952  0.3110 -2.3641
  169MOL   H14440800   3.675   2.043   4.611 -1.2939  0.6093  1.5116
  169MOL   H14540801   3.658   1.974   4.779  1.2075  2.1838 -0.0251
  169MOL   C14640802   3.521   1.706   4.478  0.0586  0.5911  0.4003
  169MOL   C14740803   3.428   1.606   4.553 -0.4354 -0.0090 -0.0231
  169MOL   C14840804   3.504   1.514   4.648  0.4402  0.2901  0.1902
  169MOL   C14940805   3.554   1.586   4.774  0.0648 -0.1403  0.0986
  169MOL   H15040806   3.624   1.692   4.512 -0.1602 -0.8528  0.5043
  169MOL   H15140807   3.528   1.671   4.375 -0.5626  3.1008 -0.5375
  169MOL   H15240808   3.360   1.670   4.610 -1.2778  0.8607 -1.9409
  169MOL   H15340809   3.580   1.454   4.599  0.7412  0.5233  0.3721
  169MOL   H15440810   3.441   1.430   4.676  0.5465  0.3110  0.4987
  169MOL   H15540811   3.467   1.630   4.823  0.3234 -1.6445  1.9417
  169MOL   H15640812   3.603   1.518   4.843 -1.5070  0.1548  1.5393
  169MOL   H15740813   3.619   1.669   4.746 -1.6850  0.9183 -0.9652
  169MOL   C15840814   3.339   1.528   4.457  0.4916  0.6312  0.1953
  169MOL   C15940815   3.205   1.470   4.525 -0.5140 -0.4944  0.2242
  169MOL   C16040816   3.200   1.317   4.521 -0.4409 -0.9984  0.2499
  169MOL   C16140817   3.068   1.267   4.587  0.2485 -0.3052  0.3386
  169MOL   H16240818   3.397   1.444   4.418  0.7082  0.2165  1.3930
  169MOL   H16340819   3.316   1.575   4.361 -0.0417 -1.2834 -0.6604
  169MOL   H16440820   3.209   1.486   4.633 -1.5154 -1.6325  0.4424
  169MOL   H16540821   3.292   1.292   4.573 -0.1594  1.5300  1.0358
  169MOL   H16640822   3.211   1.270   4.423 -0.8407 -3.1197  1.1973
  169MOL   H16740823   3.075   1.161   4.608  0.1100 -0.3673  0.0735
  169MOL   H16840824   3.051   1.325   4.678 -1.0703 -1.4882  0.8583
  169MOL   H16940825   2.990   1.275   4.511  1.4707 -1.9364 -1.1257
  169MOL   C17040826   3.074   1.544   4.469  0.4513  0.1707  0.2944
  169MOL   C17140827   3.068   1.699   4.489  0.1048  0.0751  0.5109
  169MOL   C17240828   3.037   1.731   4.636  0.3401  0.0890  0.8375
  169MOL   C17340829   3.106   1.857   4.685 -0.6124 -0.0433  0.0088
  169MOL   H17440830   2.982   1.505   4.511 -0.5545  2.0928 -0.0397
  169MOL   H17540831   3.072   1.520   4.362 -1.5191  1.1323  0.0944
  169MOL   H17640832   3.169   1.736   4.470  0.9327 -2.5998 -0.4024
  169MOL   H17740833   3.083   1.661   4.706 -0.6920  0.9112  2.3750
  169MOL   H17840834   2.935   1.716   4.673  0.2034  0.5593  0.6557
  169MOL   H17940835   3.074   1.955   4.650  1.2676  0.4775 -0.3025
  169MOL   H18040836   3.107   1.869   4.793 -1.3105 -0.3935  0.0539
  169MOL   H18140837   3.210   1.860   4.653 -0.1702 -1.0230  1.3188
  169MOL   C18240838   2.961   1.766   4.399  0.3321  0.2812 -0.4791
  169MOL   C18340839   2.980   1.748   4.247 -0.3149 -0.0971  0.5817
  169MOL   C18440840   3.087   1.845   4.189 -0.6437  0.1198  0.2929
  169MOL   C18540841   3.118   1.833   4.037  0.6740  0.4109 -0.6924
  169MOL   H18640842   2.954   1.866   4.442  0.5038  0.0996 -0.0275
  169MOL   H18740843   2.870   1.724   4.442 -0.3981  1.5035 -0.8062
  169MOL   H18840844   3.002   1.646   4.215 -3.0438 -0.1526 -1.3231
  169MOL   H18940845   3.189   1.839   4.227 -0.3513  2.7791  0.0511
  169MOL   H19040846   3.054   1.949   4.196 -0.5088  0.2486 -0.8401
  169MOL   H19140847   3.198   1.901   4.005  1.4347  0.2971  0.9192
  169MOL   H19240848   3.155   1.733   4.013  0.1085  0.1797 -0.6077
  169MOL   H19340849   3.028   1.850   3.978 -0.6263  2.2692  1.7431
  169MOL   C19440850   2.837   1.752   4.178 -0.2158 -0.1461 -0.0850
  169MOL   C19540851   2.751   1.620   4.163  0.1300 -0.3356  0.2424
  169MOL   C19640852   2.657   1.626   4.046  0.0194  0.3501 -0.0979
  169MOL   C19740853   2.721   1.591   3.906  0.5107  0.5405 -0.1596
  169MOL   H19840854   2.850   1.790   4.077  1.6305  0.7443  0.4688
  169MOL   H19940855   2.785   1.827   4.237  1.3884  1.2710 -0.4509
  169MOL   H20040856   2.820   1.538   4.145 -0.7336 -2.0590  4.1026
  169MOL   H20140857   2.631   1.732   4.043  0.2326  0.3686 -1.4538
  169MOL   H20240858   2.569   1.564   4.063 -0.9501  1.3459 -1.3700
  169MOL   H20340859   2.639   1.557   3.842  1.2227 -1.5474  0.0053
  169MOL   H20440860   2.784   1.661   3.851  1.9284  0.0519  0.8319
  169MOL   H20540861   2.793   1.510   3.913 -0.7903 -0.7165 -1.0545
  169MOL   C20640862   2.663   1.592   4.285 -0.3787 -0.7357 -0.0782
  169MOL   C20740863   2.622   1.444   4.312 -0.2612  0.6209 -0.5149
  169MOL   C20840864   2.529   1.436   4.432 -0.1094 -0.7037  0.1627
  169MOL   C20940865   2.592   1.476   4.566  0.0601 -0.7926  0.1189
  169MOL   H21040866   2.579   1.662   4.291 -0.6444 -0.9965 -0.7057
  169MOL   H21140867   2.712   1.620   4.379 -0.8558  1.7512 -0.5294
  169MOL   H21240868   2.551   1.428   4.231  0.4729  1.1167 -1.2754
  169MOL   H21340869   2.475   1.343   4.448 -1.0592  0.1562  2.1129
  169MOL   H21440870   2.448   1.505   4.407 -1.0166 -1.2709  1.4662
  169MOL   H21540871   2.683   1.423   4.594  0.5377 -0.1013 -0.1143
  169MOL   H21640872   2.596   1.581   4.594  1.2534 -1.4443  2.4885
  169MOL   H21740873   2.516   1.442   4.636 -0.4880 -1.2670 -0.6915
  169MOL   C21840874   2.729   1.333   4.310 -0.2203 -0.0039 -0.2258
  169MOL   C21940875   2.741   1.254   4.176  0.3385 -0.0569 -0.3084
  169MOL   C22040876   2.622   1.173   4.136  0.1365 -0.3045 -0.0813
  169MOL   C22140877   2.631   1.152   3.986  0.2446 -0.5892 -0.1137
  169MOL   H22240878   2.685   1.261   4.380  0.0997 -1.7040 -1.7290
  169MOL   H22340879   2.815   1.372   4.363 -0.1743  0.0826 -0.3628
  169MOL   H22440880   2.752   1.331   4.099  1.1739 -0.8714 -1.0307
  169MOL   H22540881   2.529   1.217   4.173  0.3149 -0.0299  0.0464
  169MOL   H22640882   2.629   1.073   4.179 -3.8201 -0.8116 -0.4763
  169MOL   H22740883   2.540   1.105   3.949 -0.0856  0.5185 -0.7082
  169MOL   H22840884   2.639   1.250   3.939 -0.7578  0.2291  1.3803
  169MOL   H22940885   2.719   1.090   3.966  0.1204 -1.2686  1.4000
  169MOL   C23040886   2.874   1.176   4.178  0.6509 -0.5335  0.0371
  169MOL   C23140887   3.005   1.264   4.174  0.0708  0.7466 -0.0402
  169MOL   C23240888   3.049   1.306   4.030  0.3317 -0.8259 -1.0758
  169MOL   C23340889   3.149   1.422   4.033 -0.4370 -0.3082 -0.2454
  169MOL   H23440890   2.883   1.107   4.094  0.4221 -0.6040  0.0676
  169MOL   H23540891   2.880   1.114   4.267  0.6111 -2.0176 -0.9717
  169MOL   H23640892   2.996   1.349   4.241  1.9012 -1.2073  2.8395
  169MOL   H23740893   2.969   1.342   3.966 -1.5876 -0.6152  1.3673
  169MOL   H23840894   3.095   1.224   3.975 -0.7971 -1.2686 -1.3797
  169MOL   H23940895   3.086   1.505   4.066 -0.1095 -0.1528 -0.0083
  169MOL   H24040896   3.225   1.407   4.110 -1.2450 -0.2746  0.5774
  169MOL   H24140897   3.197   1.441   3.938  0.9386 -0.7032  0.3569
  169MOL   H24240898   3.086   1.203   4.216  0.2477  2.5342  2.3194
  170MOL     C140899   3.451   5.244   2.774  0.1050 -0.7580 -0.2804
  170MOL     C240900   3.338   5.356   2.760  0.0430  0.4713  0.1593
  170MOL     C340901   3.368   5.464   2.655  0.8589 -0.1603 -0.8133
  170MOL     C440902   3.323   5.431   2.512 -0.8713  0.3198 -0.0798
  170MOL     H540903   3.467   5.194   2.679  0.2166  0.4947 -0.9318
  170MOL     H640904   3.546   5.286   2.807 -0.5771  1.0090 -0.5007
  170MOL     H740905   3.244   5.312   2.727  0.4205  2.5769 -4.1372
  170MOL     H840906   3.475   5.486   2.651  0.4499  2.4748  1.1134
  170MOL     H940907   3.311   5.554   2.680 -0.7414 -0.6830 -2.4994
  170MOL    H1040908   3.216   5.418   2.498 -0.4840 -2.2243 -1.0837
  170MOL    H1140909   3.350   5.513   2.445  0.0012 -0.8764 -1.2386
  170MOL    H1240910   3.374   5.349   2.460  1.2677  1.1929  0.5634
  170MOL    H1340911   3.411   5.167   2.840 -2.0706  1.2154  0.7479
  170MOL    C1440912   3.315   5.422   2.898  0.2133 -0.3444 -0.1681
  170MOL    C1540913   3.250   5.329   3.006 -0.1652  0.5871  0.5193
  170MOL    C1640914   3.096   5.307   2.973  0.5983 -0.2664 -0.0110
  170MOL    C1740915   3.047   5.161   2.992 -0.3754 -0.0866 -0.0368
  170MOL    H1840916   3.252   5.511   2.896 -1.6850 -1.6214  0.9104
  170MOL    H1940917   3.408   5.461   2.938 -0.0752  1.0765 -0.8342
  170MOL    H2040918   3.294   5.229   3.005 -0.2744  0.5256  1.3589
  170MOL    H2140919   3.081   5.325   2.867 -0.5246  2.1755  0.5203
  170MOL    H2240920   3.029   5.382   3.015  0.2002 -0.3803 -0.4449
  170MOL    H2340921   3.046   5.142   3.100 -0.6210  1.4736  0.2442
  170MOL    H2440922   2.947   5.151   2.951 -0.3162 -1.2306  0.0826
  170MOL    H2540923   3.121   5.094   2.947 -0.7278  0.0786 -0.8705
  170MOL    C2640924   3.274   5.377   3.150  0.3626 -0.2119  0.4522
  170MOL    C2740925   3.416   5.345   3.207 -0.0032 -0.5787 -0.1968
  170MOL    C2840926   3.445   5.196   3.232 -0.4330 -0.0262  0.2346
  170MOL    C2940927   3.343   5.116   3.317 -0.1513 -0.8688 -0.2007
  170MOL    H3040928   3.195   5.332   3.210  0.2855  1.2266  1.4642
  170MOL    H3140929   3.261   5.485   3.146  0.4410 -0.2804 -2.5535
  170MOL    H3240930   3.496   5.374   3.139 -0.1661 -0.6263 -0.4098
  170MOL    H3340931   3.546   5.188   3.272 -1.1694 -0.5748  2.0409
  170MOL    H3440932   3.448   5.157   3.130  1.9546 -0.8003  0.5535
  170MOL    H3540933   3.391   5.020   3.333 -1.8508 -1.4579  1.5192
  170MOL    H3640934   3.327   5.163   3.414 -0.6922  1.5160 -1.3945
  170MOL    H3740935   3.251   5.088   3.265 -1.5676  0.5350  1.4910
  170MOL    C3840936   3.433   5.423   3.341 -0.3609 -0.7993  0.1763
  170MOL    C3940937   3.477   5.575   3.338  0.3966  0.3259 -0.7215
  170MOL    C4040938   3.615   5.593   3.264  0.6682 -0.5727 -0.5292
  170MOL    C4140939   3.668   5.739   3.253  0.0316  0.9015  0.4596
  170MOL    H4240940   3.516   5.372   3.390 -1.5198 -0.7165  2.2852
  170MOL    H4340941   3.349   5.414   3.410 -2.0621  1.6938 -1.4843
  170MOL    H4440942   3.402   5.630   3.282  1.3569  0.5787 -1.7915
  170MOL    H4540943   3.609   5.546   3.166 -0.0198 -0.7305 -0.4162
  170MOL    H4640944   3.688   5.534   3.320  2.6013  2.5814  0.3898
  170MOL    H4740945   3.752   5.750   3.184  0.7705  0.1764  1.2258
  170MOL    H4840946   3.591   5.808   3.219  0.9917  1.1562 -1.2473
  170MOL    H4940947   3.715   5.774   3.345  1.4614  1.7885 -0.5821
  170MOL    C5040948   3.482   5.624   3.487  0.2339 -0.9523  0.5434
  170MOL    C5140949   3.348   5.683   3.532  0.9129  0.3646  0.7907
  170MOL    C5240950   3.356   5.832   3.509 -0.2068  0.8429 -0.4625
  170MOL    C5340951   3.217   5.909   3.518 -0.0548 -0.8667  0.0102
  170MOL    H5440952   3.549   5.710   3.482 -1.7982  0.6150 -0.5333
  170MOL    H5540953   3.515   5.543   3.553  0.7671 -1.2318 -0.0576
  170MOL    H5640954   3.267   5.630   3.481  1.2502 -0.4371  1.0792
  170MOL    H5740955   3.398   5.866   3.414  0.3082  1.1874 -0.1148
  170MOL    H5840956   3.419   5.870   3.589 -0.7365 -0.6941  0.7033
  170MOL    H5940957   3.172   5.879   3.613 -0.5486  0.9511  0.3602
  170MOL    H6040958   3.249   6.011   3.536 -1.9849 -0.1527 -0.4549
  170MOL    H6140959   3.154   5.900   3.429  0.2058 -0.8405 -0.1789
  170MOL    C6240960   3.319   5.649   3.678  0.1501  0.6283 -0.5544
  170MOL    C6340961   3.213   5.542   3.697 -0.1679 -0.7691  0.1574
  170MOL    C6440962   3.067   5.596   3.668 -0.5003 -0.2013 -0.0722
  170MOL    C6540963   2.981   5.488   3.587 -0.5833 -0.0459 -0.1077
  170MOL    H6640964   3.284   5.740   3.726 -1.7362  1.1708 -2.8731
  170MOL    H6740965   3.403   5.629   3.745 -1.3636  0.8167  1.4523
  170MOL    H6840966   3.227   5.469   3.617 -0.6357  0.4960 -1.1083
  170MOL    H6940967   3.071   5.679   3.598  1.7089 -0.4158 -0.2176
  170MOL    H7040968   3.012   5.623   3.759  0.2728  1.5548 -0.1090
  170MOL    H7140969   2.996   5.403   3.653  2.4963  0.0115 -0.6332
  170MOL    H7240970   2.876   5.510   3.570 -0.6650  1.8795  2.6690
  170MOL    H7340971   3.037   5.455   3.499 -0.1937 -1.4346  0.6491
  170MOL    C7440972   3.226   5.464   3.828  0.4019  0.2121 -0.3048
  170MOL    C7540973   3.333   5.347   3.838 -0.0586 -0.1114  0.0079
  170MOL    C7640974   3.276   5.202   3.859  0.6590  0.3706 -0.2203
  170MOL    C7740975   3.215   5.137   3.732  0.5011 -0.2490 -0.0743
  170MOL    H7840976   3.126   5.424   3.843  0.9595 -0.5762  1.3541
  170MOL    H7940977   3.236   5.531   3.913 -0.8247 -1.6961  1.3838
  170MOL    H8040978   3.370   5.350   3.736 -1.6757 -1.0785 -0.6351
  170MOL    H8140979   3.208   5.193   3.944 -0.0115  0.6593 -0.7192
  170MOL    H8240980   3.360   5.136   3.882  0.8143  0.7250  0.2352
  170MOL    H8340981   3.175   5.043   3.771 -1.1724  0.4673 -0.0059
  170MOL    H8440982   3.141   5.198   3.679  0.2553 -0.3127  0.1942
  170MOL    H8540983   3.304   5.113   3.674  0.6979  0.5457 -0.1055
  170MOL    C8640984   3.449   5.385   3.932 -0.3642 -0.8444 -0.1627
  170MOL    C8740985   3.579   5.311   3.907 -0.0909  0.2355  0.4093
  170MOL    C8840986   3.656   5.308   4.046 -0.5357  0.4455  0.1848
  170MOL    C8940987   3.632   5.176   4.118 -0.4647  0.2572  0.0892
  170MOL    H9040988   3.410   5.383   4.034 -1.3764 -1.7649 -0.5573
  170MOL    H9140989   3.470   5.487   3.903  4.1665 -1.8778 -0.8739
  170MOL    H9240990   3.562   5.206   3.882  1.0556  0.6931 -2.3895
  170MOL    H9340991   3.624   5.387   4.114 -1.0716 -1.8150  2.6291
  170MOL    H9440992   3.760   5.337   4.028  0.0490 -1.8504 -0.3020
  170MOL    H9540993   3.659   5.178   4.223 -0.2015 -1.8164  0.1005
  170MOL    H9640994   3.524   5.166   4.116 -0.3793 -0.6481 -1.4756
  170MOL    H9740995   3.669   5.085   4.070 -1.7217 -1.0183  1.4924
  170MOL    C9840996   3.655   5.382   3.798 -0.2072  0.3061 -0.2020
  170MOL    C9940997   3.756   5.308   3.712  0.2644 -0.3975 -0.5309
  170MOL   C10040998   3.832   5.421   3.639 -0.7023 -0.2347  0.2069
  170MOL   C10140999   3.953   5.375   3.547  0.4815 -0.1877  0.5824
  170MOL   H10241000   3.708   5.461   3.852 -0.6603 -0.5291  1.4926
  170MOL   H10341001   3.596   5.433   3.722  1.4538 -0.0433 -1.7673
  170MOL   H10441002   3.829   5.270   3.784 -0.8777 -1.7909 -0.0727
  170MOL   H10541003   3.873   5.494   3.709 -0.7080 -0.0151 -0.0191
  170MOL   H10641004   3.759   5.480   3.582  0.3581  0.5697 -0.3323
  170MOL   H10741005   4.028   5.312   3.595  2.1492 -0.1152 -1.8273
  170MOL   H10841006   3.913   5.324   3.459 -0.8438  1.8914 -0.0604
  170MOL   H10941007   3.994   5.474   3.524 -0.8482  1.0599  3.3777
  170MOL   C11041008   3.697   5.199   3.624 -0.1236  0.1115 -0.6691
  170MOL   C11141009   3.777   5.071   3.603 -0.5667 -0.3972 -0.4203
  170MOL   C11241010   3.697   4.979   3.497 -0.2480 -0.6682 -0.9178
  170MOL   C11341011   3.762   4.850   3.451  0.3827  0.4111 -0.0220
  170MOL   H11441012   3.686   5.237   3.522  0.7429 -0.2126 -0.8831
  170MOL   H11541013   3.597   5.176   3.662  0.0812  0.5718  0.1527
  170MOL   H11641014   3.868   5.097   3.549 -0.3979  0.6417  0.3423
  170MOL   H11741015   3.692   5.035   3.404  1.9111  3.3710  1.2691
  170MOL   H11841016   3.593   4.960   3.524 -0.3968  0.5823 -0.5866
  170MOL   H11941017   3.808   4.790   3.530 -1.3676  0.1362  0.8116
  170MOL   H12041018   3.704   4.789   3.383  2.6659 -1.7277 -0.1135
  170MOL   H12141019   3.847   4.887   3.393  0.2151  0.7953 -0.0233
  170MOL   C12241020   3.789   4.998   3.736  0.1205  0.7785  0.3605
  170MOL   C12341021   3.926   4.931   3.767 -0.6305 -0.3592  0.1070
  170MOL   C12441022   3.930   4.818   3.871  0.0810  0.2529  0.7846
  170MOL   C12541023   3.842   4.695   3.845 -0.1772 -0.6177 -0.5147
  170MOL   H12641024   3.715   4.917   3.733  1.3729 -0.3553 -0.4618
  170MOL   H12741025   3.759   5.060   3.821  0.2412  3.0440 -1.2177
  170MOL   H12841026   3.963   4.889   3.674 -2.9185  1.9329 -1.8890
  170MOL   H12941027   3.903   4.859   3.969  1.2290 -0.4573  1.4134
  170MOL   H13041028   4.034   4.788   3.883  0.3071  0.9529  0.5874
  170MOL   H13141029   3.894   4.619   3.904  1.0005  0.6020  0.0694
  170MOL   H13241030   3.738   4.709   3.875  0.4038  0.7310  0.9100
  170MOL   H13341031   3.846   4.667   3.740  0.9778  0.6983 -0.8404
  170MOL   C13441032   4.030   5.037   3.796 -0.2380  0.2752 -0.3516
  170MOL   C13541033   4.176   4.992   3.755 -1.0080 -0.1972 -0.0801
  170MOL   C13641034   4.283   5.056   3.856 -0.6412 -0.2559 -0.0581
  170MOL   C13741035   4.418   4.982   3.864  0.1463 -0.1312 -0.2805
  170MOL   H13841036   4.017   5.063   3.901 -0.1261  0.7280 -0.4451
  170MOL   H13941037   4.025   5.137   3.753 -0.1404 -0.7448 -2.8241
  170MOL   H14041038   4.183   4.885   3.777 -1.0732 -0.8467 -2.9563
  170MOL   H14141039   4.233   5.061   3.953  1.8217  1.6448  1.1617
  170MOL   H14241040   4.289   5.163   3.837 -1.4216 -0.3304 -0.7715
  170MOL   H14341041   4.478   4.996   3.774  0.7174 -1.9510 -0.2034
  170MOL   H14441042   4.482   5.023   3.942  1.4883 -1.8598 -0.4427
  170MOL   H14541043   4.401   4.876   3.883 -1.0728  0.7219  3.8581
  170MOL   C14641044   4.209   5.021   3.600  0.0087 -0.4911  0.0132
  170MOL   C14741045   4.275   4.908   3.517 -1.0478  0.3981 -1.0439
  170MOL   C14841046   4.343   4.962   3.390 -0.8895  0.3795 -1.0463
  170MOL   C14941047   4.253   5.037   3.289 -0.3457 -0.9732 -0.4676
  170MOL   H15041048   4.262   5.116   3.608  1.5006 -1.2733 -0.3379
  170MOL   H15141049   4.126   5.060   3.541  1.7082  0.7975 -1.5971
  170MOL   H15241050   4.356   4.878   3.584 -1.0565  0.6685 -0.9147
  170MOL   H15341051   4.370   4.869   3.341  0.0969 -0.0984  0.3758
  170MOL   H15441052   4.437   5.013   3.414  0.2403 -1.6321 -1.1397
  170MOL   H15541053   4.157   4.989   3.274 -1.5074  1.0636  0.2361
  170MOL   H15641054   4.243   5.144   3.311 -1.0806 -0.8607 -1.3214
  170MOL   H15741055   4.304   5.039   3.193  0.3525  0.8432 -0.0878
  170MOL   C15841056   4.181   4.791   3.503 -0.1264 -0.1053  0.0184
  170MOL   C15941057   4.259   4.658   3.479  0.1951 -0.2172 -0.3733
  170MOL   C16041058   4.173   4.565   3.396  0.1076 -1.5786  0.0550
  170MOL   C16141059   4.247   4.472   3.296 -0.4232  0.0575 -0.3744
  170MOL   H16241060   4.115   4.811   3.419 -0.0806  2.3155  0.5322
  170MOL   H16341061   4.120   4.776   3.592  0.9984 -0.6223  0.7130
  170MOL   H16441062   4.347   4.692   3.424 -0.5338  0.1660 -1.3206
  170MOL   H16541063   4.113   4.628   3.331  4.4009  0.9326 -1.7193
  170MOL   H16641064   4.112   4.505   3.463 -1.4775 -0.5652 -0.4665
  170MOL   H16741065   4.172   4.443   3.223  0.3390  0.3330 -1.2686
  170MOL   H16841066   4.317   4.522   3.229  0.5721 -0.7693  0.0210
  170MOL   H16941067   4.295   4.385   3.342 -1.6190  0.2812  1.3453
  170MOL   C17041068   4.301   4.598   3.612 -0.7089 -0.1714 -0.1317
  170MOL   C17141069   4.442   4.530   3.623  0.2564  0.0869 -0.2847
  170MOL   C17241070   4.443   4.406   3.726  0.5417  0.2121  0.2486
  170MOL   C17341071   4.414   4.455   3.871 -0.5031 -0.2126  0.4935
  170MOL   H17441072   4.227   4.525   3.646 -1.4872  0.8341  0.3674
  170MOL   H17541073   4.294   4.669   3.695  1.5243 -0.0716  0.0101
  170MOL   H17641074   4.458   4.489   3.523  1.7941  1.1129 -0.4824
  170MOL   H17741075   4.535   4.348   3.728  0.9540  0.9057  1.8215
  170MOL   H17841076   4.365   4.336   3.695 -0.0422 -0.4066  3.0065
  170MOL   H17941077   4.340   4.535   3.876  0.5426  0.7952 -0.0223
  170MOL   H18041078   4.404   4.383   3.952 -0.2582  1.3586  1.9544
  170MOL   H18141079   4.508   4.500   3.902  0.3615 -1.1400 -0.7600
  170MOL   C18241080   4.557   4.628   3.649 -0.4176  0.0826  0.5211
  170MOL   C18341081   4.710   4.586   3.649  0.8181 -0.0008 -0.2557
  170MOL   C18441082   4.798   4.677   3.743  0.3587  0.1657 -0.2348
  170MOL   C18541083   4.783   4.648   3.891  0.6892 -0.1819 -0.0407
  170MOL   H18641084   4.535   4.659   3.751  0.8709 -2.3643  1.5831
  170MOL   H18741085   4.554   4.718   3.586 -1.0657  0.9494  1.7637
  170MOL   H18841086   4.709   4.484   3.685  2.5539 -1.1803 -3.3577
  170MOL   H18941087   4.780   4.784   3.736 -2.5424 -0.2982 -0.3891
  170MOL   H19041088   4.904   4.662   3.721  0.0224 -0.8871 -1.1986
  170MOL   H19141089   4.823   4.725   3.957 -0.1357 -1.0699  1.5235
  170MOL   H19241090   4.679   4.629   3.918  0.6849 -0.5335 -0.3049
  170MOL   H19341091   4.834   4.556   3.919  1.5395  0.9160  2.1652
  170MOL   C19441092   4.763   4.590   3.496 -0.2221  0.9971  0.5917
  170MOL   C19541093   4.908   4.538   3.466  0.1195  0.1891  0.4562
  170MOL   C19641094   4.956   4.563   3.324 -0.2829  0.2715  0.2660
  170MOL   C19741095   4.955   4.709   3.273 -0.3625 -0.5199 -0.0559
  170MOL   H19841096   4.753   4.694   3.464  0.7169  0.3730 -1.9125
  170MOL   H19941097   4.691   4.542   3.429 -0.0689  0.2400  0.9576
  170MOL   H20041098   4.974   4.590   3.536 -0.3509  0.1805  0.9088
  170MOL   H20141099   4.886   4.516   3.255 -0.1690  2.8523 -1.6662
  170MOL   H20241100   5.053   4.516   3.304 -1.0114  0.2269 -3.4863
  170MOL   H20341101   5.019   4.778   3.329  0.0801 -0.9550 -0.0142
  170MOL   H20441102   4.975   4.724   3.167  0.3440 -0.7554  0.0408
  170MOL   H20541103   4.855   4.749   3.283  0.6043  1.7394  0.8820
  170MOL   C20641104   4.920   4.395   3.516  0.4368  0.0219 -0.5564
  170MOL   C20741105   5.053   4.325   3.494 -0.1976 -0.2258 -0.1415
  170MOL   C20841106   5.040   4.172   3.518 -0.1213 -0.6411  0.5949
  170MOL   C20941107   4.916   4.105   3.460 -0.1659  0.0504  0.5678
  170MOL   H21041108   4.841   4.343   3.461  1.0115  0.4506 -1.8057
  170MOL   H21141109   4.892   4.382   3.621 -0.6670 -0.8356 -0.9449
  170MOL   H21241110   5.083   4.333   3.390  0.0920 -2.5154 -0.2590
  170MOL   H21341111   5.034   4.157   3.626 -1.9741 -0.2624  0.5634
  170MOL   H21441112   5.125   4.109   3.490  0.0461  0.6973 -2.0476
  170MOL   H21541113   4.896   4.141   3.359  1.5537  0.4077  0.3403
  170MOL   H21641114   4.938   4.001   3.434  2.0193  0.2765  1.4367
  170MOL   H21741115   4.821   4.123   3.510 -0.4719 -0.2916  0.1147
  170MOL   C21841116   5.171   4.385   3.573  0.9329  0.7258  0.3929
  170MOL   C21941117   5.312   4.332   3.525 -0.3943  0.8024 -0.8043
  170MOL   C22041118   5.414   4.375   3.631  0.7633  0.4179 -0.4269
  170MOL   C22141119   5.435   4.526   3.640 -0.3182 -0.0297 -0.1812
  170MOL   H22241120   5.158   4.356   3.677  1.5578  2.6558  1.0237
  170MOL   H22341121   5.173   4.494   3.580 -1.7061  0.6988  2.0468
  170MOL   H22441122   5.308   4.224   3.539  0.5684  0.9982  1.1419
  170MOL   H22541123   5.506   4.320   3.612  0.0861 -0.2031 -2.0190
  170MOL   H22641124   5.382   4.338   3.729  0.2184  1.0030 -0.3825
  170MOL   H22741125   5.441   4.567   3.539  0.5195  0.1040 -0.0865
  170MOL   H22841126   5.354   4.580   3.688  2.0858  2.4201  1.2691
  170MOL   H22941127   5.522   4.552   3.701 -0.0350 -0.8608 -0.2256
  170MOL   C23041128   5.352   4.356   3.381 -0.6534  0.3360  0.3346
  170MOL   C23141129   5.491   4.307   3.339  0.4562  0.2146 -0.2211
  170MOL   C23241130   5.501   4.298   3.185 -0.4167 -0.0597  0.7251
  170MOL   C23341131   5.635   4.231   3.137  0.2466 -0.4030 -0.6133
  170MOL   H23441132   5.330   4.462   3.369 -2.1372 -0.0622 -0.5261
  170MOL   H23541133   5.284   4.313   3.307 -2.7328  1.7467  1.3703
  170MOL   H23641134   5.565   4.370   3.388 -1.4470  1.9514  0.4841
  170MOL   H23741135   5.503   4.401   3.147 -0.5427 -0.3807 -0.1752
  170MOL   H23841136   5.420   4.243   3.136 -0.4496 -1.5393  2.4109
  170MOL   H23941137   5.660   4.251   3.033 -1.1270  1.2554 -0.6433
  170MOL   H24041138   5.720   4.255   3.200  0.1731 -1.2981 -0.1612
  170MOL   H24141139   5.640   4.122   3.143 -1.1303 -0.5392 -1.7428
  170MOL   H24241140   5.506   4.202   3.366 -0.7279  0.4270  1.2709
  171MOL     C141141   3.418   0.871   1.860  0.0014  0.0648  1.0312
  171MOL     C241142   3.469   0.799   1.982  0.0180 -0.7888  0.1502
  171MOL     C341143   3.346   0.778   2.071  0.1196 -0.0430 -0.2954
  171MOL     C441144   3.264   0.663   2.023  0.4558  0.2112 -0.4796
  171MOL     H541145   3.493   0.883   1.782 -2.2453 -2.2296 -1.5838
  171MOL     H641146   3.341   0.814   1.808 -2.2644  3.0321  0.9360
  171MOL     H741147   3.510   0.702   1.952  1.1575  0.2098 -1.5671
  171MOL     H841148   3.287   0.862   2.108  1.5775 -0.0124  2.0207
  171MOL     H941149   3.390   0.750   2.167 -0.3394 -1.7089 -0.5542
  171MOL    H1041150   3.180   0.632   2.085  1.0277  0.3547  0.3656
  171MOL    H1141151   3.212   0.687   1.930  1.6917 -1.0533 -1.5138
  171MOL    H1241152   3.321   0.572   2.007 -0.3384 -0.5507  0.9722
  171MOL    H1341153   3.372   0.968   1.884 -0.2855 -0.0250  0.8424
  171MOL    C1441154   3.584   0.867   2.051  0.1881 -0.0500 -0.3000
  171MOL    C1541155   3.716   0.894   1.972  0.3150 -0.3227 -0.6056
  171MOL    C1641156   3.841   0.871   2.075  0.2458  0.3313  0.0518
  171MOL    C1741157   3.855   0.972   2.184 -0.0729  0.1916 -0.0887
  171MOL    H1841158   3.607   0.802   2.135 -2.6611  0.6138  1.0386
  171MOL    H1941159   3.558   0.960   2.102 -0.7142  0.4781 -1.6725
  171MOL    H2041160   3.721   0.819   1.893 -1.3646 -0.9873 -0.1141
  171MOL    H2141161   3.929   0.871   2.010 -1.6654  2.1119 -2.6132
  171MOL    H2241162   3.830   0.773   2.121  1.3008  1.2457  2.3143
  171MOL    H2341163   3.923   0.944   2.264 -1.2176 -1.8706  0.1935
  171MOL    H2441164   3.892   1.065   2.139 -0.3038  0.8373  1.0421
  171MOL    H2541165   3.760   0.998   2.232 -0.4237 -1.0420 -0.1114
  171MOL    C2641166   3.719   1.032   1.899 -0.5430 -0.0394  0.3941
  171MOL    C2741167   3.844   1.063   1.808  1.2766  0.5307  0.2087
  171MOL    C2841168   3.841   1.216   1.781 -0.2608 -0.2572 -0.0700
  171MOL    C2941169   3.870   1.299   1.904  0.0487 -0.4386  0.0261
  171MOL    H3041170   3.716   1.099   1.984  0.1235 -1.6313  1.7129
  171MOL    H3141171   3.627   1.057   1.847  0.3661 -0.8109 -1.6342
  171MOL    H3241172   3.937   1.042   1.862  0.7491  0.9934  1.3224
  171MOL    H3341173   3.746   1.258   1.749 -0.7254  0.0714  1.7017
  171MOL    H3441174   3.918   1.243   1.709 -0.0540  0.3377  0.3696
  171MOL    H3541175   3.772   1.338   1.932 -0.3658 -1.4992  0.0523
  171MOL    H3641176   3.905   1.236   1.985 -1.0345 -0.8700  0.1640
  171MOL    H3741177   3.944   1.377   1.887  0.5803 -0.3939  2.4851
  171MOL    C3841178   3.831   0.979   1.674  0.2363  0.5048 -0.5921
  171MOL    C3941179   3.939   0.996   1.572 -0.0993  0.3412  0.0982
  171MOL    C4041180   3.897   0.903   1.454 -0.2607 -1.1146 -0.1391
  171MOL    C4141181   3.974   0.929   1.326 -0.5074  0.4684 -0.4991
  171MOL    H4241182   3.732   1.008   1.637  0.1201 -0.1020 -0.7626
  171MOL    H4341183   3.814   0.875   1.702  1.6426  0.9573  2.0705
  171MOL    H4441184   3.946   1.096   1.530 -1.0874  1.1694  1.8929
  171MOL    H4541185   3.792   0.916   1.430  0.2850  1.0607 -1.4583
  171MOL    H4641186   3.907   0.799   1.488 -2.0050 -0.0906  3.7942
  171MOL    H4741187   3.941   0.865   1.245  1.2503 -0.3555 -0.5791
  171MOL    H4841188   3.954   1.034   1.300 -1.3356 -0.2515 -2.9478
  171MOL    H4941189   4.081   0.928   1.347 -0.1333  1.3008 -2.2690
  171MOL    C5041190   4.084   0.959   1.619  0.4846  0.7307  0.1552
  171MOL    C5141191   4.173   1.085   1.635  0.2934 -0.0964 -0.1739
  171MOL    C5241192   4.221   1.131   1.495  0.0388 -0.0087  0.0663
  171MOL    C5341193   4.280   1.271   1.500  0.7353  0.7031 -0.3602
  171MOL    H5441194   4.135   0.885   1.558  1.5911  0.3512  1.5250
  171MOL    H5541195   4.071   0.918   1.719  1.5619 -2.2643 -0.9011
  171MOL    H5641196   4.107   1.163   1.672 -0.9169 -1.6416  0.9914
  171MOL    H5741197   4.140   1.128   1.421  0.3490 -0.0029 -0.2736
  171MOL    H5841198   4.299   1.061   1.467  0.6690  0.8802 -0.4408
  171MOL    H5941199   4.305   1.298   1.398 -1.1875  1.1481 -0.7244
  171MOL    H6041200   4.210   1.350   1.528 -1.0957 -0.2479 -2.1459
  171MOL    H6141201   4.372   1.279   1.559  0.8002  1.3517 -0.5446
  171MOL    C6241202   4.298   1.065   1.739 -0.0224  0.0462 -0.4708
  171MOL    C6341203   4.260   1.113   1.883 -0.2659  0.1274 -0.5160
  171MOL    C6441204   4.228   1.264   1.897  0.2663  0.4946  0.3767
  171MOL    C6541205   4.330   1.369   1.890 -0.6343 -0.2026  0.4696
  171MOL    H6641206   4.387   1.112   1.695  0.7892 -0.2511  0.8291
  171MOL    H6741207   4.330   0.962   1.749 -0.8897 -0.1462  0.4099
  171MOL    H6841208   4.167   1.058   1.897  0.0375  0.0679  1.4255
  171MOL    H6941209   4.183   1.286   1.994 -2.4541 -0.4455 -0.6173
  171MOL    H7041210   4.145   1.283   1.829  2.2113  1.6426 -1.7174
  171MOL    H7141211   4.393   1.345   1.805 -0.6291  1.9976 -0.1931
  171MOL    H7241212   4.286   1.469   1.896  1.4740  0.7638  0.4063
  171MOL    H7341213   4.401   1.356   1.971  0.3467 -3.4567 -0.8553
  171MOL    C7441214   4.366   1.072   1.988 -0.3382  1.2469 -0.1629
  171MOL    C7541215   4.369   0.922   2.030  0.1382 -0.0661 -0.1427
  171MOL    C7641216   4.240   0.884   2.104 -0.2410  0.1783 -0.3764
  171MOL    C7741217   4.180   0.754   2.060 -0.1948  0.6089 -0.6234
  171MOL    H7841218   4.328   1.119   2.079 -3.5971  1.4933 -1.5894
  171MOL    H7941219   4.462   1.118   1.964  1.0318 -1.7470 -0.5624
  171MOL    H8041220   4.379   0.854   1.945  2.8998  1.1772 -0.8544
  171MOL    H8141221   4.168   0.965   2.092  0.3863  1.3222  3.0009
  171MOL    H8241222   4.255   0.872   2.212 -1.0584 -0.8617 -0.3660
  171MOL    H8341223   4.106   0.714   2.131 -3.0787  2.3217 -2.5652
  171MOL    H8441224   4.143   0.753   1.958 -1.1560 -0.3863 -0.2825
  171MOL    H8541225   4.254   0.674   2.065 -1.6006 -0.6674  0.6169
  171MOL    C8641226   4.495   0.881   2.106 -0.4300 -0.3332 -0.0470
  171MOL    C8741227   4.638   0.904   2.051 -0.3074  0.5595 -0.2702
  171MOL    C8841228   4.661   0.802   1.936 -0.4255 -0.0373 -0.6283
  171MOL    C8941229   4.796   0.821   1.858 -0.0194 -0.3779  0.1747
  171MOL    H9041230   4.482   0.777   2.137 -1.4710 -0.4914 -0.9738
  171MOL    H9141231   4.492   0.947   2.192 -0.2276  1.3933 -1.3357
  171MOL    H9241232   4.633   1.007   2.015  0.0508  0.2615 -1.1964
  171MOL    H9341233   4.584   0.810   1.859 -0.3891 -1.4557 -0.8258
  171MOL    H9441234   4.643   0.701   1.972  1.0197  0.4598  1.5353
  171MOL    H9541235   4.801   0.799   1.751  3.9136 -0.3068  0.2562
  171MOL    H9641236   4.807   0.929   1.852  2.2217 -0.6526 -1.7271
  171MOL    H9741237   4.893   0.793   1.898  0.4209  2.1814  0.9684
  171MOL    C9841238   4.745   0.902   2.163  0.1067  0.3145 -0.4817
  171MOL    C9941239   4.761   1.032   2.247 -0.2276  0.2108  0.9724
  171MOL   C10041240   4.881   1.108   2.194 -1.3171 -0.2513  0.0941
  171MOL   C10141241   4.856   1.175   2.056  0.0721 -0.5792  0.1157
  171MOL   H10241242   4.841   0.874   2.118  0.7913  2.6813 -0.5423
  171MOL   H10341243   4.732   0.813   2.224  0.0630  0.8917  0.3480
  171MOL   H10441244   4.668   1.087   2.237 -0.8189 -0.6935  1.3888
  171MOL   H10541245   4.965   1.038   2.190  1.0155  2.4949 -0.6663
  171MOL   H10641246   4.907   1.192   2.259  0.9420 -0.2837 -0.7271
  171MOL   H10741247   4.944   1.224   2.014  0.4220 -0.6649  0.7233
  171MOL   H10841248   4.822   1.111   1.975 -1.6210  1.8184 -1.1004
  171MOL   H10941249   4.779   1.251   2.063  2.2462  1.5674  1.6905
  171MOL   C11041250   4.779   0.996   2.396 -0.1698  0.5688 -0.3512
  171MOL   C11141251   4.728   1.106   2.491 -0.1386  0.3517 -0.0641
  171MOL   C11241252   4.787   1.082   2.631 -0.8747  0.6752 -0.1736
  171MOL   C11341253   4.739   0.955   2.712  0.1074 -0.0724  0.2625
  171MOL   H11441254   4.881   0.978   2.430 -0.7449 -3.7072 -0.6784
  171MOL   H11541255   4.723   0.905   2.416  2.1703  0.0101  4.1759
  171MOL   H11641256   4.754   1.204   2.451  2.2138  0.0173  0.6265
  171MOL   H11741257   4.769   1.169   2.695  1.9099  0.0893  1.5070
  171MOL   H11841258   4.895   1.072   2.620 -0.8303  1.0635 -0.0920
  171MOL   H11941259   4.792   0.952   2.807  0.0569  1.0982  0.3344
  171MOL   H12041260   4.631   0.953   2.728 -0.0145  0.0152 -0.5468
  171MOL   H12141261   4.761   0.859   2.666 -2.8820 -1.9292  2.4495
  171MOL   C12241262   4.574   1.106   2.492  0.3294  0.0514 -0.4941
  171MOL   C12341263   4.511   1.215   2.587 -0.4983  0.2027 -0.1030
  171MOL   C12441264   4.405   1.161   2.684 -0.9491  0.5170  0.7345
  171MOL   C12541265   4.292   1.088   2.612  0.2260  0.4565  0.1826
  171MOL   H12641266   4.543   1.005   2.520  1.8332  0.1484  1.6366
  171MOL   H12741267   4.532   1.116   2.392 -1.6587  1.5142  0.4627
  171MOL   H12841268   4.582   1.255   2.660 -1.3940  0.7243  0.4972
  171MOL   H12941269   4.373   1.246   2.745  0.8662  1.2930  0.6233
  171MOL   H13041270   4.440   1.086   2.755 -0.7725 -0.3379 -0.2466
  171MOL   H13141271   4.246   1.149   2.535 -1.1828  0.8478  1.3152
  171MOL   H13241272   4.315   0.999   2.554 -0.9204 -0.5413  1.2340
  171MOL   H13341273   4.208   1.065   2.677  0.2780 -0.5398 -0.0997
  171MOL   C13441274   4.456   1.337   2.511 -0.1372  0.0620  0.0357
  171MOL   C13541275   4.567   1.424   2.448 -0.5171  0.4108 -0.5542
  171MOL   C13641276   4.646   1.508   2.549  0.0172 -0.2281  0.0404
  171MOL   C13741277   4.561   1.586   2.659  0.1326 -0.4121 -0.9259
  171MOL   H13841278   4.400   1.404   2.576 -0.9077 -1.2760  0.7753
  171MOL   H13941279   4.395   1.299   2.429 -0.3250  1.3753 -0.4409
  171MOL   H14041280   4.645   1.367   2.397  0.8576  1.2961  0.5342
  171MOL   H14141281   4.719   1.576   2.505  0.7573 -1.1212 -0.1338
  171MOL   H14241282   4.703   1.440   2.613  1.1175  0.1583 -0.5241
  171MOL   H14341283   4.620   1.644   2.730 -1.2529 -0.3798  0.2195
  171MOL   H14441284   4.495   1.668   2.631  0.3757  0.6583  1.4669
  171MOL   H14541285   4.519   1.518   2.733  0.3240 -0.7717 -1.1489
  171MOL   C14641286   4.498   1.521   2.341  0.5292  0.7575 -0.2283
  171MOL   C14741287   4.593   1.609   2.252 -0.1828  0.1306  0.1927
  171MOL   C14841288   4.539   1.748   2.229 -0.2124 -0.0537 -0.4477
  171MOL   C14941289   4.556   1.844   2.349  0.0542  0.3512 -0.8574
  171MOL   H15041290   4.440   1.593   2.400 -1.3234 -1.4630  0.7475
  171MOL   H15141291   4.431   1.462   2.278 -1.3705  3.2767 -0.6701
  171MOL   H15241292   4.688   1.616   2.304 -0.0746 -2.4320  0.4087
  171MOL   H15341293   4.433   1.729   2.214  0.2541 -2.4125 -0.9550
  171MOL   H15441294   4.579   1.787   2.135 -0.5824  2.0990  0.2489
  171MOL   H15541295   4.550   1.788   2.442  1.7759  0.3234 -0.7404
  171MOL   H15641296   4.659   1.880   2.347  0.1674  0.3305  2.3649
  171MOL   H15741297   4.486   1.927   2.342 -0.0543  0.5374  2.0953
  171MOL   C15841298   4.626   1.538   2.121 -0.0283  0.7267  0.2567
  171MOL   C15941299   4.754   1.578   2.038  0.3350  0.0891 -0.5052
  171MOL   C16041300   4.740   1.515   1.899  0.2834 -0.3522 -0.4763
  171MOL   C16141301   4.646   1.590   1.808 -0.0217 -0.2351 -0.5267
  171MOL   H16241302   4.538   1.554   2.059  0.2302  2.2218  0.2715
  171MOL   H16341303   4.622   1.429   2.128  0.5761  0.4956 -2.5499
  171MOL   H16441304   4.747   1.684   2.013 -0.9388 -0.3348 -2.0165
  171MOL   H16541305   4.711   1.411   1.913 -0.1767 -0.1598  0.0235
  171MOL   H16641306   4.832   1.511   1.841  2.1219 -2.5786  2.4244
  171MOL   H16741307   4.682   1.692   1.812  0.9815 -0.5708 -0.8479
  171MOL   H16841308   4.641   1.551   1.706  1.0487 -1.9686  0.0746
  171MOL   H16941309   4.552   1.585   1.863  0.4353 -0.9010  0.2051
  171MOL   C17041310   4.887   1.536   2.097  0.2438  0.8134  0.0113
  171MOL   C17141311   4.945   1.626   2.203 -1.1092  0.6969  0.2147
  171MOL   C17241312   4.936   1.775   2.173  0.3452  0.2286  0.1390
  171MOL   C17341313   5.002   1.823   2.047  0.0822 -0.0292  0.4692
  171MOL   H17441314   4.957   1.533   2.014 -0.8255  2.2207 -0.9720
  171MOL   H17541315   4.888   1.434   2.137 -1.6815  0.7998  0.0825
  171MOL   H17641316   4.877   1.624   2.288 -0.7177  0.5379  0.5186
  171MOL   H17741317   4.966   1.831   2.261  1.3219 -2.6247  1.6822
  171MOL   H17841318   4.830   1.799   2.160  0.6693  0.8624 -1.4847
  171MOL   H17941319   4.938   1.899   2.002  0.6796  0.5184  0.5375
  171MOL   H18041320   5.101   1.858   2.078  0.7622 -0.8480 -0.7420
  171MOL   H18141321   5.013   1.746   1.971 -2.6200 -1.8882  1.8838
  171MOL   C18241322   5.082   1.586   2.254 -0.4480  0.4710 -0.5729
  171MOL   C18341323   5.112   1.440   2.305 -0.1668 -0.3553  0.4842
  171MOL   C18441324   5.031   1.391   2.430 -0.0122  0.3940  0.1199
  171MOL   C18541325   5.048   1.487   2.554 -0.2457  0.2132  0.4375
  171MOL   H18641326   5.098   1.650   2.340 -0.2809 -2.9603  2.0727
  171MOL   H18741327   5.160   1.609   2.181 -0.4609 -0.6632 -0.9533
  171MOL   H18841328   5.087   1.373   2.223 -0.5680  0.3935 -0.0095
  171MOL   H18941329   5.071   1.296   2.465  4.6403  2.4836  0.8369
  171MOL   H19041330   4.925   1.370   2.417  0.1750 -0.6426  0.2425
  171MOL   H19141331   4.998   1.581   2.533 -2.1195 -0.3442  2.2527
  171MOL   H19241332   4.998   1.448   2.643 -1.9414 -0.2353 -0.6883
  171MOL   H19341333   5.156   1.495   2.566  0.3241 -0.8131 -3.3365
  171MOL   C19441334   5.266   1.426   2.333 -0.0754 -0.1644 -0.9046
  171MOL   C19541335   5.322   1.287   2.379  0.7780 -0.5253 -0.3865
  171MOL   C19641336   5.479   1.287   2.370  0.4385 -0.1536 -0.0449
  171MOL   C19741337   5.556   1.392   2.452  0.0843  0.2153 -0.4571
  171MOL   H19841338   5.292   1.503   2.405 -1.1144 -0.5304 -0.1154
  171MOL   H19941339   5.321   1.457   2.245 -0.0929 -0.3923 -0.9956
  171MOL   H20041340   5.297   1.275   2.485 -1.0838  0.0313 -0.7372
  171MOL   H20141341   5.516   1.293   2.268  2.7665 -1.3813  0.6827
  171MOL   H20241342   5.516   1.190   2.404 -1.1102 -0.6607  0.2220
  171MOL   H20341343   5.541   1.396   2.560 -0.5247  2.1330 -0.6045
  171MOL   H20441344   5.663   1.380   2.434  0.7952  0.7962  3.1122
  171MOL   H20541345   5.529   1.490   2.413  0.4367  0.3156 -0.4570
  171MOL   C20641346   5.264   1.164   2.306  0.1985 -0.3616  0.3238
  171MOL   C20741347   5.290   1.034   2.374  0.0815 -0.7712 -0.4814
  171MOL   C20841348   5.262   0.926   2.267 -0.0430 -0.6223  0.2077
  171MOL   C20941349   5.384   0.903   2.182  0.4263 -0.0002  0.6113
  171MOL   H21041350   5.298   1.145   2.205  2.6460 -2.1277  1.4540
  171MOL   H21141351   5.157   1.180   2.289  0.7081  0.7139 -2.0389
  171MOL   H21241352   5.398   1.022   2.389  0.1995  0.7245 -0.0265
  171MOL   H21341353   5.194   0.956   2.186  0.6351 -1.1210 -0.5490
  171MOL   H21441354   5.231   0.827   2.301  0.2326 -1.5456 -2.1409
  171MOL   H21541355   5.428   0.994   2.144 -0.7326  0.9220  1.4372
  171MOL   H21641356   5.465   0.865   2.245 -1.8088 -1.0229  2.9647
  171MOL   H21741357   5.370   0.834   2.098  1.1972  0.5784  0.0077
  171MOL   C21841358   5.229   1.002   2.507  0.4198 -0.5826 -0.7698
  171MOL   C21941359   5.320   1.027   2.629 -0.3858 -0.2550 -0.0459
  171MOL   C22041360   5.443   0.941   2.653 -0.2988  0.0699  0.8264
  171MOL   C22141361   5.536   1.000   2.763 -0.6466 -0.3438  1.0815
  171MOL   H22241362   5.194   0.900   2.524  0.2438 -0.1675  1.4717
  171MOL   H22341363   5.134   1.053   2.517  0.7317 -0.0674 -0.4290
  171MOL   H22441364   5.363   1.127   2.621  0.4213 -0.6411 -0.5928
  171MOL   H22541365   5.514   0.937   2.570 -0.9562 -1.4703  0.3316
  171MOL   H22641366   5.420   0.840   2.684 -0.0255 -0.9641 -2.1225
  171MOL   H22741367   5.500   1.000   2.866  2.0432  1.0352  2.0893
  171MOL   H22841368   5.627   0.939   2.767  0.9696  1.9532  0.2691
  171MOL   H22941369   5.579   1.096   2.737  0.4458 -0.9139  0.7318
  171MOL   C23041370   5.222   1.036   2.750 -0.2338  0.1068 -0.1163
  171MOL   C23141371   5.143   1.172   2.768 -0.2250  0.1544  0.2124
  171MOL   C23241372   5.056   1.178   2.896 -0.3663  0.1535  0.0547
  171MOL   C23341373   5.019   1.321   2.934 -0.8930  0.6036 -0.0313
  171MOL   H23441374   5.283   1.022   2.839 -1.2889 -0.7311  0.4857
  171MOL   H23541375   5.143   0.961   2.747 -1.0891  0.9282  1.2663
  171MOL   H23641376   5.207   1.260   2.778  1.3017 -0.8080 -0.7879
  171MOL   H23741377   5.092   1.115   2.978  0.5144  0.5275 -0.0404
  171MOL   H23841378   4.967   1.119   2.875  0.9936 -1.4762 -1.2497
  171MOL   H23941379   4.947   1.356   2.860 -2.1594 -0.1654  0.8268
  171MOL   H24041380   4.990   1.324   3.039  0.3303  2.3918  0.2859
  171MOL   H24141381   5.104   1.389   2.924 -1.3092  0.8469 -2.1343
  171MOL   H24241382   5.091   1.184   2.673  0.7469  1.6451 -0.1460
  172MOL     C141383   5.238   5.756   0.372  0.6236 -0.6101  0.4769
  172MOL     C241384   5.292   5.614   0.381  0.1167  0.3762 -0.5315
  172MOL     C341385   5.333   5.569   0.240  0.3498  0.5426  0.3989
  172MOL     C441386   5.407   5.437   0.225 -0.1833 -0.6191 -0.9540
  172MOL     H541387   5.157   5.761   0.300  0.5069 -2.6940  0.4326
  172MOL     H641388   5.196   5.808   0.457 -0.7200  0.0943 -0.6029
  172MOL     H741389   5.382   5.617   0.443  0.9565 -3.1360 -1.4776
  172MOL     H841390   5.394   5.649   0.199 -0.5552  1.1450  0.1963
  172MOL     H941391   5.241   5.563   0.182 -0.7587  1.5090  2.0042
  172MOL    H1041392   5.349   5.358   0.273  1.4853 -1.5604 -0.4447
  172MOL    H1141393   5.420   5.417   0.119 -0.5105  0.5990 -1.2297
  172MOL    H1241394   5.508   5.442   0.265  0.5660 -1.6808 -2.6461
  172MOL    H1341395   5.317   5.827   0.348 -0.8175  1.1878  0.9720
  172MOL    C1441396   5.189   5.521   0.448  0.0775  0.2426  0.5107
  172MOL    C1541397   5.241   5.475   0.586  0.0642 -0.6204  0.2040
  172MOL    C1641398   5.190   5.332   0.624  0.4449  0.0931  0.1183
  172MOL    C1741399   5.265   5.215   0.556  0.3443  0.8291  0.8727
  172MOL    H1841400   5.185   5.431   0.388 -0.6445  0.7518 -0.2170
  172MOL    H1941401   5.088   5.561   0.442  0.0432  0.2059  0.8545
  172MOL    H2041402   5.350   5.470   0.584  0.0073 -1.2434 -1.5153
  172MOL    H2141403   5.082   5.327   0.606  0.6328  2.1252 -1.9252
  172MOL    H2241404   5.206   5.308   0.729  3.2332  0.3033 -0.2408
  172MOL    H2341405   5.228   5.121   0.598  1.7536 -0.1406 -0.0149
  172MOL    H2441406   5.244   5.202   0.450  0.7385  1.1479  0.7528
  172MOL    H2541407   5.372   5.213   0.575  0.2627 -0.8845  1.2219
  172MOL    C2641408   5.200   5.582   0.684  0.5736  0.5277  0.9037
  172MOL    C2741409   5.279   5.578   0.822  0.1190  0.3518  0.1528
  172MOL    C2841410   5.187   5.579   0.945  0.3663 -0.6857  0.5021
  172MOL    C2941411   5.085   5.463   0.954 -0.1605 -0.2616 -0.2204
  172MOL    H3041412   5.092   5.571   0.683  0.8250 -2.1653  0.2552
  172MOL    H3141413   5.215   5.681   0.641 -2.9451  0.5020 -0.5487
  172MOL    H3241414   5.329   5.481   0.823 -1.8742 -0.6992  2.2464
  172MOL    H3341415   5.131   5.673   0.953 -0.4313 -1.1658  0.6142
  172MOL    H3441416   5.241   5.591   1.039  0.2103  0.2336  0.4811
  172MOL    H3541417   5.008   5.481   1.029 -0.2549 -0.4364 -0.2734
  172MOL    H3641418   5.025   5.461   0.863 -2.6491 -1.8678  1.4125
  172MOL    H3741419   5.143   5.373   0.977  1.1956  0.9654  1.3334
  172MOL    C3841420   5.372   5.702   0.841  0.2413 -0.3376 -0.4542
  172MOL    C3941421   5.504   5.704   0.764  0.1916  0.4440  0.4455
  172MOL    C4041422   5.606   5.595   0.811  0.3312 -0.0918 -0.2447
  172MOL    C4141423   5.635   5.594   0.964  0.0252  0.1878 -0.7199
  172MOL    H4241424   5.386   5.728   0.946 -0.8855 -2.1104  0.1563
  172MOL    H4341425   5.312   5.785   0.802  1.7443  1.0574  0.1649
  172MOL    H4441426   5.481   5.677   0.660 -2.1530  0.8305  0.8310
  172MOL    H4541427   5.703   5.615   0.766 -0.4627  1.0011 -1.5250
  172MOL    H4641428   5.557   5.503   0.781 -2.3085  1.2409 -0.1719
  172MOL    H4741429   5.678   5.682   1.012  1.5763 -0.8083 -0.2376
  172MOL    H4841430   5.547   5.569   1.023  1.6868  0.2443  1.8163
  172MOL    H4941431   5.702   5.514   0.994 -2.0122 -0.3121  2.6950
  172MOL    C5041432   5.559   5.851   0.772 -0.3094  0.0288  0.1879
  172MOL    C5141433   5.658   5.888   0.658  0.5327 -0.4991 -0.3553
  172MOL    C5241434   5.736   6.024   0.684 -0.2749  0.7282 -0.0086
  172MOL    C5341435   5.642   6.147   0.682  0.0472  0.0560 -0.1740
  172MOL    H5441436   5.617   5.854   0.864  0.0678 -0.9231 -0.0043
  172MOL    H5541437   5.480   5.926   0.775  0.6275  1.1171 -1.4635
  172MOL    H5641438   5.733   5.809   0.654  1.3696  0.2976 -0.4050
  172MOL    H5741439   5.811   6.041   0.607  0.3735  3.5883  1.1706
  172MOL    H5841440   5.793   6.035   0.776  0.8356  4.7196 -1.0975
  172MOL    H5941441   5.597   6.154   0.583 -0.3240  0.7450  0.0379
  172MOL    H6041442   5.559   6.140   0.752  1.4506  0.5300  1.5650
  172MOL    H6141443   5.696   6.238   0.705 -0.8287  0.8018 -1.0325
  172MOL    C6241444   5.593   5.884   0.513 -0.5789  0.2826  0.9704
  172MOL    C6341445   5.697   5.894   0.388  0.8062 -0.4553 -0.5530
  172MOL    C6441446   5.628   5.921   0.251  0.1268 -0.0305  0.3621
  172MOL    C6541447   5.562   6.059   0.245  0.3217  0.5030  0.1440
  172MOL    H6641448   5.511   5.956   0.511  1.3530  2.5573 -1.1214
  172MOL    H6741449   5.537   5.792   0.500  1.9617 -1.4455  1.8013
  172MOL    H6841450   5.752   5.987   0.406  0.2781 -0.4744  1.2661
  172MOL    H6941451   5.554   5.842   0.238  0.7256 -0.4178 -0.7423
  172MOL    H7041452   5.697   5.898   0.170 -1.1599 -2.2094 -0.1564
  172MOL    H7141453   5.485   6.065   0.321  0.6426 -1.1573  0.6154
  172MOL    H7241454   5.638   6.137   0.252  0.2886  0.2948  3.2856
  172MOL    H7341455   5.506   6.080   0.154 -1.7931  0.2135  1.3558
  172MOL    C7441456   5.814   5.790   0.387 -0.0129 -0.2284  0.3997
  172MOL    C7541457   5.780   5.644   0.346 -0.8218  0.1044  0.0287
  172MOL    C7641458   5.757   5.554   0.467  0.3278  0.0877 -0.2262
  172MOL    C7741459   5.884   5.488   0.527  0.0937  0.8396 -0.2324
  172MOL    H7841460   5.855   5.783   0.488 -0.9477  0.5474  0.8468
  172MOL    H7941461   5.897   5.837   0.335 -0.6194  0.0056 -0.3633
  172MOL    H8041462   5.687   5.644   0.291  0.4885  0.0279 -2.2397
  172MOL    H8141463   5.704   5.466   0.431 -0.9255  1.0117 -0.6484
  172MOL    H8241464   5.694   5.599   0.543  0.0326 -0.7798  0.0526
  172MOL    H8341465   5.940   5.421   0.462 -0.7231 -0.9247  0.8439
  172MOL    H8441466   5.954   5.568   0.550  0.7385  0.6997 -1.7164
  172MOL    H8541467   5.868   5.448   0.628  1.9723  1.1124  0.1934
  172MOL    C8641468   5.883   5.584   0.242 -0.0496 -0.5942 -1.1301
  172MOL    C8741469   5.865   5.649   0.099 -0.0403 -0.3237  0.4201
  172MOL    C8841470   5.725   5.621   0.028 -0.5533 -0.5322 -0.0323
  172MOL    C8941471   5.698   5.484   7.697  0.5224  0.4023  0.5825
  172MOL    H9041472   5.867   5.476   0.237 -0.3408 -0.5429 -1.3305
  172MOL    H9141473   5.986   5.603   0.272 -0.5850  0.1667  0.2729
  172MOL    H9241474   5.873   5.757   0.116  0.9715  0.0182 -2.0866
  172MOL    H9341475   5.710   5.687   7.649 -0.8027 -0.2496  0.2336
  172MOL    H9441476   5.643   5.648   0.095  0.6120 -0.7948  1.5385
  172MOL    H9541477   5.733   5.422   0.074  1.0891  0.8743  0.6994
  172MOL    H9641478   5.594   5.463   7.670  0.5644  1.9663 -0.8220
  172MOL    H9741479   5.757   5.449   7.613  0.5400  2.0751 -0.1159
  172MOL    C9841480   5.985   5.612   0.003  0.1320  0.0823  0.6735
  172MOL    C9941481   5.994   5.705   7.591  0.2452  0.2652  0.1462
  172MOL   C10041482   6.071   5.661   7.472  0.9683  0.0257 -0.1780
  172MOL   C10141483   6.040   5.720   7.333 -0.7832  0.1943  1.2509
  172MOL   H10241484   5.975   5.507   7.682  2.4773 -0.1871  0.7604
  172MOL   H10341485   6.080   5.597   0.053 -0.1859 -0.6708  1.0660
  172MOL   H10441486   5.897   5.718   7.544  0.6726  0.8435 -0.5819
  172MOL   H10541487   6.072   5.552   7.464  1.1573 -0.3218  3.7239
  172MOL   H10641488   6.176   5.683   7.493  0.2983  2.9105  0.3784
  172MOL   H10741489   5.934   5.705   7.311 -0.5801  0.1191  0.2986
  172MOL   H10841490   6.062   5.826   7.328  2.5184 -0.5569 -2.9503
  172MOL   H10941491   6.117   5.676   7.270 -1.9738 -0.1998  0.0461
  172MOL   C11041492   6.037   5.848   7.628  0.0515  0.3644  0.3293
  172MOL   C11141493   6.141   5.882   0.028  0.0110  0.4029 -0.3137
  172MOL   C11241494   6.126   6.026   0.083  0.1278 -0.0317 -0.4510
  172MOL   C11341495   6.162   6.143   7.691 -0.4338 -0.4912  1.2634
  172MOL   H11441496   5.942   5.895   7.656  0.5022  1.0608  0.7113
  172MOL   H11541497   6.066   5.902   7.538 -0.5221  1.9078  1.0492
  172MOL   H11641498   6.109   5.811   0.104 -0.3341  0.6711 -0.2074
  172MOL   H11741499   6.188   6.038   0.171 -1.1363 -1.6849  0.7125
  172MOL   H11841500   6.019   6.032   0.108  0.2159  0.1445 -0.1100
  172MOL   H11941501   6.104   6.143   7.598  2.0459 -0.0394 -0.3331
  172MOL   H12041502   6.169   6.236   0.042  1.2482 -0.2666  0.7152
  172MOL   H12141503   6.264   6.154   7.652  0.0248 -1.2016  2.2539
  172MOL   C12241504   6.286   5.849   7.700  0.6667  0.3472  0.4737
  172MOL   C12341505   6.376   5.831   0.121  0.0488 -0.3427  0.0431
  172MOL   C12441506   6.510   5.905   0.114 -0.9367 -0.1035 -0.0660
  172MOL   C12541507   6.495   6.052   0.095 -0.1670 -0.5026 -0.3560
  172MOL   H12641508   6.321   5.929   7.635 -1.2016  0.4033 -0.4974
  172MOL   H12741509   6.292   5.762   7.634 -0.5659  0.1432  0.6052
  172MOL   H12841510   6.321   5.870   0.207 -1.8711 -0.1665 -1.2384
  172MOL   H12941511   6.566   5.868   0.029 -0.6615 -0.1672  0.1414
  172MOL   H13041512   6.565   5.881   0.205 -0.3370 -0.5973 -0.5599
  172MOL   H13141513   6.419   6.102   0.155  1.0178 -0.1453  0.8549
  172MOL   H13241514   6.587   6.099   0.129  1.4693 -0.1523 -4.8858
  172MOL   H13341515   6.489   6.087   7.698 -0.6389  1.4355  0.3083
  172MOL   C13441516   6.399   5.678   0.145 -0.4183  0.2070 -0.3744
  172MOL   C13541517   6.447   5.641   0.295  0.1202  0.3995 -0.2279
  172MOL   C13641518   6.509   5.499   0.308  0.2384 -0.4639  0.5225
  172MOL   C13741519   6.560   5.465   0.452 -0.1153 -0.3414 -0.0172
  172MOL   H13841520   6.454   5.634   0.062 -1.5087 -0.8140 -0.5853
  172MOL   H13941521   6.305   5.624   0.133  0.9036 -2.2737  0.0638
  172MOL   H14041522   6.518   5.722   0.306  1.5663 -0.7724 -0.8160
  172MOL   H14141523   6.599   5.483   0.248  0.0132 -0.1427  0.0987
  172MOL   H14241524   6.432   5.431   0.273  0.7298 -0.3929 -0.7248
  172MOL   H14341525   6.601   5.364   0.460  1.2239  0.3496  2.2795
  172MOL   H14441526   6.641   5.534   0.475  2.1519 -2.7532 -0.4617
  172MOL   H14541527   6.484   5.477   0.528  1.4007 -0.8841  1.6084
  172MOL   C14641528   6.327   5.654   0.398 -0.5478  0.1166 -0.1751
  172MOL   C14741529   6.352   5.723   0.542  0.2004  0.2971 -0.3547
  172MOL   C14841530   6.210   5.734   0.615 -0.1088  0.2851 -0.0379
  172MOL   C14941531   6.171   5.613   0.699  1.2634  0.6280 -0.3437
  172MOL   H15041532   6.284   5.558   0.425  0.8000 -0.2652  0.6790
  172MOL   H15141533   6.260   5.728   0.355 -1.0284  0.1136  0.5665
  172MOL   H15241534   6.413   5.662   0.608  0.3108 -0.9902 -1.6186
  172MOL   H15341535   6.131   5.770   0.550  0.0784 -0.1249 -0.4934
  172MOL   H15441536   6.220   5.825   0.675 -0.4750 -0.8162  1.7121
  172MOL   H15541537   6.161   5.522   0.639 -0.1055 -1.9944  3.6270
  172MOL   H15641538   6.248   5.587   0.771 -0.3075 -0.4387  0.9703
  172MOL   H15741539   6.082   5.646   0.752  2.0516  2.1749  0.0347
  172MOL   C15841540   6.423   5.858   0.539 -0.1224  0.0395 -0.6249
  172MOL   C15941541   6.480   5.918   0.667 -1.0624 -0.7899  0.3994
  172MOL   C16041542   6.467   6.069   0.672  0.8841  0.4438  0.1494
  172MOL   C16141543   6.520   6.136   0.546 -0.1547 -0.5916  0.3290
  172MOL   H16241544   6.350   5.928   0.500 -0.5708  0.3492  0.7522
  172MOL   H16341545   6.508   5.867   0.471 -1.1108 -1.4724 -2.1105
  172MOL   H16441546   6.429   5.881   0.756 -1.2049 -0.5550  0.4130
  172MOL   H16541547   6.519   6.112   0.758 -0.7153 -0.6035  1.6844
  172MOL   H16641548   6.363   6.094   0.695  0.4659 -0.0313 -1.1844
  172MOL   H16741549   6.613   6.093   0.508 -0.7175 -1.6980  0.1897
  172MOL   H16841550   6.447   6.147   0.466 -0.8345  0.4593  1.0860
  172MOL   H16941551   6.537   6.241   0.571 -0.4397 -0.3191 -0.6267
  172MOL   C17041552   6.633   5.872   0.678 -0.6197 -0.7373 -0.1577
  172MOL   C17141553   6.690   5.868   0.830 -0.6848  0.1181  1.0875
  172MOL   C17241554   6.841   5.840   0.818  0.4187  0.4010  0.6655
  172MOL   C17341555   6.920   5.963   0.808 -0.0889  0.5872  0.5476
  172MOL   H17441556   6.696   5.924   0.606  0.3825 -0.0311  1.1968
  172MOL   H17541557   6.646   5.772   0.636  0.5855 -0.3142 -0.8175
  172MOL   H17641558   6.669   5.969   0.867  0.2313  1.7518 -2.6047
  172MOL   H17741559   6.864   5.785   0.727 -0.6489 -1.7601  1.6781
  172MOL   H17841560   6.878   5.788   0.906  0.1192 -1.2032 -0.1348
  172MOL   H17941561   7.024   5.935   0.824 -0.7364 -1.8573  0.5953
  172MOL   H18041562   6.909   6.001   0.707 -0.8037 -0.9247  0.0450
  172MOL   H18141563   6.904   6.033   0.890 -1.9715 -1.3017  1.8628
  172MOL   C18241564   6.632   5.764   0.927  0.1019  0.0639  0.3961
  172MOL   C18341565   6.643   5.785   1.081 -0.3698  0.4989 -0.3601
  172MOL   C18441566   6.789   5.813   1.132 -0.2002  0.3939  0.4378
  172MOL   C18541567   6.803   5.835   1.279 -0.3606 -0.4051 -0.0455
  172MOL   H18641568   6.674   5.666   0.902  0.2512 -0.3021  2.0090
  172MOL   H18741569   6.526   5.750   0.908  0.1679  1.0206 -0.7729
  172MOL   H18841570   6.595   5.883   1.087 -0.2192  0.7724 -2.7436
  172MOL   H18941571   6.838   5.896   1.082 -1.1621 -0.0983 -1.3509
  172MOL   H19041572   6.846   5.722   1.110  0.2687  1.0063 -0.9057
  172MOL   H19141573   6.708   5.880   1.306 -0.1781 -0.1603  0.1910
  172MOL   H19241574   6.811   5.753   1.351 -1.6964 -1.5856 -1.2104
  172MOL   H19341575   6.885   5.904   1.296 -1.0989  0.4215  0.1777
  172MOL   C19441576   6.566   5.669   1.155 -0.2506 -0.5480 -0.3847
  172MOL   C19541577   6.424   5.716   1.208 -1.1153 -0.4807 -0.5020
  172MOL   C19641578   6.425   5.804   1.331 -0.1601 -0.5335  0.3233
  172MOL   C19741579   6.457   5.735   1.457  0.2839 -0.2486 -0.3106
  172MOL   H19841580   6.625   5.623   1.235  0.7188  0.9327 -0.2309
  172MOL   H19941581   6.545   5.592   1.080  1.6036  0.1111 -1.5964
  172MOL   H20041582   6.404   5.783   1.125  1.6072 -0.8826 -1.5364
  172MOL   H20141583   6.324   5.845   1.338  0.2102  0.4578 -0.0954
  172MOL   H20241584   6.490   5.890   1.317 -1.6879  0.5504 -0.2695
  172MOL   H20341585   6.391   5.651   1.479 -0.8245 -0.2076 -3.2242
  172MOL   H20441586   6.559   5.697   1.449  1.2099  1.8473  1.1912
  172MOL   H20541587   6.445   5.799   1.544 -0.4486 -1.1121  0.2337
  172MOL   C20641588   6.320   5.602   1.219  0.6156 -0.5163  0.3381
  172MOL   C20741589   6.163   5.630   1.216  0.1858  0.0900 -0.2049
  172MOL   C20841590   6.090   5.495   1.204 -0.3540  0.3432  0.3972
  172MOL   C20941591   6.065   5.430   1.342  0.0115 -0.4579  0.0856
  172MOL   H21041592   6.333   5.530   1.300  0.4683 -2.5520 -1.4047
  172MOL   H21141593   6.343   5.545   1.129 -1.8203  0.4777 -0.9622
  172MOL   H21241594   6.136   5.665   1.315 -1.2517 -1.6272  0.0521
  172MOL   H21341595   6.141   5.422   1.141 -2.4463 -0.4580 -0.4323
  172MOL   H21441596   5.989   5.511   1.164 -0.4348  0.4750  0.6541
  172MOL   H21541597   6.162   5.421   1.392 -1.0129 -1.8149  1.8882
  172MOL   H21641598   5.996   5.492   1.398 -0.1503 -0.5912  0.0353
  172MOL   H21741599   6.039   5.325   1.326 -0.1678 -0.3749 -0.1775
  172MOL   C21841600   6.136   5.729   1.102 -0.0095  0.2709  0.0489
  172MOL   C21941601   5.990   5.774   1.101  0.8750  0.4783 -0.0354
  172MOL   C22041602   5.962   5.825   0.960  0.7995  0.1313 -0.1795
  172MOL   C22141603   6.052   5.947   0.928 -0.3337  0.1985  0.1942
  172MOL   H22241604   6.175   5.684   1.011  1.7589  1.0407  0.4153
  172MOL   H22341605   6.204   5.810   1.130 -0.5160  0.9277 -0.6072
  172MOL   H22441606   5.919   5.692   1.113  1.7994 -0.6294 -1.9928
  172MOL   H22541607   5.855   5.846   0.964  0.7720 -0.2443  1.3940
  172MOL   H22641608   5.965   5.743   0.888 -3.1840 -0.4008  0.1263
  172MOL   H22741609   6.032   5.990   0.830  1.1355 -0.5027 -0.4320
  172MOL   H22841610   6.033   6.016   1.010  0.6240 -1.6325  2.0076
  172MOL   H22941611   6.159   5.925   0.933 -0.8488 -1.8700  3.0021
  172MOL   C23041612   5.949   5.869   1.219  0.1931 -0.1074 -0.3950
  172MOL   C23141613   5.808   5.920   1.210  0.0485 -0.0358 -0.1251
  172MOL   C23241614   5.748   5.969   1.339  0.1966  0.2810  0.1695
  172MOL   C23341615   5.604   6.023   1.329 -0.1488  0.4979 -0.5114
  172MOL   H23441616   6.021   5.949   1.236  0.3968  0.2604 -2.7824
  172MOL   H23541617   5.957   5.807   1.308  0.6664  2.3090  1.2969
  172MOL   H23641618   5.794   6.004   1.141 -0.9738  0.0930  0.2312
  172MOL   H23741619   5.808   6.054   1.370 -1.1175  1.2436  0.1002
  172MOL   H23841620   5.761   5.902   1.425 -3.0834  1.3142  1.5324
  172MOL   H23941621   5.598   6.116   1.272 -1.2134 -0.0124 -1.2451
  172MOL   H24041622   5.539   5.944   1.291  0.4948  1.1017 -2.9415
  172MOL   H24141623   5.576   6.050   1.431  2.4092  0.7789  0.1556
  172MOL   H24241624   5.737   5.843   1.179 -1.6228  1.7781 -0.9718
  173MOL     C141625   7.703   1.585   4.932 -0.2039  0.1439 -0.8231
  173MOL     C241626   7.566   1.574   5.000  0.6242 -0.0591  0.2149
  173MOL     C341627   7.488   1.707   4.973 -0.9943 -0.2042  0.0539
  173MOL     C441628   7.477   1.746   4.825  0.4176  0.4784  0.0979
  173MOL     H541629   7.692   1.580   4.824 -1.0981  2.8013 -0.9043
  173MOL     H641630   0.047   1.679   4.957 -0.0805 -0.1799  0.1753
  173MOL     H741631   7.506   1.495   4.956 -0.1721 -0.7699  2.5261
  173MOL     H841632   7.535   1.788   5.029 -3.4673 -0.1503  2.1719
  173MOL     H941633   7.387   1.698   5.015 -1.3952  1.0036 -0.6122
  173MOL    H1041634   7.415   1.835   4.812 -2.8247 -1.7981 -0.6280
  173MOL    H1141635   7.569   1.790   4.785  1.1541 -1.0307  0.1023
  173MOL    H1241636   7.438   1.665   4.763  0.1609 -1.3135  2.5277
  173MOL    H1341637   0.059   1.501   4.960  0.2945  1.1590  1.2392
  173MOL    C1441638   7.589   1.540   5.148  0.4836 -0.2115 -0.5841
  173MOL    C1541639   7.464   1.502   5.239  0.1833  0.2166  0.3686
  173MOL    C1641640   7.517   1.466   5.386  0.0595  0.1317  1.3843
  173MOL    C1741641   7.553   1.588   5.470 -0.1865  0.1490  0.9712
  173MOL    H1841642   7.639   1.624   5.195  1.3869 -0.6867 -0.6735
  173MOL    H1941643   7.660   1.457   5.151 -0.2468 -0.8053  0.6399
  173MOL    H2041644   7.396   1.587   5.237 -0.2246 -0.0940  0.6971
  173MOL    H2141645   7.591   1.386   5.387  0.6974  0.6989  0.6066
  173MOL    H2241646   7.430   1.430   5.441 -0.4747  0.2231  0.6251
  173MOL    H2341647   7.571   1.558   5.573  3.5578 -0.3686  0.2251
  173MOL    H2441648   7.644   1.635   5.432  1.1019 -1.4929  1.9753
  173MOL    H2541649   7.479   1.668   5.464  1.1995  1.5055  1.5146
  173MOL    C2641650   7.381   1.384   5.179  0.4224 -0.6499  0.4533
  173MOL    C2741651   7.227   1.399   5.200 -0.0707  0.2404 -0.8814
  173MOL    C2841652   7.164   1.261   5.208 -0.4886  0.2704  0.1555
  173MOL    C2941653   7.182   1.189   5.347 -0.5433 -0.2703  0.6032
  173MOL    H3041654   7.424   1.301   5.235  1.1397  0.0550  0.9410
  173MOL    H3141655   7.392   1.363   5.073 -1.5328 -1.4939  0.3807
  173MOL    H3241656   7.213   1.443   5.299 -0.2122 -0.0359 -0.7772
  173MOL    H3341657   7.202   1.187   5.137 -2.1343  0.1360 -0.6101
  173MOL    H3441658   7.057   1.268   5.186 -0.3221 -0.0610 -0.7931
  173MOL    H3541659   7.282   1.149   5.365 -1.2468 -2.5403 -0.4308
  173MOL    H3641660   7.154   1.261   5.424 -1.5043  2.6040 -2.3084
  173MOL    H3741661   7.109   1.109   5.349 -0.5509 -0.2873 -0.1827
  173MOL    C3841662   7.160   1.491   5.099  0.9047  0.2468 -0.6004
  173MOL    C3941663   7.012   1.542   5.128 -0.6820 -0.1493  0.6411
  173MOL    C4041664   6.918   1.533   5.014  0.4616  0.4515  0.6296
  173MOL    C4141665   6.896   1.398   4.947 -0.5794 -0.5342 -0.4647
  173MOL    H4241666   7.165   1.429   5.010 -1.1795 -0.7041 -0.0984
  173MOL    H4341667   7.201   1.589   5.078  1.0173  0.2742 -0.2665
  173MOL    H4441668   6.979   1.470   5.202  0.6594 -1.0454  0.3958
  173MOL    H4541669   6.948   1.596   4.930 -1.0081  0.7501  0.3256
  173MOL    H4641670   6.817   1.562   5.040  1.2384  3.3014  0.6125
  173MOL    H4741671   6.804   1.408   4.889 -0.9757 -0.9566  0.0813
  173MOL    H4841672   6.965   1.365   4.870  1.1422  0.6277  0.5546
  173MOL    H4941673   6.886   1.313   5.015  0.1963  0.8993  1.5121
  173MOL    C5041674   7.006   1.682   5.185  0.4445 -0.2967  0.1612
  173MOL    C5141675   6.876   1.696   5.267  0.1427  0.4119  0.2705
  173MOL    C5241676   6.780   1.794   5.191 -0.1502  0.7682  0.1907
  173MOL    C5341677   6.631   1.774   5.224 -0.4353 -0.1485 -0.0369
  173MOL    H5441678   7.012   1.749   5.100  2.3588 -0.1166  0.4281
  173MOL    H5541679   7.093   1.703   5.247  0.9501  0.9709 -0.9393
  173MOL    H5641680   6.825   1.601   5.281  0.3602  0.2045 -0.3594
  173MOL    H5741681   6.803   1.783   5.085  0.8449  1.4724  0.3227
  173MOL    H5841682   6.809   1.898   5.207 -0.4773  0.9257 -0.2494
  173MOL    H5941683   6.561   1.838   5.170  0.3734 -0.1901 -1.1299
  173MOL    H6041684   6.606   1.670   5.200  0.7938  0.1028 -2.5536
  173MOL    H6141685   6.624   1.791   5.332  0.0724  0.3809 -0.0860
  173MOL    C6241686   6.892   1.731   5.417  0.5802  0.1043 -0.1709
  173MOL    C6341687   6.971   1.630   5.508 -0.2282 -0.5504 -0.1905
  173MOL    C6441688   6.910   1.492   5.520 -0.5467  0.4692  0.1793
  173MOL    C6541689   6.762   1.481   5.553  0.3207 -0.2826 -0.1040
  173MOL    H6641690   6.795   1.746   5.465 -0.1089 -1.1649 -1.1572
  173MOL    H6741691   6.943   1.825   5.435  0.1076  0.3202  0.0616
  173MOL    H6841692   7.075   1.622   5.479 -0.6527  1.6189 -2.4967
  173MOL    H6941693   6.966   1.438   5.597 -0.3246  0.4854  0.0329
  173MOL    H7041694   6.938   1.438   5.430  0.5203 -0.9809  1.3497
  173MOL    H7141695   6.716   1.508   5.458  0.3317 -0.9601 -0.3086
  173MOL    H7241696   6.734   1.376   5.556 -0.4941 -0.0587  0.0719
  173MOL    H7341697   6.716   1.545   5.628 -1.1064 -2.0492  0.5704
  173MOL    C7441698   6.975   1.687   5.655  0.3048 -0.0927  0.1149
  173MOL    C7541699   7.052   1.816   5.686 -0.0732  0.1126  0.3476
  173MOL    C7641700   7.197   1.809   5.641  0.4122  0.0434  0.4959
  173MOL    C7741701   7.298   1.919   5.693  0.0029  0.6984  0.7593
  173MOL    H7841702   7.026   1.614   5.719  0.1001 -1.2589 -1.0276
  173MOL    H7941703   6.877   1.687   5.703  0.3826 -0.4898  0.2756
  173MOL    H8041704   7.003   1.895   5.628  0.9888  1.2089  0.9117
  173MOL    H8141705   7.196   1.816   5.533  0.9225  1.4192  0.5710
  173MOL    H8241706   7.240   1.714   5.672  1.1057 -0.0848 -0.8428
  173MOL    H8341707   7.380   1.924   5.622 -0.4518 -2.0468  0.0229
  173MOL    H8441708   7.260   2.022   5.697 -0.8426  0.4078  0.2596
  173MOL    H8541709   7.336   1.903   5.794 -0.0384 -2.0394  0.3607
  173MOL    C8641710   7.029   1.859   5.834 -0.3957 -0.9636  0.1285
  173MOL    C8741711   6.890   1.887   5.887  0.0627  0.2150 -0.5885
  173MOL    C8841712   6.853   2.038   5.875  0.0141 -0.0658 -0.2443
  173MOL    C8941713   6.706   2.074   5.887  0.8617 -0.9165 -0.0983
  173MOL    H9041714   7.096   1.940   5.865 -1.4671 -0.1571  0.3425
  173MOL    H9141715   7.067   1.778   5.897 -2.3433  0.2142  2.9167
  173MOL    H9241716   6.808   1.831   5.841 -1.2671  0.1289  1.7517
  173MOL    H9341717   6.879   2.070   5.774 -1.2515 -0.5238 -0.7182
  173MOL    H9441718   6.915   2.097   5.944 -1.4341  4.4013 -2.5614
  173MOL    H9541719   6.655   2.022   5.805 -1.0454 -0.9555  1.0821
  173MOL    H9641720   6.667   2.040   5.983 -2.6293  0.0434 -1.1015
  173MOL    H9741721   6.702   2.182   5.881  1.1768 -0.9631 -1.2899
  173MOL    C9841722   6.882   1.862   6.046  0.3138  0.3532  0.1803
  173MOL    C9941723   6.800   1.733   6.075 -0.2331 -0.1335 -0.1304
  173MOL   C10041724   6.777   1.707   6.225 -0.5276  0.3471  0.3091
  173MOL   C10141725   6.668   1.808   6.278  0.8481  0.3880 -0.0942
  173MOL   H10241726   6.839   1.948   6.098  0.1872 -0.9948  2.3554
  173MOL   H10341727   6.979   1.832   6.085 -0.4420  1.0613  2.7238
  173MOL   H10441728   6.706   1.756   6.026 -0.4765  1.6663  1.1419
  173MOL   H10541729   6.870   1.719   6.281  0.8539 -0.7272 -1.7069
  173MOL   H10641730   6.759   1.603   6.252  0.4303 -0.0391 -0.5267
  173MOL   H10741731   6.570   1.775   6.244  0.5908 -1.3164  2.1622
  173MOL   H10841732   6.678   1.806   6.387 -1.0082 -0.8686  0.0737
  173MOL   H10941733   6.681   1.910   6.243 -1.4167  1.0485  0.9000
  173MOL   C11041734   6.869   1.609   6.015  0.6166  0.2095 -0.5834
  173MOL   C11141735   6.785   1.486   6.000  0.1594  0.5392  0.1440
  173MOL   C11241736   6.868   1.362   5.965  0.0669 -0.3021 -0.0447
  173MOL   C11341737   6.814   1.227   6.004  0.5512  0.0964 -0.6296
  173MOL   H11441738   6.958   1.580   6.070  0.5530  0.3279 -0.4180
  173MOL   H11541739   6.918   1.629   5.920 -0.4683  1.7488 -0.8443
  173MOL   H11641740   6.740   1.467   6.098 -1.1017  1.3026 -0.2634
  173MOL   H11741741   6.971   1.358   6.001 -0.3419 -1.3641  1.0308
  173MOL   H11841742   6.876   1.351   5.856 -1.6053 -1.1464 -0.0964
  173MOL   H11941743   6.780   1.225   6.107 -1.6660  0.0499 -1.3243
  173MOL   H12041744   6.725   1.203   5.945  0.6745 -1.9392 -0.0234
  173MOL   H12141745   6.886   1.146   5.994 -3.2377 -3.6366  0.9142
  173MOL   C12241746   6.658   1.506   5.911 -0.6303 -0.3127 -0.2173
  173MOL   C12341747   6.522   1.552   5.979 -0.1770 -0.3273 -0.3542
  173MOL   C12441748   6.461   1.457   6.093  0.5670 -0.0394  0.0887
  173MOL   C12541749   6.417   1.320   6.033  0.2836  0.1187  0.1720
  173MOL   H12641750   6.641   1.419   5.847  2.3223 -0.8864 -0.2943
  173MOL   H12741751   6.674   1.590   5.843 -1.2811  0.6331  0.7897
  173MOL   H12841752   6.539   1.647   6.030 -1.9684 -1.1306  1.8237
  173MOL   H12941753   6.387   1.515   6.147 -0.7917 -0.2735 -1.4890
  173MOL   H13041754   6.546   1.432   6.157  0.3457 -0.5317  0.1921
  173MOL   H13141755   6.343   1.325   5.953  0.7922  0.5021 -0.2775
  173MOL   H13241756   6.493   1.256   5.987 -1.0164 -0.7318 -0.8207
  173MOL   H13341757   6.378   1.257   6.113  1.1469  0.8113  1.1509
  173MOL   C13441758   6.405   1.570   5.873 -0.3151 -0.7809 -0.5402
  173MOL   C13541759   6.417   1.696   5.781 -0.0885  0.1517  0.2799
  173MOL   C13641760   6.412   1.829   5.868  0.5568  0.3824 -0.0699
  173MOL   C13741761   6.369   1.960   5.801 -0.4853 -0.3564  0.2189
  173MOL   H13841762   6.309   1.582   5.923  0.8522 -2.5939  2.2577
  173MOL   H13941763   6.384   1.482   5.813 -0.7094 -0.6259 -0.6312
  173MOL   H14041764   6.515   1.697   5.732 -0.2578  1.1235 -0.0516
  173MOL   H14141765   6.516   1.855   5.887  0.1507  3.8237 -2.2051
  173MOL   H14241766   6.362   1.822   5.965 -0.0335  0.2538 -0.3839
  173MOL   H14341767   6.268   1.974   5.764 -0.7492  0.2643  1.1673
  173MOL   H14441768   6.382   2.030   5.884 -0.1724  2.3606 -2.0595
  173MOL   H14541769   6.432   1.993   5.719 -1.3258 -0.5696 -0.5193
  173MOL   C14641770   6.303   1.699   5.672  0.5006  0.3258  0.4561
  173MOL   C14741771   6.307   1.583   5.560 -0.0638  0.2840 -0.5641
  173MOL   C14841772   6.435   1.605   5.473  0.2792  0.2620 -0.0586
  173MOL   C14941773   6.462   1.489   5.378  0.1157 -0.5104  0.3068
  173MOL   H15041774   6.316   1.789   5.612 -0.6312  1.7269  2.2975
  173MOL   H15141775   6.206   1.698   5.720  0.9319 -2.0009  1.3460
  173MOL   H15241776   6.302   1.480   5.593 -0.1617  1.0324  1.8515
  173MOL   H15341777   6.527   1.606   5.531  0.9585  0.7970 -1.1319
  173MOL   H15441778   6.421   1.698   5.417 -0.7691 -0.7448 -1.5185
  173MOL   H15541779   6.485   1.398   5.434  1.9612 -0.2774 -0.0552
  173MOL   H15641780   6.370   1.467   5.323 -0.4302  1.2254  0.4919
  173MOL   H15741781   6.552   1.506   5.319  0.8041  3.6589  2.3277
  173MOL   C15841782   6.178   1.595   5.473  0.7984  0.2436 -0.1464
  173MOL   C15941783   6.035   1.535   5.516  0.3717 -0.2277  0.8423
  173MOL   C16041784   6.038   1.389   5.559  0.2981  0.0730 -0.9543
  173MOL   C16141785   6.061   1.294   5.436  0.3304 -0.0472 -0.2252
  173MOL   H16241786   6.201   1.559   5.373  0.8209 -1.7513  0.5473
  173MOL   H16341787   6.158   1.702   5.461 -1.6676 -0.0016  1.4233
  173MOL   H16441788   6.007   1.580   5.611 -0.7447 -0.7805  0.7700
  173MOL   H16541789   5.948   1.354   5.609 -0.8951  2.2543 -1.5094
  173MOL   H16641790   6.113   1.371   5.636 -1.7907 -1.2546  0.8125
  173MOL   H16741791   6.155   1.318   5.385  0.2150  2.8109  0.8251
  173MOL   H16841792   6.077   1.194   5.476  0.3216  0.0575  0.0417
  173MOL   H16941793   5.979   1.285   5.365 -0.2601 -2.0097  0.6773
  173MOL   C17041794   5.926   1.564   5.419  0.1956  0.4171  0.7782
  173MOL   C17141795   5.781   1.517   5.453  0.1527  0.1807 -0.1535
  173MOL   C17241796   5.686   1.556   5.335 -0.2475  0.0471  0.8112
  173MOL   C17341797   5.711   1.486   5.204 -0.1528 -0.0534  0.5151
  173MOL   H17441798   5.950   1.509   5.328  0.4499  1.8608 -0.0440
  173MOL   H17541799   5.923   1.670   5.397  0.1208  0.2345 -0.1183
  173MOL   H17641800   5.782   1.410   5.474 -1.7683  0.2736  0.4345
  173MOL   H17741801   5.691   1.663   5.312  0.1768 -0.0343  0.5127
  173MOL   H17841802   5.584   1.544   5.371 -0.3233  2.5587  1.5580
  173MOL   H17941803   5.641   1.516   5.127  0.1940 -0.1268  0.1683
  173MOL   H18041804   5.804   1.529   5.165  0.6625 -0.5275  1.8863
  173MOL   H18141805   5.717   1.377   5.207 -0.6008 -0.0800  0.4024
  173MOL   C18241806   5.717   1.590   5.577 -0.7505 -0.1906  0.3617
  173MOL   C18341807   5.596   1.513   5.643  0.1771  0.4534 -0.4164
  173MOL   C18441808   5.516   1.599   5.732 -0.0081  0.9559 -0.7344
  173MOL   C18541809   5.435   1.703   5.657 -0.2407  0.3384 -0.3008
  173MOL   H18641810   5.697   1.695   5.557  1.1604 -0.4700 -3.5091
  173MOL   H18741811   5.790   1.601   5.657 -0.7434  0.2265  0.2963
  173MOL   H18841812   5.534   1.490   5.556  0.3939 -0.0537 -0.4397
  173MOL   H18941813   5.578   1.649   5.807  0.7424  0.6036 -1.1199
  173MOL   H19041814   5.441   1.547   5.792  1.6195  0.2757  0.7644
  173MOL   H19141815   5.501   1.764   5.595  1.1660  0.2707  1.0955
  173MOL   H19241816   5.362   1.666   5.586  0.9069  2.1627 -2.5206
  173MOL   H19341817   5.389   1.766   5.733  1.2440  1.6814 -0.4784
  173MOL   C19441818   5.644   1.387   5.720  0.5375  0.1906  0.5514
  173MOL   C19541819   5.537   1.294   5.784 -0.2790  0.6545 -0.0733
  173MOL   C19641820   5.595   1.177   5.862  0.9109  0.2239 -0.2872
  173MOL   C19741821   5.498   1.091   5.945  0.3281  0.9951  0.0957
  173MOL   H19841822   5.713   1.417   5.799 -0.3750  0.5382  1.2227
  173MOL   H19941823   5.697   1.316   5.657 -0.0116  0.9005 -0.7460
  173MOL   H20041824   5.489   1.349   5.864 -1.6658 -1.1188  0.3324
  173MOL   H20141825   5.659   1.222   5.938 -3.1766  0.6946  3.0293
  173MOL   H20241826   5.643   1.112   5.789 -1.6955 -0.0416 -1.8152
  173MOL   H20341827   5.434   1.144   6.016  0.1839  1.4572 -0.3758
  173MOL   H20441828   5.434   1.032   5.879  0.3985 -1.4817  2.1873
  173MOL   H20541829   5.561   1.024   6.003 -0.0047  0.3693 -0.2574
  173MOL   C20641830   5.424   1.252   5.678 -0.4301 -0.1596  0.6800
  173MOL   C20741831   5.299   1.340   5.679  0.2271 -0.7077  0.5397
  173MOL   C20841832   5.228   1.346   5.817  0.3769 -0.3242  0.3111
  173MOL   C20941833   5.137   1.481   5.825 -1.0947 -0.2630 -0.0511
  173MOL   H21041834   5.397   1.149   5.696  0.3607 -0.6041 -0.5632
  173MOL   H21141835   5.468   1.248   5.578 -0.5097  1.1918  0.5709
  173MOL   H21241836   5.327   1.440   5.647  1.6009 -1.1608  0.2990
  173MOL   H21341837   5.294   1.331   5.903 -1.2380 -1.8463  1.3324
  173MOL   H21441838   5.159   1.262   5.823  0.9448 -0.9610 -1.6327
  173MOL   H21541839   5.204   1.566   5.831  1.5880 -2.2529 -0.8768
  173MOL   H21641840   5.064   1.496   5.745  1.2776 -0.3530 -2.2785
  173MOL   H21741841   5.083   1.462   5.918  1.7556  0.6154  1.8350
  173MOL   C21841842   5.192   1.286   5.574 -0.0785  0.0360 -0.3287
  173MOL   C21941843   5.232   1.294   5.426  0.3882 -0.1582  0.0139
  173MOL   C22041844   5.231   1.432   5.364 -0.2179  0.5802 -0.1712
  173MOL   C22141845   5.089   1.478   5.318 -0.3375  0.6084 -0.8211
  173MOL   H22241846   5.108   1.355   5.583 -0.5112 -0.3747 -1.1435
  173MOL   H22341847   5.157   1.186   5.602  1.9703 -0.1191  1.8168
  173MOL   H22441848   5.339   1.273   5.422  0.8111  1.4146  2.0958
  173MOL   H22541849   5.303   1.434   5.282  0.3132 -1.4448  0.2075
  173MOL   H22641850   5.280   1.493   5.440 -2.8479  1.7432  0.6554
  173MOL   H22741851   5.021   1.469   5.402 -0.3323 -0.3402 -0.9209
  173MOL   H22841852   5.090   1.584   5.291 -1.0800  1.4455  2.3009
  173MOL   H22941853   5.058   1.418   5.232  1.8618 -0.9265 -0.5717
  173MOL   C23041854   5.153   1.186   5.337 -0.7740 -0.0260  0.0112
  173MOL   C23141855   5.164   1.039   5.375  0.5227  0.1726 -0.9074
  173MOL   C23241856   5.138   0.948   5.251 -0.0144 -0.5854 -0.4991
  173MOL   C23341857   4.985   0.957   5.216 -0.1349 -0.0737 -0.5690
  173MOL   H23441858   5.171   1.191   5.230 -0.1321 -2.1911 -0.0138
  173MOL   H23541859   5.051   1.222   5.355 -0.5208  0.0694  1.2810
  173MOL   H23641860   5.268   1.019   5.400 -0.8090 -1.7344  3.5593
  173MOL   H23741861   5.181   0.852   5.281 -0.1566 -0.3074  0.6200
  173MOL   H23841862   5.208   0.982   5.175  2.2354 -0.1762  1.6785
  173MOL   H23941863   4.960   1.054   5.173 -2.1510 -0.2836  0.0387
  173MOL   H24041864   4.954   0.870   5.158 -0.0926 -0.5190  0.0704
  173MOL   H24141865   4.920   0.963   5.303  3.4720 -1.2481  2.3122
  173MOL   H24241866   5.100   1.011   5.458  0.0568  2.2132 -0.5433
  174MOL     C141867   1.369   7.431   5.234 -0.3138  0.4560  0.0507
  174MOL     C241868   1.494   7.469   5.153  0.3396 -0.5020 -0.2916
  174MOL     C341869   1.590   7.349   5.151  0.3329  0.1524  0.6675
  174MOL     C441870   1.702   7.343   5.038 -1.1708 -0.4683 -0.6555
  174MOL     H541871   1.322   7.349   5.180 -2.2068  0.8500  1.0774
  174MOL     H641872   1.395   7.384   5.329 -2.0578 -1.4682 -0.3920
  174MOL     H741873   1.471   7.499   5.051 -0.9047 -0.8227 -0.1125
  174MOL     H841874   1.518   7.268   5.140  1.1771 -0.2555 -2.4630
  174MOL     H941875   1.640   7.355   5.247  1.5678 -0.8484  0.1018
  174MOL    H1041876   1.645   7.328   4.946 -2.0846 -2.0243  0.1460
  174MOL    H1141877   1.774   7.424   5.037  0.5839 -1.9915 -1.4001
  174MOL    H1241878   1.764   7.255   5.058 -0.7323 -0.6646 -2.7605
  174MOL    H1341879   1.290   7.503   5.253  0.2167  0.7801  1.0380
  174MOL    C1441880   1.558   7.598   5.207 -0.2022  0.1255  0.8648
  174MOL    C1541881   1.473   0.019   5.196  0.7381 -0.1755  0.1257
  174MOL    C1641882   1.430   0.057   5.061 -0.0520  0.0626  0.6347
  174MOL    C1741883   1.542   0.100   4.959  0.6249  0.2083 -0.1567
  174MOL    H1841884   1.651   7.617   5.153  0.3490 -2.1296  0.9557
  174MOL    H1941885   1.598   7.578   5.306 -0.2043 -1.8550  0.4916
  174MOL    H2041886   1.382   0.007   5.256 -0.6077 -0.2878 -1.9052
  174MOL    H2141887   1.361   0.141   5.071  0.7685  0.7956  0.2800
  174MOL    H2241888   1.374   7.684   5.011 -0.7239  0.7396  0.2939
  174MOL    H2341889   1.498   0.140   4.868 -1.3106  0.3200  0.8203
  174MOL    H2441890   1.608   0.168   5.014 -0.3704 -0.5254  1.9952
  174MOL    H2541891   1.606   0.019   4.924  0.2406 -0.1021 -0.1408
  174MOL    C2641892   1.544   0.139   5.270  0.1150  0.1362 -0.5213
  174MOL    C2741893   1.536   0.132   5.422 -0.6746 -0.0582 -0.0117
  174MOL    C2841894   1.398   0.166   5.481  0.7533 -0.0455  0.3222
  174MOL    C2941895   1.357   0.311   5.469  0.3190  0.6364 -0.0910
  174MOL    H3041896   1.506   0.236   5.238  0.3989  0.1788 -0.7297
  174MOL    H3141897   1.643   0.149   5.227 -0.3374  0.5134 -1.5073
  174MOL    H3241898   1.557   0.029   5.449 -1.2191 -0.5854 -1.5603
  174MOL    H3341899   1.412   0.153   5.589  0.0542  2.7504  0.7931
  174MOL    H3441900   1.326   0.094   5.443  1.4297 -0.3782 -0.3398
  174MOL    H3541901   1.352   0.346   5.366  0.5092 -0.6198 -0.5344
  174MOL    H3641902   1.262   0.324   5.523  0.3593  1.4195 -0.2094
  174MOL    H3741903   1.422   0.370   5.535  0.9276 -1.3360  1.1164
  174MOL    C3841904   1.642   0.225   5.498 -0.0680  0.2200 -0.0671
  174MOL    C3941905   1.793   0.193   5.463 -0.3327 -0.0777  0.3578
  174MOL    C4041906   1.866   0.090   5.561 -0.1484 -0.5713 -0.2144
  174MOL    C4141907   1.824   7.649   5.540  0.0521 -0.4724  0.0281
  174MOL    H4241908   1.631   0.229   5.606 -0.4653  0.0242 -0.0989
  174MOL    H4341909   1.622   0.323   5.455 -1.6715 -0.6216 -1.3199
  174MOL    H4441910   1.812   0.147   5.366  2.9577  1.4072  0.1994
  174MOL    H4541911   1.838   0.105   5.666  2.3550  2.0347  0.1552
  174MOL    H4641912   1.975   0.095   5.555 -0.0545  1.4981  2.3264
  174MOL    H4741913   1.893   7.577   5.582  0.7570  1.2647  1.9820
  174MOL    H4841914   1.725   7.628   5.583  0.2592 -1.6160 -0.0519
  174MOL    H4941915   1.804   7.623   5.436 -1.0745 -0.5876  0.2641
  174MOL    C5041916   1.879   0.321   5.445  0.5767 -0.4294  0.8799
  174MOL    C5141917   2.009   0.314   5.361 -0.4076  0.7727  0.0441
  174MOL    C5241918   2.091   0.439   5.369  0.3055 -0.6006  0.1719
  174MOL    C5341919   2.152   0.468   5.508  0.2056 -0.2805  0.3800
  174MOL    H5441920   1.901   0.360   5.544  0.2763  1.4145  0.2529
  174MOL    H5541921   1.822   0.397   5.391  1.0742 -0.8879 -0.3190
  174MOL    H5641922   2.078   0.238   5.398  0.4259  1.6817  0.3451
  174MOL    H5741923   2.021   0.513   5.331  0.8816  0.5698  1.3737
  174MOL    H5841924   2.170   0.434   5.293  1.1738 -2.3543  1.1484
  174MOL    H5941925   2.080   0.500   5.583  0.1818 -0.8035  0.5756
  174MOL    H6041926   2.200   0.388   5.563  0.9214  1.1496  1.8937
  174MOL    H6141927   2.220   0.553   5.515 -1.7345  1.3546 -0.1221
  174MOL    C6241928   1.977   0.278   5.212  0.0265 -0.4705 -0.0764
  174MOL    C6341929   2.079   0.196   5.129 -0.5953 -0.0842 -0.3225
  174MOL    C6441930   2.058   0.222   4.976 -0.0872 -0.0549  0.1459
  174MOL    C6541931   1.920   0.239   4.922  0.5951 -0.2311 -0.3000
  174MOL    H6641932   1.976   0.378   5.167  2.9715 -0.4496 -0.1817
  174MOL    H6741933   1.875   0.241   5.198  0.0418 -0.4420 -0.2684
  174MOL    H6841934   2.175   0.245   5.148 -1.1039  1.0112 -0.5605
  174MOL    H6941935   2.104   0.137   4.926  0.6466  0.3963  0.0533
  174MOL    H7041936   2.116   0.310   4.950 -2.1012  1.1064 -0.5014
  174MOL    H7141937   1.845   0.163   4.939  0.3636 -0.1892 -1.1195
  174MOL    H7241938   1.879   0.329   4.969 -0.8685 -1.5395  0.9853
  174MOL    H7341939   1.935   0.255   4.815  0.1730 -0.5489 -0.4095
  174MOL    C7441940   2.090   0.045   5.165 -0.3188  0.0742  0.8440
  174MOL    C7541941   2.206   7.672   5.092  0.7837  1.3002 -0.2810
  174MOL    C7641942   2.160   7.530   5.045  0.4988  0.6573  1.0253
  174MOL    C7741943   2.118   7.431   5.152  0.2790 -0.3926  0.0654
  174MOL    H7841944   1.998   0.001   5.128  0.1640 -0.9247  0.8009
  174MOL    H7941945   2.087   0.020   5.271  0.9558 -2.0286  0.4173
  174MOL    H8041946   2.241   0.023   5.005  0.5726 -0.2585 -1.4173
  174MOL    H8141947   2.232   7.477   4.983 -1.1153 -0.2617 -0.1045
  174MOL    H8241948   2.070   7.560   4.992 -0.2596 -0.2165  1.8097
  174MOL    H8341949   2.089   7.478   5.245 -1.6411 -1.3693 -0.0276
  174MOL    H8441950   2.032   7.375   5.115  0.7305 -0.6645 -0.5952
  174MOL    H8541951   2.197   7.363   5.185  0.9145 -1.0802 -2.6926
  174MOL    C8641952   2.336   7.652   5.184 -0.5723 -0.3708  0.4013
  174MOL    C8741953   2.396   0.074   5.257 -0.3025 -1.1439  0.0340
  174MOL    C8841954   2.486   0.164   5.163  0.2585 -0.0256  0.5723
  174MOL    C8941955   2.609   0.095   5.106 -0.0102  0.0988 -0.6540
  174MOL    H9041956   2.416   7.591   5.141  1.1669  1.0990  1.4670
  174MOL    H9141957   2.321   7.583   5.267  0.6854 -1.7477 -0.4821
  174MOL    H9241958   2.310   0.137   5.279  0.1182  0.0719 -1.7174
  174MOL    H9341959   2.521   0.249   5.220  1.4661 -1.5017  2.0885
  174MOL    H9441960   2.420   0.199   5.083  0.5773  0.2451  0.4299
  174MOL    H9541961   2.650   0.165   5.033 -0.4686  0.4054 -0.6191
  174MOL    H9641962   2.679   0.076   5.188  0.2319  1.6942 -0.4665
  174MOL    H9741963   2.577   0.003   5.057  0.5150 -0.6552  0.3909
  174MOL    C9841964   2.476   0.035   5.391 -0.5846 -0.4232 -0.0650
  174MOL    C9941965   2.399   0.005   5.518  0.1046 -0.8847  0.4512
  174MOL   C10041966   2.342   0.124   5.600 -0.1636  0.1808  0.7032
  174MOL   C10141967   2.446   0.210   5.664  0.5100  0.5188 -0.7840
  174MOL   H10241968   2.547   0.116   5.408 -1.1491  0.2136 -0.7207
  174MOL   H10341969   2.547   7.660   5.376 -0.8881 -0.9235  1.1783
  174MOL   H10441970   2.303   7.662   5.496  0.9031 -1.5821 -1.6092
  174MOL   H10541971   2.272   0.097   5.680 -1.3450  2.6196  0.5358
  174MOL   H10641972   2.274   0.184   5.540  0.3629  0.9468  0.8718
  174MOL   H10741973   2.510   0.156   5.734  0.0918 -0.5390 -1.2027
  174MOL   H10841974   2.503   0.248   5.579  1.1180 -0.4145 -0.8093
  174MOL   H10941975   2.396   0.289   5.718  1.5398  1.8078 -1.6959
  174MOL   C11041976   2.473   7.610   5.601  0.4319  0.3755 -0.1850
  174MOL   C11141977   2.449   7.460   5.581  0.2296  0.9806  0.2723
  174MOL   C11241978   2.298   7.415   5.596  0.2045  0.0402  1.3861
  174MOL   C11341979   2.270   7.296   5.510 -0.8622  0.3744  0.4297
  174MOL   H11441980   2.442   7.637   5.702 -1.1592  1.5595 -0.9645
  174MOL   H11541981   2.579   7.634   5.597  0.5871 -0.4326 -0.9616
  174MOL   H11641982   2.490   7.439   5.483  1.7098 -2.5978  1.5846
  174MOL   H11741983   2.229   7.492   5.561  0.0131 -0.8684 -0.2769
  174MOL   H11841984   2.268   7.412   5.701  0.1214  1.1299  1.4069
  174MOL   H11941985   2.307   7.320   5.411  2.1573  1.1973  1.7089
  174MOL   H12041986   2.317   7.208   5.555 -0.6185  1.7690  2.9587
  174MOL   H12141987   2.166   7.263   5.518 -0.0505 -2.1167  1.4225
  174MOL   C12241988   2.538   7.375   5.679  0.2710 -0.2470  0.8237
  174MOL   C12341989   2.681   7.335   5.630 -0.1678 -0.1865  0.3763
  174MOL   C12441990   2.671   7.212   5.536  0.8234  0.8528  0.9217
  174MOL   C12541991   2.692   7.246   5.389  0.1534 -0.7343  0.5318
  174MOL   H12641992   2.489   7.283   5.711  1.9511 -0.6800  2.2591
  174MOL   H12741993   2.544   7.431   5.773 -1.0933 -2.1517  2.0889
  174MOL   H12841994   2.712   7.412   5.559  1.0883  0.5941  1.7636
  174MOL   H12941995   2.575   7.160   5.544  0.0686  1.7260 -2.0389
  174MOL   H13041996   2.743   7.134   5.562 -0.2440 -0.0846  1.1501
  174MOL   H13141997   2.623   7.324   5.356 -0.8302 -2.0703 -0.5975
  174MOL   H13241998   2.789   7.297   5.383 -0.5496  0.4031 -1.5274
  174MOL   H13341999   2.684   7.161   5.322 -0.2959  0.6902 -1.2846
  174MOL   C13442000   2.784   7.318   5.749 -0.0552 -0.4971 -0.7131
  174MOL   C13542001   2.932   7.345   5.730 -0.1284 -0.3552 -0.8352
  174MOL   C13642002   3.023   7.298   5.852  0.5013  0.9156  0.4384
  174MOL   C13742003   2.993   7.349   5.983 -0.8672  0.7458  0.1509
  174MOL   H13842004   2.766   7.227   5.806  0.6272 -1.1858 -1.5650
  174MOL   H13942005   2.750   7.391   5.822 -0.4125 -1.0199 -0.3540
  174MOL   H14042006   2.960   7.287   5.643  2.0071 -0.8256  0.1302
  174MOL   H14142007   3.126   7.326   5.832  0.2673  1.2316 -0.3347
  174MOL   H14242008   3.014   7.190   5.865 -0.3505  0.8869 -0.3345
  174MOL   H14342009   2.991   7.458   5.978 -0.2114  0.7176 -0.8331
  174MOL   H14442010   2.894   7.320   6.019 -0.5065  3.1027  3.2518
  174MOL   H14542011   3.060   7.303   6.055 -0.7700 -1.0621 -1.0601
  174MOL   C14642012   2.948   7.497   5.721  0.2799  0.8652 -0.0543
  174MOL   C14742013   3.075   7.565   5.678  0.1179  0.1845 -0.2091
  174MOL   C14842014   3.060   0.016   5.698 -0.0069 -0.1412 -0.6873
  174MOL   C14942015   3.087   0.053   5.846  0.0783  0.1922  0.0276
  174MOL   H15042016   2.910   7.546   5.811  1.4033 -1.6699  1.8745
  174MOL   H15142017   2.872   7.534   5.653 -1.5554 -0.4556  1.2209
  174MOL   H15242018   3.166   7.523   5.720  1.8566  1.6391 -2.4286
  174MOL   H15342019   2.954   0.027   5.678 -0.2532 -0.6981  0.2649
  174MOL   H15442020   3.119   0.074   5.627 -0.7117  2.4932  0.8236
  174MOL   H15542021   3.038   7.690   5.915  0.3639 -0.8612 -0.8036
  174MOL   H15642022   3.194   0.058   5.866  0.6465 -0.7809 -2.5826
  174MOL   H15742023   3.034   0.147   5.863 -4.2255 -2.2926  0.9077
  174MOL   C15842024   3.083   7.535   5.521  0.5051 -0.2203  0.4620
  174MOL   C15942025   3.221   7.565   5.455 -0.3139  0.0885 -0.0381
  174MOL   C16042026   3.212   7.542   5.307  0.7940  0.0418 -0.2541
  174MOL   C16142027   3.145   7.656   5.220  0.3669 -0.1597 -0.2230
  174MOL   H16242028   3.002   7.583   5.466  1.8598  1.8827  0.2387
  174MOL   H16342029   3.059   7.430   5.504 -2.1846  0.3271  0.5439
  174MOL   H16442030   3.248   7.671   5.464 -0.9597  0.2387  0.1920
  174MOL   H16542031   3.159   7.450   5.282 -0.6905 -0.1365  3.2439
  174MOL   H16642032   3.315   7.526   5.275  0.0017  0.2681 -3.1330
  174MOL   H16742033   3.212   0.037   5.219 -0.9954  0.9314  0.7630
  174MOL   H16842034   3.136   7.630   5.115 -3.5363 -0.1466  0.0375
  174MOL   H16942035   3.049   7.685   5.264  1.9679  1.1973  2.5698
  174MOL   C17042036   3.340   7.482   5.517 -0.5536 -0.3821  0.4017
  174MOL   C17142037   3.447   7.567   5.591  0.0330 -0.0122 -0.4083
  174MOL   C17242038   3.544   7.630   5.488  0.0786 -0.3907 -0.5427
  174MOL   C17342039   3.637   0.027   5.554 -0.0183  0.1224  0.3416
  174MOL   H17442040   3.395   7.431   5.438  2.4687 -0.7598  2.6517
  174MOL   H17542041   3.311   7.410   5.593 -0.1128 -0.4691  0.4915
  174MOL   H17642042   3.401   7.656   5.633 -0.0931 -0.3149  0.1064
  174MOL   H17742043   3.489   7.688   5.414 -0.5273 -0.7931 -0.4169
  174MOL   H17842044   3.600   7.558   5.428  0.1466 -0.5330 -0.3110
  174MOL   H17942045   3.715   7.671   5.597 -1.0306  0.2057  2.3689
  174MOL   H18042046   3.687   0.081   5.474  2.8098 -2.4975  0.2399
  174MOL   H18142047   3.597   0.091   5.633  0.7187  1.1401 -0.0964
  174MOL   C18242048   3.527   7.486   5.704  0.1565 -0.3976  0.0344
  174MOL   C18342049   3.450   7.442   5.833 -0.0062 -0.1232 -0.0935
  174MOL   C18442050   3.449   7.561   5.928  0.4906 -0.1451 -0.0409
  174MOL   C18542051   3.332   7.540   6.032  0.1553 -0.3620  0.6807
  174MOL   H18642052   3.616   7.540   5.734  0.2552  0.8859 -2.4634
  174MOL   H18742053   3.566   7.405   5.641  2.9869  0.2056  0.9422
  174MOL   H18842054   3.344   7.427   5.809  0.1331 -2.0453  0.4505
  174MOL   H18942055   3.438   7.650   5.867 -1.2835  0.3124  0.9073
  174MOL   H19042056   3.543   7.570   5.984  0.3735 -0.0094  0.1334
  174MOL   H19142057   3.367   7.470   6.108  3.9369  2.2523  1.5246
  174MOL   H19242058   3.306   7.631   6.087  2.4652  0.7180  0.0106
  174MOL   H19342059   3.237   7.515   5.985 -0.8286 -1.4835  3.1496
  174MOL   C19442060   3.508   7.315   5.901 -0.6411 -0.1260  0.0336
  174MOL   C19542061   3.486   7.177   5.831 -0.2060 -0.0712 -0.9054
  174MOL   C19642062   3.422   7.075   5.930  0.0792 -0.3895  0.6028
  174MOL   C19742063   3.276   7.094   5.959  0.0163  0.8849  0.4980
  174MOL   H19842064   3.484   7.305   6.007 -0.4044 -1.1757 -0.0081
  174MOL   H19942065   3.615   7.337   5.894 -0.2386 -1.1233  2.7053
  174MOL   H20042066   3.419   7.191   5.746 -0.7802 -2.2774 -0.8602
  174MOL   H20142067   3.465   7.086   6.029  1.2362 -0.6176  0.1317
  174MOL   H20242068   3.448   6.971   5.907  3.5217  0.2753  1.2658
  174MOL   H20342069   3.241   7.197   5.970 -2.5113  0.0775  0.2918
  174MOL   H20442070   3.222   7.051   5.875 -0.1027  4.4926 -1.3804
  174MOL   H20542071   3.233   7.044   6.046 -0.3955  1.0698  0.4003
  174MOL   C20642072   3.620   7.118   5.773  0.1793 -0.1520  0.0671
  174MOL   C20742073   3.610   7.044   5.640 -0.0091  0.5483 -0.9743
  174MOL   C20842074   3.729   6.956   5.605 -0.0108  0.6134 -0.3199
  174MOL   C20942075   3.863   7.026   5.575  0.9903  0.4214  0.3294
  174MOL   H21042076   3.676   7.050   5.839  0.6980  0.1090 -0.0972
  174MOL   H21142077   3.694   7.196   5.752  0.4173 -0.1815  0.7495
  174MOL   H21242078   3.516   6.991   5.657  0.5085  0.7867  3.0699
  174MOL   H21342079   3.705   6.896   5.517  1.1057 -0.4383  0.0699
  174MOL   H21442080   3.757   6.888   5.685 -1.8434  1.5368  1.1376
  174MOL   H21542081   3.942   6.951   5.584  0.8411  0.4014  1.4805
  174MOL   H21642082   3.868   7.079   5.479 -0.0965  2.5135  1.3870
  174MOL   H21742083   3.886   7.107   5.644  0.1213  0.8356  0.1433
  174MOL   C21842084   3.572   7.143   5.528 -0.1371  0.5948  0.2173
  174MOL   C21942085   3.523   7.074   5.403  0.2927  0.2020 -0.0852
  174MOL   C22042086   3.522   7.174   5.286  0.4080  0.2134 -0.5552
  174MOL   C22142087   3.657   7.229   5.225  0.5029 -0.4573 -0.6725
  174MOL   H22242088   3.657   7.206   5.503 -1.2756  3.3037  2.8207
  174MOL   H22342089   3.495   7.211   5.566  1.1434  2.0177  0.2845
  174MOL   H22442090   3.599   7.006   5.365  0.4987  2.1440 -3.3773
  174MOL   H22542091   3.468   7.266   5.308 -1.0482 -0.9617  0.8879
  174MOL   H22642092   3.474   7.143   5.194  0.0762 -0.1425 -0.2617
  174MOL   H22742093   3.736   7.156   5.241  0.1409 -1.2512 -2.3735
  174MOL   H22842094   3.650   7.260   5.121 -1.2884  0.1373 -0.3791
  174MOL   H22942095   3.683   7.321   5.278  0.2274  0.2708 -1.7676
  174MOL   C23042096   3.400   6.982   5.416 -0.2811  0.1369 -0.2355
  174MOL   C23142097   3.279   7.060   5.465  0.2074  0.5699  0.9243
  174MOL   C23242098   3.153   6.967   5.476 -0.6413 -0.5226 -0.7185
  174MOL   C23342099   3.029   7.042   5.530 -0.0652 -0.6030 -0.0985
  174MOL   H23442100   3.420   6.895   5.478  0.3422  1.6050  1.6551
  174MOL   H23542101   3.378   6.943   5.316  1.6198 -0.4961 -0.4331
  174MOL   H23642102   3.300   7.104   5.562  1.9710 -1.1518  1.3590
  174MOL   H23742103   3.169   6.885   5.546 -0.4968  0.3347  0.2683
  174MOL   H23842104   3.132   6.912   5.384  0.1045  0.6590 -1.6121
  174MOL   H23942105   2.981   7.117   5.467  0.0023 -1.6937 -1.4766
  174MOL   H24042106   2.954   6.980   5.578 -2.1839  2.3025  0.5026
  174MOL   H24142107   3.066   7.095   5.618 -3.5816  1.6342  0.1523
  174MOL   H24242108   3.250   7.142   5.399 -2.3318 -1.0511 -0.0358
  175MOL     C142109   6.997   3.657   1.101  0.1060  0.1130  0.1863
  175MOL     C242110   7.034   3.510   1.053  0.5666  1.0283  0.4705
  175MOL     C342111   7.158   3.513   0.966  0.4175  0.3735  0.0567
  175MOL     C442112   7.237   3.382   0.947  0.5517  0.8582 -0.0976
  175MOL     H542113   7.080   3.701   1.155  2.3034 -1.5069 -1.7542
  175MOL     H642114   6.964   3.711   1.012 -1.6396  1.9777  1.9070
  175MOL     H742115   7.053   3.445   1.138  0.3448 -1.3014 -1.2238
  175MOL     H842116   7.228   3.596   0.972 -0.9232  1.5793 -0.6385
  175MOL     H942117   7.117   3.554   0.874 -0.7539 -2.1012 -0.5830
  175MOL    H1042118   7.332   3.412   0.903 -0.8052  1.5685 -2.7082
  175MOL    H1142119   7.256   3.344   1.047  1.7628  0.6657 -0.3978
  175MOL    H1242120   7.179   3.320   0.878  0.5051  2.2001 -1.2850
  175MOL    H1342121   6.920   3.658   1.179  1.0011 -0.0128  1.0761
  175MOL    C1442122   6.920   3.443   0.985 -0.3290  0.8858 -0.3757
  175MOL    C1542123   6.804   3.405   1.080  0.3089 -0.5127 -0.4614
  175MOL    C1642124   6.828   3.289   1.185  0.3094 -0.0526 -0.6621
  175MOL    C1742125   6.896   3.164   1.131 -0.9615  0.0063 -0.7736
  175MOL    H1842126   6.949   3.346   0.942  2.5586  0.5855  2.0895
  175MOL    H1942127   6.880   3.501   0.902 -2.5467  0.3100  0.2686
  175MOL    H2042128   6.793   3.496   1.141  2.3926 -0.4846 -0.1052
  175MOL    H2142129   6.737   3.268   1.241  1.2897 -2.0833  0.2021
  175MOL    H2242130   6.890   3.324   1.267 -0.8016 -0.9374  0.5797
  175MOL    H2342131   6.921   3.078   1.193  1.0693  2.3776  1.8012
  175MOL    H2442132   6.850   3.105   1.052 -0.8622  0.2484 -1.0151
  175MOL    H2542133   6.995   3.189   1.092  0.8809 -2.8835  1.8415
  175MOL    C2642134   6.663   3.386   1.011 -0.7963 -0.0944 -0.2961
  175MOL    C2742135   6.538   3.457   1.080 -0.4822  0.6231  0.3735
  175MOL    C2842136   6.408   3.388   1.026  0.2093  0.2307 -0.1200
  175MOL    C2942137   6.384   3.395   0.871 -0.0485 -0.8368 -0.2063
  175MOL    H3042138   6.658   3.277   1.014  0.4089 -0.1225  1.1576
  175MOL    H3142139   6.666   3.414   0.906 -0.9103 -1.1019 -0.5720
  175MOL    H3242140   6.533   3.434   1.187 -1.6605 -3.9053 -0.5443
  175MOL    H3342141   6.317   3.427   1.071 -1.3967 -2.4318 -0.9408
  175MOL    H3442142   6.411   3.283   1.055 -2.1992  0.6686  1.8066
  175MOL    H3542143   6.295   3.337   0.847 -0.0906 -0.8470 -0.0239
  175MOL    H3642144   6.356   3.490   0.824  0.5549 -1.3706 -1.6750
  175MOL    H3742145   6.474   3.354   0.824 -0.5102 -0.8084 -1.1261
  175MOL    C3842146   6.540   3.605   1.044  0.3820 -1.1427 -0.5825
  175MOL    C3942147   6.425   3.693   1.093  0.2208 -0.6753 -0.0467
  175MOL    C4042148   6.422   3.832   1.024  0.2389 -0.2166  0.4252
  175MOL    C4142149   6.533   3.924   1.058  0.6279  0.3034  0.0287
  175MOL    H4242150   6.555   3.611   0.936 -0.6874  0.7971 -0.6537
  175MOL    H4342151   6.634   3.652   1.070  0.5006 -1.5439 -0.2930
  175MOL    H4442152   6.333   3.644   1.062 -0.4137 -0.5946  1.6804
  175MOL    H4542153   6.334   3.895   1.039  2.1159  2.7955 -1.0074
  175MOL    H4642154   6.425   3.809   0.918  1.0475  0.5664  0.2865
  175MOL    H4742155   6.535   4.006   0.986  2.4834  0.4842  0.2447
  175MOL    H4842156   6.527   3.961   1.160  1.1188 -1.2313  0.6243
  175MOL    H4942157   6.631   3.879   1.042 -0.0883 -0.6971 -1.7548
  175MOL    C5042158   6.438   3.706   1.248  0.2783  0.5163 -0.1943
  175MOL    C5142159   6.315   3.775   1.313 -0.3714  0.0447  0.5443
  175MOL    C5242160   6.356   3.881   1.414 -0.5879 -0.7245  0.3930
  175MOL    C5342161   6.404   3.823   1.550  0.0835  0.1415  0.5139
  175MOL    H5442162   6.523   3.762   1.286 -0.7466  0.2407  2.6239
  175MOL    H5542163   6.455   3.608   1.294  3.3501  1.1382  0.0854
  175MOL    H5642164   6.256   3.832   1.241 -0.1669  0.0137  0.3519
  175MOL    H5742165   6.268   3.942   1.434 -0.5786 -0.1527 -1.2922
  175MOL    H5842166   6.423   3.950   1.363  0.2275 -2.4484 -0.9148
  175MOL    H5942167   6.493   3.760   1.547  0.4103  0.5468  1.4665
  175MOL    H6042168   6.443   3.904   1.612 -0.2397  1.9461 -1.5443
  175MOL    H6142169   6.329   3.765   1.604  0.7184 -1.7044 -0.5341
  175MOL    C6242170   6.215   3.675   1.381 -0.1657  0.2531  0.1422
  175MOL    C6342171   6.133   3.578   1.295  0.6603 -0.1731 -0.0210
  175MOL    C6442172   6.033   3.636   1.199 -0.0384  0.2773 -0.2079
  175MOL    C6542173   5.941   3.744   1.260  0.0546 -0.3399 -0.7680
  175MOL    H6642174   6.144   3.728   1.444 -0.5404 -0.5029  0.3672
  175MOL    H6742175   6.277   3.614   1.447  1.2681  0.2132 -1.1930
  175MOL    H6842176   6.197   3.522   1.226  0.0232 -0.7499 -0.1497
  175MOL    H6942177   5.969   3.565   1.146  0.8103  0.0731 -0.9789
  175MOL    H7042178   6.096   3.685   1.125  0.6091  0.2595  0.3278
  175MOL    H7142179   5.995   3.826   1.308 -1.7216  0.6157 -0.3533
  175MOL    H7242180   5.873   3.793   1.191  1.6500  2.4967 -0.3981
  175MOL    H7342181   5.894   3.698   1.347  0.7836  0.2395 -0.0494
  175MOL    C7442182   6.066   3.461   1.385  0.4780 -0.3263 -0.3826
  175MOL    C7542183   6.155   3.360   1.462 -0.1091 -0.3557  0.8760
  175MOL    C7642184   6.259   3.288   1.370  0.2436 -0.8367 -0.0597
  175MOL    C7742185   6.188   3.212   1.248 -0.3238  0.0421 -0.3808
  175MOL    H7842186   5.997   3.401   1.324  3.0040 -1.6265 -2.0487
  175MOL    H7942187   6.002   3.510   1.458 -0.2975 -2.1780  0.2018
  175MOL    H8042188   6.211   3.421   1.532  0.5639  1.2554 -1.0173
  175MOL    H8142189   6.307   3.214   1.433 -0.6253  0.2341  1.9002
  175MOL    H8242190   6.338   3.348   1.325 -0.1730  0.4034  0.8265
  175MOL    H8342191   6.121   3.259   1.176 -1.6857 -0.3108  0.6350
  175MOL    H8442192   6.263   3.173   1.179 -0.1802 -0.9902  0.3534
  175MOL    H8542193   6.134   3.125   1.286 -1.5275 -0.1453 -2.4387
  175MOL    C8642194   6.068   3.261   1.550  0.1828 -0.1949 -0.4690
  175MOL    C8742195   6.012   3.325   1.678  0.4285  0.1667  0.4040
  175MOL    C8842196   6.119   3.341   1.790 -0.0804 -0.2233 -0.1898
  175MOL    C8942197   6.072   3.430   1.904 -0.2224  0.3190 -0.2262
  175MOL    H9042198   6.137   3.182   1.580 -0.6730 -0.6056  0.4445
  175MOL    H9142199   5.992   3.225   1.480 -2.7610  0.4108  2.3034
  175MOL    H9242200   5.986   3.428   1.655 -0.5174  0.3266  2.0897
  175MOL    H9342201   6.207   3.382   1.740  0.1306  0.3461  0.6442
  175MOL    H9442202   6.155   3.244   1.822 -1.1984 -1.2881 -2.0687
  175MOL    H9542203   6.064   3.524   1.849  2.3916 -0.9301 -2.8855
  175MOL    H9642204   5.979   3.403   1.953 -0.6822 -0.3921 -1.4628
  175MOL    H9742205   6.143   3.436   1.986 -0.5707 -0.7922  0.1686
  175MOL    C9842206   5.895   3.231   1.732  0.3069  0.3645  0.2098
  175MOL    C9942207   5.762   3.227   1.647 -0.6870 -0.5659  0.7487
  175MOL   C10042208   5.693   3.365   1.629  0.0991 -0.4511  0.6554
  175MOL   C10142209   5.564   3.360   1.554  0.3174 -0.0443  0.6235
  175MOL   H10242210   5.876   3.266   1.833  1.3266 -2.0462  1.2821
  175MOL   H10342211   5.942   3.133   1.745 -1.8801 -0.6012  1.0856
  175MOL   H10442212   5.789   3.198   1.546  0.1067  0.7829  0.5617
  175MOL   H10542213   5.768   3.429   1.583 -3.0964  1.5076 -2.0639
  175MOL   H10642214   5.666   3.406   1.726  1.9406  1.5684  0.3530
  175MOL   H10742215   5.530   3.463   1.537 -1.2927 -0.7586 -0.6923
  175MOL   H10842216   5.584   3.318   1.455  0.6023  3.4352 -0.8867
  175MOL   H10942217   5.484   3.302   1.601  0.3774  0.5909  1.5101
  175MOL   C11042218   5.672   3.124   1.703  1.0226  0.3097 -0.3610
  175MOL   C11142219   5.718   2.981   1.756  0.1922  0.3005 -0.1879
  175MOL   C11242220   5.776   2.902   1.643 -0.5097  0.2354 -0.1641
  175MOL   C11342221   5.835   2.761   1.682 -0.0099  0.6643  0.3445
  175MOL   H11442222   5.598   3.096   1.627  0.0148  1.0885  0.3263
  175MOL   H11542223   5.616   3.175   1.781  1.7677 -0.1188  0.4711
  175MOL   H11642224   5.800   3.001   1.825  1.2108 -1.1734 -0.9344
  175MOL   H11742225   5.864   2.956   1.606 -2.0750  3.2669  0.4557
  175MOL   H11842226   5.712   2.895   1.555 -0.7242  0.6333 -0.0354
  175MOL   H11942227   5.891   2.752   1.775  3.9462 -1.5272 -2.0558
  175MOL   H12042228   5.768   2.676   1.668 -0.3082  0.5343  2.4742
  175MOL   H12142229   5.917   2.726   1.618  0.0261  0.9704  0.2266
  175MOL   C12242230   5.601   2.903   1.824  0.4179  0.2576 -0.1192
  175MOL   C12342231   5.565   2.957   1.960 -0.8076  0.4133 -0.7851
  175MOL   C12442232   5.631   2.869   2.072 -0.7174 -0.8251 -0.6548
  175MOL   C12542233   5.781   2.856   2.073  0.0415  0.6141 -0.3828
  175MOL   H12642234   5.625   2.797   1.832  1.2428  0.4437 -0.1358
  175MOL   H12742235   5.509   2.908   1.765 -0.0330  3.1658  0.7165
  175MOL   H12842236   5.606   3.055   1.982  1.9236 -1.2687  2.0826
  175MOL   H12942237   5.571   2.778   2.074 -1.8371 -0.1256 -1.5241
  175MOL   H13042238   5.608   2.911   2.170  0.6442 -1.3606 -0.1039
  175MOL   H13142239   5.821   2.958   2.068 -1.7946  1.4111  0.5082
  175MOL   H13242240   5.807   2.805   2.166 -0.7972 -1.3152 -1.1934
  175MOL   H13342241   5.823   2.814   1.982  3.8816  3.7454 -0.1608
  175MOL   C13442242   5.409   2.945   1.986 -0.6843 -0.2132 -0.3319
  175MOL   C13542243   5.321   3.054   1.913  0.1023  0.2520  0.1649
  175MOL   C13642244   5.290   3.174   2.006 -0.2667 -0.9454 -0.1466
  175MOL   C13742245   5.235   3.297   1.931  0.2087  0.3449 -0.4421
  175MOL   H13842246   5.391   2.946   2.093  0.7276 -0.5202 -0.0771
  175MOL   H13942247   5.382   2.845   1.955  0.3517 -0.1958 -1.3424
  175MOL   H14042248   5.379   3.110   1.838 -0.6123  0.1302 -0.4833
  175MOL   H14142249   5.378   3.201   2.064  2.2331 -1.7324 -3.4281
  175MOL   H14242250   5.219   3.147   2.084  0.6876 -1.5433  0.5138
  175MOL   H14342251   5.133   3.281   1.897  1.7394 -0.1297 -5.1567
  175MOL   H14442252   5.244   3.383   1.997 -1.0780 -0.1047  0.3240
  175MOL   H14542253   5.286   3.327   1.840  0.3097  0.5332 -0.3224
  175MOL   C14642254   5.195   2.994   1.839  0.4817  0.0414 -0.3749
  175MOL   C14742255   5.221   2.921   1.700  0.2866  0.3702  0.1211
  175MOL   C14842256   5.154   2.995   1.587 -0.1277 -0.1736  0.1794
  175MOL   C14942257   5.176   3.144   1.579 -0.5052  1.1333  0.2892
  175MOL   H15042258   5.116   3.068   1.826  0.1703 -0.4481 -1.3552
  175MOL   H15142259   5.148   2.918   1.900 -1.5206  0.9068 -0.8194
  175MOL   H15242260   5.326   2.912   1.673  0.0308  1.5432 -1.3369
  175MOL   H15342261   5.047   2.977   1.586  0.2415 -2.4495 -2.1040
  175MOL   H15442262   5.186   2.941   1.498 -0.8628 -1.7510  0.8477
  175MOL   H15542263   5.283   3.161   1.588 -0.3831  0.8600 -0.6307
  175MOL   H15642264   5.146   3.184   1.483 -1.9105  1.9219  1.0308
  175MOL   H15742265   5.116   3.201   1.651 -0.2549  1.6591  0.0800
  175MOL   C15842266   5.171   2.779   1.698  0.8722  0.1090 -0.8448
  175MOL   C15942267   5.212   2.674   1.590 -1.0925  0.0305  0.4199
  175MOL   C16042268   5.131   2.535   1.596  0.7709  0.5416  0.4662
  175MOL   C16142269   5.152   2.468   1.730 -0.1614 -0.4840  0.3979
  175MOL   H16242270   5.063   2.779   1.715  1.6103 -1.2290  4.5739
  175MOL   H16342271   5.208   2.735   1.790  5.4704  0.1986 -2.4988
  175MOL   H16442272   5.181   2.725   1.499 -2.4759  0.5931  1.2077
  175MOL   H16542273   5.160   2.489   1.501  0.1005  0.6771  0.1966
  175MOL   H16642274   5.027   2.552   1.569  0.8533 -0.8308 -0.7567
  175MOL   H16742275   5.147   2.547   1.804  1.5156  0.0670 -0.0582
  175MOL   H16842276   5.083   2.390   1.761 -0.4830 -0.6198 -0.6371
  175MOL   H16942277   5.244   2.409   1.738  0.8010  0.9640  0.1582
  175MOL   C17042278   5.370   2.651   1.583  0.1659  0.0069 -0.0495
  175MOL   C17142279   5.446   2.586   1.472 -0.0643 -0.1512  0.2337
  175MOL   C17242280   5.393   2.634   1.334 -0.2046  0.1778  0.6798
  175MOL   C17342281   5.412   2.786   1.303  0.0945 -0.4039  0.1204
  175MOL   H17442282   5.388   2.622   1.687 -0.7404 -0.8128 -0.1029
  175MOL   H17542283   5.418   2.748   1.578  3.0889 -1.3189  1.0207
  175MOL   H17642284   5.548   2.625   1.469 -0.2533  0.3534  0.3454
  175MOL   H17742285   5.292   2.600   1.315  0.2269 -0.7644  0.0658
  175MOL   H17842286   5.460   2.593   1.258 -0.0787  0.8302  0.4313
  175MOL   H17942287   5.353   2.847   1.371  0.7599  0.5744 -0.1667
  175MOL   H18042288   5.515   2.821   1.302 -0.1513  0.3091 -0.5704
  175MOL   H18142289   5.371   2.814   1.205 -0.3385  0.7708  0.6301
  175MOL   C18242290   5.439   2.433   1.485 -0.4032  0.2817  0.3059
  175MOL   C18342291   5.568   2.363   1.457 -0.0577 -0.0360  0.1254
  175MOL   C18442292   5.550   2.234   1.376 -0.3087  0.7047  0.4036
  175MOL   C18542293   5.498   2.242   1.235 -0.2135  0.5995  0.0648
  175MOL   H18642294   5.361   2.404   1.415 -0.3615 -1.0245  0.7862
  175MOL   H18742295   5.394   2.419   1.584  1.3698 -1.9647  0.8221
  175MOL   H18842296   5.628   2.424   1.389 -1.1742  1.1165  0.1534
  175MOL   H18942297   5.496   2.153   1.426 -0.1871 -0.4362 -1.2448
  175MOL   H19042298   5.652   2.198   1.359 -1.5129 -2.3774 -0.6113
  175MOL   H19142299   5.530   2.326   1.173 -1.7876  2.5735  1.8458
  175MOL   H19242300   5.516   2.148   1.183 -0.6848  1.3880 -1.5703
  175MOL   H19342301   5.389   2.255   1.233 -0.3231 -0.4382 -0.5945
  175MOL   C19442302   5.652   2.352   1.584  0.1529 -0.0140 -0.4269
  175MOL   C19542303   5.806   2.311   1.569 -0.3073  0.2518 -0.2351
  175MOL   C19642304   5.871   2.299   1.707 -0.4681 -0.1001 -0.7194
  175MOL   C19742305   5.802   2.200   1.802 -0.1519 -0.6028  0.4059
  175MOL   H19842306   5.595   2.293   1.656  1.8144  0.3234  1.2242
  175MOL   H19942307   5.652   2.446   1.638 -0.0791 -1.4198  2.0820
  175MOL   H20042308   5.800   2.215   1.517  1.9153  0.5091 -1.0416
  175MOL   H20142309   5.876   2.397   1.754  0.1779 -0.3731 -0.2116
  175MOL   H20242310   5.973   2.261   1.695 -0.2865  0.5086 -1.1447
  175MOL   H20342311   5.782   2.110   1.744  1.5583 -0.1942 -0.8428
  175MOL   H20442312   5.871   2.171   1.880 -1.9568 -0.4359  2.1162
  175MOL   H20542313   5.704   2.225   1.843 -0.8978  0.4722 -1.9105
  175MOL   C20642314   5.881   2.409   1.476  0.6954  0.1566  0.2917
  175MOL   C20742315   6.032   2.393   1.463 -0.2671  0.1574 -0.3568
  175MOL   C20842316   6.105   2.513   1.390  1.0545 -0.2204  0.5317
  175MOL   C20942317   6.097   2.535   1.243  0.8002 -0.4319 -0.6261
  175MOL   H21042318   5.845   2.511   1.491 -2.2356 -0.6097 -1.0618
  175MOL   H21142319   5.845   2.407   1.373 -1.0428 -1.8471  0.9050
  175MOL   H21242320   6.065   2.403   1.567  1.3345 -0.5585 -0.7678
  175MOL   H21342321   6.208   2.498   1.425  0.6204 -1.0053  1.5102
  175MOL   H21442322   6.074   2.601   1.446 -2.7282 -0.8936 -0.3524
  175MOL   H21542323   6.112   2.443   1.187 -1.9467 -0.5375 -1.2906
  175MOL   H21642324   6.000   2.573   1.209 -0.0328 -0.3088  1.8470
  175MOL   H21742325   6.171   2.612   1.221  1.5582 -0.9397  0.1279
  175MOL   C21842326   6.059   2.255   1.406 -0.6348  0.0461 -0.7132
  175MOL   C21942327   6.200   2.190   1.432  0.2354 -0.3404 -0.5793
  175MOL   C22042328   6.213   2.064   1.336  0.1123  0.0455 -0.2873
  175MOL   C22142329   6.352   2.003   1.340 -0.6294  0.1431  0.2043
  175MOL   H22242330   6.030   2.243   1.301  0.9788  0.6269 -1.2437
  175MOL   H22342331   5.993   2.179   1.447 -0.2766 -0.8343 -1.7270
  175MOL   H22442332   6.276   2.264   1.403  0.8942 -1.4856 -1.8221
  175MOL   H22542333   6.186   2.090   1.234 -0.2708 -0.9934 -0.4492
  175MOL   H22642334   6.136   1.990   1.359 -0.9096  1.6729  1.7980
  175MOL   H22742335   6.365   1.917   1.274 -0.5143  0.7010 -0.5106
  175MOL   H22842336   6.432   2.073   1.316  0.8173 -1.3700  0.5052
  175MOL   H22942337   6.373   1.980   1.444 -1.8439  0.9091  0.6324
  175MOL   C23042338   6.241   2.154   1.576 -0.2008 -0.0556 -0.0377
  175MOL   C23142339   6.158   2.041   1.641  0.6379  0.5372  0.2473
  175MOL   C23242340   6.215   2.000   1.776  0.4736 -0.7375  0.6665
  175MOL   C23342341   6.153   1.869   1.830  0.0071  0.1241 -0.1456
  175MOL   H23442342   6.222   2.243   1.635 -4.0037 -0.7625 -0.0795
  175MOL   H23542343   6.347   2.125   1.579  0.0703  0.4502 -3.4787
  175MOL   H23642344   6.055   2.069   1.660  0.6784  0.3107  0.8273
  175MOL   H23742345   6.205   2.080   1.849 -0.8274  0.5438 -0.8746
  175MOL   H23842346   6.323   1.988   1.761  0.7274  0.3203  1.5432
  175MOL   H23942347   6.190   1.852   1.932 -2.2537 -2.5127  0.2925
  175MOL   H24042348   6.044   1.867   1.833 -0.0024  1.0459  0.2893
  175MOL   H24142349   6.195   1.789   1.770  3.1763  0.1750  1.8744
  175MOL   H24242350   6.161   1.955   1.573  0.0693 -0.4145  1.4105
  176MOL     C142351   0.150   3.008   4.491  0.4258  0.3832 -0.2055
  176MOL     C242352   0.084   2.895   4.413  0.5525 -0.0354  0.0207
  176MOL     C342353   0.097   2.758   4.474  0.4195  0.6491 -0.2162
  176MOL     C442354   0.035   2.746   4.612  0.1883 -0.7697  0.1341
  176MOL     H542355   0.258   3.016   4.500  0.4078  4.7807 -2.4538
  176MOL     H642356   0.129   3.112   4.463 -0.9888  0.7000  1.8945
  176MOL     H742357   7.683   2.913   4.410  0.5637 -0.3183 -3.2485
  176MOL     H842358   0.197   2.720   4.492 -0.6786 -1.9848  0.6157
  176MOL     H942359   0.045   2.680   4.417 -1.8458  2.8409 -1.2229
  176MOL    H1042360   0.036   2.643   4.647 -1.9797 -0.8133  0.1582
  176MOL    H1142361   0.088   2.804   4.688 -1.4584  1.6965 -0.5262
  176MOL    H1242362   7.636   2.777   4.608  0.9085  2.2361  2.1483
  176MOL    H1342363   0.110   3.000   4.592  1.6056  1.9892  0.4100
  176MOL    C1442364   0.137   2.898   4.268 -0.5193 -0.1464  0.2880
  176MOL    C1542365   0.116   3.022   4.186  0.1767 -0.0470  0.1649
  176MOL    C1642366   7.669   3.061   4.171 -0.0329 -0.4707  0.3955
  176MOL    C1742367   7.574   2.948   4.111 -0.0551  0.2812 -0.1930
  176MOL    H1842368   0.103   2.812   4.211 -2.1931  2.4661 -2.8166
  176MOL    H1942369   0.241   2.868   4.272 -0.1600  1.0987  0.4978
  176MOL    H2042370   0.164   3.108   4.234  1.7764 -0.0107 -1.4598
  176MOL    H2142371   7.660   3.159   4.125  0.8365 -1.3102 -1.6133
  176MOL    H2242372   7.635   3.086   4.272 -1.1955  0.7687 -0.2949
  176MOL    H2342373   7.474   2.993   4.111 -1.4825 -2.7246  0.1302
  176MOL    H2442374   7.607   2.917   4.011  0.4090  2.9529 -0.8895
  176MOL    H2542375   7.566   2.870   4.187 -0.7698  1.7158  1.2278
  176MOL    C2642376   0.178   3.022   4.043 -0.2861  0.0729  0.7696
  176MOL    C2742377   0.334   3.000   4.035 -1.1107 -0.0108  0.9072
  176MOL    C2842378   0.425   3.096   4.115 -0.8189 -0.0864  1.0597
  176MOL    C2942379   0.492   3.032   4.231 -0.2235  0.1830 -0.4470
  176MOL    H3042380   0.162   3.116   3.991 -1.7656  0.3916  1.7654
  176MOL    H3142381   0.147   2.934   3.986  3.0395 -1.7799  1.6974
  176MOL    H3242382   0.355   2.906   4.086 -1.2002 -0.8922 -0.6534
  176MOL    H3342383   0.374   3.191   4.132 -0.9166  0.0459  0.0231
  176MOL    H3442384   0.502   3.123   4.042 -0.9836  0.9426  1.2595
  176MOL    H3542385   0.542   2.936   4.213  4.4232  2.0654  1.7724
  176MOL    H3642386   0.577   3.090   4.266 -0.2840  0.6534 -1.0677
  176MOL    H3742387   0.415   3.011   4.304  0.5419 -2.1959 -0.2672
  176MOL    C3842388   0.381   2.986   3.882  0.0606 -0.3917 -0.3557
  176MOL    C3942389   0.507   2.897   3.871  0.2966  0.4848  0.3786
  176MOL    C4042390   0.605   2.947   3.759  0.1340  0.0130 -0.0053
  176MOL    C4142391   0.694   3.068   3.802  0.0730  0.2260 -0.3459
  176MOL    H4242392   0.407   3.085   3.846 -1.3150  0.0679 -0.1037
  176MOL    H4342393   0.302   2.951   3.816 -2.1580  1.8157  1.0713
  176MOL    H4442394   0.571   2.896   3.960  0.5733 -1.9094  0.1949
  176MOL    H4542395   0.557   2.956   3.662  0.5678  0.5039 -0.1806
  176MOL    H4642396   0.682   2.873   3.737 -1.6146 -1.9225  0.2770
  176MOL    H4742397   0.751   3.040   3.891  2.3740 -1.3048 -2.2585
  176MOL    H4842398   0.757   3.080   3.714 -0.5828 -0.5920 -0.9306
  176MOL    H4942399   0.637   3.159   3.821  0.1388 -0.0155  1.0686
  176MOL    C5042400   0.476   2.753   3.832 -0.2280 -0.1507 -0.3890
  176MOL    C5142401   0.393   2.667   3.933 -0.5386  0.4092  0.1843
  176MOL    C5242402   0.472   2.633   4.062 -0.3797  0.3199  0.0168
  176MOL    C5342403   0.588   2.537   4.054  0.2916 -0.0527 -0.0446
  176MOL    H5442404   0.573   2.705   3.819 -0.1526 -1.2037  3.5512
  176MOL    H5542405   0.416   2.763   3.741 -1.1830  1.1302  0.3546
  176MOL    H5642406   0.313   2.723   3.980  0.6250  1.4686  0.9335
  176MOL    H5742407   0.401   2.598   4.137  0.1782 -4.0927 -1.3434
  176MOL    H5842408   0.523   2.714   4.113 -1.3007  0.3404  0.9097
  176MOL    H5942409   0.575   2.432   4.027  1.3853 -0.9564  2.7294
  176MOL    H6042410   0.661   2.591   3.993  1.7518 -1.6159  0.2591
  176MOL    H6142411   0.623   2.522   4.156 -0.0031 -0.5447 -0.0121
  176MOL    C6242412   0.339   2.534   3.877  0.0953  0.0980  0.0380
  176MOL    C6342413   0.214   2.539   3.781  0.0493 -0.0940 -0.2435
  176MOL    C6442414   0.098   2.555   3.878  0.0710 -0.0771 -0.5103
  176MOL    C6542415   7.702   2.664   3.822 -0.3044  0.5013  0.0982
  176MOL    H6642416   0.315   2.462   3.955 -2.9363  1.8035  0.7649
  176MOL    H6742417   0.417   2.488   3.816 -2.0180 -1.3215 -1.6739
  176MOL    H6842418   0.235   2.620   3.711 -1.6065  0.2515 -0.3487
  176MOL    H6942419   0.135   2.586   3.976  1.4545  0.1514 -1.0859
  176MOL    H7042420   0.041   2.464   3.894 -0.4099  0.4001  0.5092
  176MOL    H7142421   0.040   2.741   3.758  0.0926 -0.1203 -0.3850
  176MOL    H7242422   7.626   2.618   3.758 -0.8290  0.6747  0.5909
  176MOL    H7342423   7.645   2.706   3.905 -0.8699  1.1469 -0.6060
  176MOL    C7442424   0.198   2.411   3.697  0.1818  0.6052 -0.6282
  176MOL    C7542425   0.275   2.411   3.565 -0.1099  0.4611 -1.2089
  176MOL    C7642426   0.191   2.451   3.441  0.8717 -1.0999  0.1863
  176MOL    C7742427   0.139   2.595   3.440  0.1172 -0.6986 -0.5477
  176MOL    H7842428   0.096   2.379   3.675  0.5802 -0.1718 -1.3802
  176MOL    H7942429   0.238   2.336   3.766  3.2283  2.2291 -0.5422
  176MOL    H8042430   0.351   2.486   3.585 -3.5514  3.5420  0.9181
  176MOL    H8142431   0.102   2.389   3.430 -2.1779  2.8345  1.7336
  176MOL    H8242432   0.240   2.461   3.344  0.7534 -0.2297  0.2178
  176MOL    H8342433   0.211   2.672   3.469 -1.0982  0.9920 -1.8386
  176MOL    H8442434   0.091   2.612   3.343 -0.8530 -0.5259 -0.0454
  176MOL    H8542435   0.066   2.605   3.520 -0.1535  0.9917 -0.9746
  176MOL    C8642436   0.343   2.278   3.544  0.3262  0.4842  0.4703
  176MOL    C8742437   0.443   2.267   3.430 -0.5044 -0.4397 -0.5105
  176MOL    C8842438   0.393   2.211   3.290 -0.0951  0.1040  0.3298
  176MOL    C8942439   0.473   2.250   3.171  0.7863  0.0054 -0.4437
  176MOL    H9042440   0.272   2.196   3.535  0.4467  0.3664  0.5911
  176MOL    H9142441   0.401   2.237   3.627  0.7262  0.0679 -0.0150
  176MOL    H9242442   0.478   2.369   3.411 -1.8495  0.2411  0.5907
  176MOL    H9342443   0.286   2.225   3.279 -0.2113  0.9006  2.3093
  176MOL    H9442444   0.395   2.102   3.292 -1.1077  0.0550 -1.0067
  176MOL    H9542445   0.482   2.358   3.171  1.0723 -0.0119  0.7122
  176MOL    H9642446   0.569   2.198   3.173  0.9411  0.3098  0.4877
  176MOL    H9742447   0.425   2.217   3.079  1.8731 -1.6397 -0.4420
  176MOL    C9842448   0.568   2.191   3.464 -0.4070 -0.1128  0.6270
  176MOL    C9942449   0.646   2.244   3.588 -0.5025  0.4139  0.1045
  176MOL   C10042450   0.652   2.402   3.606  0.7262 -0.4255  0.7352
  176MOL   C10142451   0.756   2.485   3.524  0.7949 -0.1074  0.3863
  176MOL   H10242452   0.629   2.190   3.374 -2.0278 -0.7001 -0.4862
  176MOL   H10342453   0.550   2.084   3.472  0.7450 -0.2918  0.9106
  176MOL   H10442454   0.587   2.194   3.664 -0.8700  1.8921  0.7896
  176MOL   H10542455   0.686   2.420   3.708  1.4192 -1.8172  0.7598
  176MOL   H10642456   0.547   2.431   3.607  0.1230 -2.3690 -1.4801
  176MOL   H10742457   0.727   2.499   3.420  2.4842 -1.0848 -0.2168
  176MOL   H10842458   0.759   2.585   3.567  1.7896  0.5887 -1.2538
  176MOL   H10942459   0.853   2.436   3.532  0.7164 -0.3449 -0.1023
  176MOL   C11042460   0.788   2.181   3.598  0.4552  0.0937 -0.2093
  176MOL   C11142461   0.859   2.186   3.740  0.9795  0.3672  0.3256
  176MOL   C11242462   1.012   2.170   3.734 -0.0274 -0.1776 -0.4606
  176MOL   C11342463   1.062   2.031   3.702 -0.3821  0.3754 -0.3668
  176MOL   H11442464   0.853   2.232   3.528  1.3905 -1.0408 -0.1895
  176MOL   H11542465   0.797   2.075   3.574 -1.4955 -0.2528  0.5171
  176MOL   H11642466   0.834   2.286   3.775 -0.9073 -0.2733  0.8849
  176MOL   H11742467   1.052   2.203   3.829 -2.6375  0.6876  0.3645
  176MOL   H11842468   1.041   2.241   3.656 -0.9770  0.3515 -0.3352
  176MOL   H11942469   1.009   1.995   3.614  1.8888 -2.5022 -0.6386
  176MOL   H12042470   1.168   2.027   3.677 -0.5558 -1.0924 -0.8861
  176MOL   H12142471   1.055   1.963   3.787  0.3254  0.4798 -0.2253
  176MOL   C12242472   0.790   2.093   3.839 -0.5479 -0.2042  0.6927
  176MOL   C12342473   0.856   2.084   3.977  0.9243  0.1029 -0.6267
  176MOL   C12442474   0.812   1.946   4.041 -0.8348  0.5128 -0.2880
  176MOL   C12542475   0.902   1.819   4.013 -0.0246  0.1887  0.6290
  176MOL   H12642476   0.797   1.994   3.795  1.1999  1.1625 -2.2034
  176MOL   H12742477   0.684   2.116   3.846 -0.0477  3.0431 -1.5059
  176MOL   H12842478   0.965   2.080   3.974  0.9357  0.3214 -0.5194
  176MOL   H12942479   0.709   1.926   4.010 -0.4954  0.8176 -1.6621
  176MOL   H13042480   0.818   1.950   4.150  3.8740  0.2861 -0.4383
  176MOL   H13142481   0.910   1.792   3.908  0.7382 -0.7110  0.9058
  176MOL   H13242482   1.005   1.842   4.040  0.6663 -1.0074 -0.8977
  176MOL   H13342483   0.860   1.734   4.066 -0.6589  1.6544  2.5241
  176MOL   C13442484   0.811   2.196   4.072  0.0500  0.0372 -0.0003
  176MOL   C13542485   0.913   2.214   4.191 -0.2433  0.4188 -0.1812
  176MOL   C13642486   0.856   2.280   4.326  0.1963  0.5485 -0.0846
  176MOL   C13742487   0.766   2.196   4.414  0.0009 -0.2641  0.0181
  176MOL   H13842488   0.707   2.184   4.102  0.4469  2.0116  2.3768
  176MOL   H13942489   0.810   2.287   4.013 -0.3531 -1.3954 -2.2707
  176MOL   H14042490   0.948   2.114   4.217 -3.4027 -0.6675  0.1354
  176MOL   H14142491   0.806   2.375   4.308  0.8558  1.0172  0.5070
  176MOL   H14242492   0.930   2.321   4.394 -0.3085  0.0044  0.8112
  176MOL   H14342493   0.836   2.137   4.474  1.2951  1.4602  0.2456
  176MOL   H14442494   0.709   2.253   4.487 -2.1473 -0.2380 -1.6604
  176MOL   H14542495   0.695   2.140   4.354  1.5977  0.3365 -2.5118
  176MOL   C14642496   1.034   2.301   4.145  0.1774  0.5976  0.2549
  176MOL   C14742497   1.159   2.289   4.224  0.2647 -0.5906 -0.0254
  176MOL   C14842498   1.259   2.409   4.200 -0.4150  0.1695  0.4663
  176MOL   C14942499   1.210   2.540   4.269 -0.8254  0.2197  0.6228
  176MOL   H15042500   1.003   2.406   4.142  0.0056  0.5076 -2.4515
  176MOL   H15142501   1.050   2.272   4.041 -2.0152 -0.7391  0.2595
  176MOL   H15242502   1.137   2.291   4.331  0.9077 -1.3125  0.1236
  176MOL   H15342503   1.277   2.421   4.093  0.0017 -0.2380  0.4902
  176MOL   H15442504   1.355   2.375   4.239 -1.5764 -1.6901  1.8043
  176MOL   H15542505   1.112   2.560   4.227 -1.2833 -1.3956  0.9044
  176MOL   H15642506   1.191   2.542   4.376  0.9866  1.3360  0.9525
  176MOL   H15742507   1.272   2.626   4.241 -0.6464 -0.0069  0.3222
  176MOL   C15842508   1.225   2.153   4.197  0.0635  0.1433 -0.2403
  176MOL   C15942509   1.298   2.107   4.329 -0.1017  0.5054  0.1046
  176MOL   C16042510   1.427   2.019   4.305 -0.7191  0.1819  0.1259
  176MOL   C16142511   1.549   2.106   4.273 -0.2793 -0.2896  0.8515
  176MOL   H16242512   1.301   2.164   4.119  2.0666  0.1188  1.6398
  176MOL   H16342513   1.158   2.077   4.156 -0.1103  0.2058 -0.0711
  176MOL   H16442514   1.333   2.198   4.377  0.4232  0.9684 -1.1160
  176MOL   H16542515   1.418   1.954   4.218  3.3385 -0.2912 -0.0653
  176MOL   H16642516   1.452   1.963   4.395 -0.8555  0.2045  0.1776
  176MOL   H16742517   1.563   2.189   4.341 -1.0864  0.8764 -0.3850
  176MOL   H16842518   1.640   2.045   4.269  1.8998  2.8497  0.9726
  176MOL   H16942519   1.543   2.143   4.171  2.3995  0.1284  0.8047
  176MOL   C17042520   1.195   2.034   4.421  0.0872 -0.2952 -0.6371
  176MOL   C17142521   1.230   2.051   4.570  0.3105  0.6957 -0.6208
  176MOL   C17242522   1.180   1.931   4.661 -0.8836  0.2366  0.0851
  176MOL   C17342523   1.035   1.906   4.677  0.2105 -0.4937  0.4775
  176MOL   H17442524   1.185   1.928   4.398  1.2584 -1.0037  1.9523
  176MOL   H17542525   1.094   2.069   4.401  0.8984  2.3093 -0.3385
  176MOL   H17642526   1.339   2.050   4.571  0.3781  2.0524  2.9073
  176MOL   H17742527   1.229   1.945   4.757 -1.2432 -0.6552  0.4078
  176MOL   H17842528   1.230   1.845   4.617 -1.6206 -0.5183  0.7015
  176MOL   H17942529   1.002   1.874   4.578  0.6179 -0.5504  0.3584
  176MOL   H18042530   1.008   1.828   4.749  0.7906 -1.7662 -0.6609
  176MOL   H18142531   0.990   2.003   4.695  1.3257  0.0296  0.4618
  176MOL   C18242532   1.197   2.193   4.625 -0.5655  0.0434  0.3871
  176MOL   C18342533   1.245   2.216   4.769 -0.1570 -0.8024  0.2127
  176MOL   C18442534   1.161   2.328   4.842 -0.1102 -0.1817  0.8621
  176MOL   C18542535   1.146   2.452   4.747 -0.0161  0.9823 -0.5306
  176MOL   H18642536   1.091   2.214   4.612 -0.5345 -0.2359 -0.3197
  176MOL   H18742537   1.248   2.270   4.569 -1.2397  0.0157 -0.2710
  176MOL   H18842538   1.240   2.123   4.826 -1.6593 -0.6377  0.3543
  176MOL   H18942539   1.211   2.353   4.935 -0.2420 -1.1927  1.2061
  176MOL   H19042540   1.061   2.295   4.867 -0.4826  0.2681 -0.0094
  176MOL   H19142541   1.226   2.505   4.694 -1.3069  1.5356 -2.0003
  176MOL   H19242542   1.072   2.444   4.667 -0.4746 -1.2404  0.0894
  176MOL   H19342543   1.111   2.534   4.809  1.0625  1.0937 -0.0552
  176MOL   C19442544   1.396   2.245   4.775  0.3180 -0.6275 -0.4723
  176MOL   C19542545   1.464   2.285   4.915  0.1561  0.1158  0.0843
  176MOL   C19642546   1.426   2.197   5.031  0.6230  0.6738  0.0811
  176MOL   C19742547   1.479   2.051   5.006 -0.4069 -0.4912 -0.2310
  176MOL   H19842548   1.420   2.328   4.708  2.6488 -1.6986 -0.9976
  176MOL   H19942549   1.450   2.157   4.742  1.0140 -0.0412 -0.9314
  176MOL   H20042550   1.569   2.264   4.897  0.5284  1.3958  0.7068
  176MOL   H20142551   1.317   2.191   5.033  0.7535 -2.1632  0.1411
  176MOL   H20242552   1.471   2.243   5.119  0.7577 -0.7871  0.7890
  176MOL   H20342553   1.586   2.063   4.991 -0.4436  0.3230  0.1458
  176MOL   H20442554   1.461   1.979   5.087  0.8585  0.4243  0.8885
  176MOL   H20542555   1.447   2.006   4.912 -1.3439  2.7352 -1.5048
  176MOL   C20642556   1.465   2.443   4.943 -0.2141  0.4088  0.4136
  176MOL   C20742557   1.605   2.513   4.992  0.1010 -0.6201 -0.0261
  176MOL   C20842558   1.663   2.438   5.114  0.1262 -0.0612  0.0045
  176MOL   C20942559   1.590   2.464   5.245  0.4521 -0.0284  0.3814
  176MOL   H21042560   1.390   2.469   5.018 -1.8424  2.3792 -1.8482
  176MOL   H21142561   1.438   2.491   4.849 -1.3697 -1.9511 -0.4964
  176MOL   H21242562   1.674   2.497   4.909 -0.4958 -1.9918 -0.2891
  176MOL   H21342563   1.768   2.466   5.124 -0.0952  0.1831  1.7165
  176MOL   H21442564   1.663   2.332   5.091 -2.6559 -0.8787  3.5042
  176MOL   H21542565   1.482   2.466   5.232  0.4456 -3.0855 -0.2628
  176MOL   H21642566   1.617   2.384   5.314  1.5134 -2.0049 -2.2607
  176MOL   H21742567   1.614   2.561   5.289  0.4250 -1.0225  2.6484
  176MOL   C21842568   1.577   2.666   5.016 -0.4107  0.3218  0.9000
  176MOL   C21942569   1.683   2.763   5.045  0.2999 -0.2104 -0.1672
  176MOL   C22042570   1.614   2.892   5.079  0.2041  0.5797  0.5859
  176MOL   C22142571   1.690   3.003   5.149  0.6380 -0.1117  0.2111
  176MOL   H22242572   1.513   2.667   5.104 -0.5761  0.8298  0.7769
  176MOL   H22342573   1.516   2.712   4.938  1.3183 -0.3100 -0.8892
  176MOL   H22442574   1.739   2.734   5.135 -2.0918 -0.3533  1.3051
  176MOL   H22542575   1.514   2.886   5.122 -0.2520  0.4713 -0.4668
  176MOL   H22642576   1.584   2.938   4.984 -1.6331  1.4540  1.5555
  176MOL   H22742577   1.615   3.081   5.155 -1.2438 -1.4136 -4.3164
  176MOL   H22842578   1.734   2.979   5.246  0.8386 -0.0490  0.1375
  176MOL   H22942579   1.780   3.025   5.091 -0.2524  0.4569 -0.9733
  176MOL   C23042580   1.781   2.770   4.926  0.0541  0.0921 -0.0684
  176MOL   C23142581   1.929   2.725   4.946 -0.6021 -0.5433  0.1477
  176MOL   C23242582   2.011   2.740   4.816 -0.0953  0.0644  0.3713
  176MOL   C23342583   2.168   2.719   4.832 -0.1843 -0.6412 -1.2418
  176MOL   H23442584   1.782   2.875   4.897  0.1558  0.6489  1.8547
  176MOL   H23542585   1.740   2.721   4.838  0.6558 -1.5134  0.5328
  176MOL   H23642586   1.979   2.801   5.007  0.5570 -0.9339 -0.3009
  176MOL   H23742587   1.987   2.829   4.758 -1.8022 -0.7171 -0.1241
  176MOL   H23842588   1.972   2.669   4.744  1.2805  0.8431 -1.1990
  176MOL   H23942589   2.197   2.614   4.836  0.6192 -0.5138 -2.9460
  176MOL   H24042590   2.217   2.748   4.739  1.6439  1.5919  0.3458
  176MOL   H24142591   2.214   2.766   4.919 -1.4403 -0.9905 -0.3848
  176MOL   H24242592   1.934   2.624   4.986 -1.5999 -1.5622 -2.1898
  177MOL     C142593   3.443   1.881   6.000  0.1016  0.1178 -0.2984
  177MOL     C242594   3.347   1.781   5.940 -0.5381 -0.1527 -0.1284
  177MOL     C342595   3.358   1.643   6.009  0.5695  0.4877 -0.5192
  177MOL     C442596   3.488   1.558   5.991 -0.4575  0.3639  0.1406
  177MOL     H542597   3.435   1.985   5.969  2.6124 -0.0486 -1.6604
  177MOL     H642598   3.440   1.882   6.109 -1.7000  0.2060 -0.3408
  177MOL     H742599   3.246   1.818   5.960 -1.1100 -1.1796 -1.0433
  177MOL     H842600   3.268   1.585   5.988  0.3796  0.6339 -0.1275
  177MOL     H942601   3.345   1.653   6.117 -2.3044  2.0440 -0.9742
  177MOL    H1042602   3.571   1.629   5.986 -1.7945  1.8895 -0.7261
  177MOL    H1142603   3.497   1.484   6.070  2.8660 -0.5912 -1.0279
  177MOL    H1242604   3.498   1.515   5.891 -0.8440 -0.5326  0.4897
  177MOL    H1342605   3.548   1.851   5.997  0.4290  0.7525  2.5465
  177MOL    C1442606   3.358   1.797   5.787  0.4178  0.0512 -0.0294
  177MOL    C1542607   3.244   1.744   5.708 -0.2309 -0.5582  0.3616
  177MOL    C1642608   3.294   1.698   5.568  0.3618 -0.0109 -0.1329
  177MOL    C1742609   3.383   1.795   5.504  0.4955  0.9877  0.0397
  177MOL    H1842610   3.451   1.753   5.753  1.3252  1.3898  0.6521
  177MOL    H1942611   3.359   1.905   5.772 -0.1578 -0.0876 -1.1093
  177MOL    H2042612   3.201   1.666   5.771  3.2015 -3.2272 -0.4462
  177MOL    H2142613   3.204   1.675   5.512  0.6174 -1.5993  0.0762
  177MOL    H2242614   3.344   1.603   5.584  0.7697  0.6503  2.8554
  177MOL    H2342615   3.322   1.857   5.438  0.1558  1.3811  0.7197
  177MOL    H2442616   3.453   1.867   5.547 -1.2881  0.9570  3.1059
  177MOL    H2542617   3.438   1.740   5.427 -0.8884 -0.6226  0.1688
  177MOL    C2642618   3.132   1.851   5.680  0.3923  0.4621 -0.1744
  177MOL    C2742619   2.993   1.818   5.634 -0.2156 -0.1101  0.0504
  177MOL    C2842620   2.918   1.943   5.591  0.1965 -0.1364  0.0941
  177MOL    C2942621   2.930   1.976   5.439 -0.0786  0.0046 -0.0252
  177MOL    H3042622   3.176   1.924   5.611 -1.0454  0.3127 -1.2805
  177MOL    H3142623   3.130   1.894   5.780  2.5111 -2.4337  1.1772
  177MOL    H3242624   2.997   1.744   5.555  1.3870  0.3929 -0.3439
  177MOL    H3342625   2.935   2.029   5.655  0.7096  1.9121 -2.6681
  177MOL    H3442626   2.812   1.918   5.599 -0.5466  2.6229 -0.5223
  177MOL    H3542627   3.031   2.004   5.407  0.2432 -0.7848  0.2889
  177MOL    H3642628   2.890   1.898   5.375  1.1607 -0.7998  0.1633
  177MOL    H3742629   2.878   2.066   5.404  0.1204  0.4189  0.7327
  177MOL    C3842630   2.918   1.754   5.746  0.3850  0.4562  0.0229
  177MOL    C3942631   2.787   1.677   5.702 -0.2462  0.1016  0.5261
  177MOL    C4042632   2.666   1.723   5.787  0.3563  0.6188  0.1538
  177MOL    C4142633   2.623   1.869   5.771 -0.2139  0.1965 -0.5890
  177MOL    H4242634   2.894   1.830   5.820  0.4889  0.7259 -0.2225
  177MOL    H4342635   2.978   1.686   5.807 -0.5353 -0.7417 -0.3771
  177MOL    H4442636   2.750   1.709   5.604  1.2810 -0.0162 -0.1029
  177MOL    H4542637   2.696   1.709   5.890  0.8577 -2.2288 -0.3433
  177MOL    H4642638   2.581   1.655   5.776  0.6204  0.3016  0.0620
  177MOL    H4742639   2.554   1.894   5.852  1.8379 -0.7396  1.5014
  177MOL    H4842640   2.707   1.938   5.780  1.0166 -1.4696  1.0923
  177MOL    H4942641   2.576   1.891   5.675 -0.1135 -0.1113 -0.7122
  177MOL    C5042642   2.804   1.527   5.704  0.3365 -0.0267  0.7139
  177MOL    C5142643   2.899   1.460   5.607 -0.4873 -0.0698 -0.1311
  177MOL    C5242644   2.867   1.480   5.451 -0.9374 -0.0863 -0.2644
  177MOL    C5342645   2.974   1.428   5.346 -0.0303 -0.1261 -0.6204
  177MOL    H5442646   2.712   1.470   5.685  0.6635 -0.5659  0.7281
  177MOL    H5542647   2.832   1.510   5.808  2.2188  0.3711  0.2774
  177MOL    H5642648   2.993   1.514   5.617 -1.5159  1.2745  2.7088
  177MOL    H5742649   2.858   1.588   5.434 -1.2866  0.1042  1.1278
  177MOL    H5842650   2.770   1.435   5.425 -0.3899  0.7444 -4.1278
  177MOL    H5942651   3.075   1.466   5.360  0.1857 -0.5540 -1.0183
  177MOL    H6042652   2.971   1.319   5.349  1.5072 -0.1792 -0.5260
  177MOL    H6142653   2.939   1.458   5.247 -0.4659 -1.5856 -0.9221
  177MOL    C6242654   2.924   1.309   5.640 -0.4310  0.1403 -0.2918
  177MOL    C6342655   2.977   1.276   5.781 -0.1287 -0.0592 -0.1573
  177MOL    C6442656   3.129   1.307   5.795 -0.0408  0.5359  0.3759
  177MOL    C6542657   3.185   1.293   5.939 -0.3857  0.2100 -0.6829
  177MOL    H6642658   2.990   1.253   5.574 -0.1521 -1.4308  1.2471
  177MOL    H6742659   2.838   1.246   5.620  1.6324 -2.9365  0.1120
  177MOL    H6842660   2.939   1.337   5.863  2.3304  4.3368 -2.1136
  177MOL    H6942661   3.148   1.404   5.750 -0.7255  0.5345  0.0786
  177MOL    H7042662   3.181   1.239   5.727 -0.7775 -1.2312  1.5311
  177MOL    H7142663   3.159   1.387   5.988 -1.5285  0.1842 -1.2263
  177MOL    H7242664   3.150   1.206   5.995 -1.4273  2.1031  1.6941
  177MOL    H7342665   3.294   1.285   5.931 -0.4240  0.8022 -1.9202
  177MOL    C7442666   2.931   1.129   5.817  0.0525 -0.6994 -0.2048
  177MOL    C7542667   2.833   1.123   5.935  0.3882 -0.2471  0.1449
  177MOL    C7642668   2.824   0.984   6.001 -0.3466  0.0575  0.1068
  177MOL    C7742669   2.952   0.949   6.084  0.2432 -0.0108  0.6388
  177MOL    H7842670   3.017   1.067   5.842  1.0951  1.3256  1.3369
  177MOL    H7942671   2.886   1.073   5.735  0.9766 -0.1977 -1.0775
  177MOL    H8042672   2.882   1.189   6.006 -0.2471 -2.1772  2.4222
  177MOL    H8142673   2.800   0.911   5.924  1.0055  0.2701 -0.5254
  177MOL    H8242674   2.746   0.987   6.077 -0.4784 -0.0183 -0.0262
  177MOL    H8342675   2.981   1.026   6.155  1.4843  1.5926 -1.5489
  177MOL    H8442676   2.941   0.859   6.145  1.0692  0.7072  1.8601
  177MOL    H8542677   3.035   0.935   6.015  0.2262 -1.7745  0.9403
  177MOL    C8642678   2.694   1.180   5.884  0.2091  0.1146  0.3097
  177MOL    C8742679   2.596   1.223   5.990 -0.0680 -0.3863  0.2596
  177MOL    C8842680   2.457   1.175   5.961 -0.8360 -0.1627  0.6427
  177MOL    C8942681   2.427   1.021   5.967  0.1599 -0.0717  0.4318
  177MOL    H9042682   2.652   1.096   5.828 -1.4760 -0.1329  1.8888
  177MOL    H9142683   2.709   1.261   5.813  0.8074  0.0121  0.3123
  177MOL    H9242684   2.632   1.171   6.079 -0.6506 -0.9544  0.1654
  177MOL    H9342685   2.415   1.223   5.872  0.4995 -0.1033  0.0419
  177MOL    H9442686   2.386   1.215   6.034  0.8564 -0.1738  2.3238
  177MOL    H9542687   2.467   0.961   6.048  1.1217 -1.3802 -0.9801
  177MOL    H9642688   2.321   0.995   5.967  0.3872 -1.0669 -1.2913
  177MOL    H9742689   2.468   0.971   5.880  1.5000 -0.1542  1.1046
  177MOL    C9842690   2.616   1.372   6.015 -0.9301 -0.2682  0.4389
  177MOL    C9942691   2.551   1.432   6.139 -0.0808  0.3414  0.4377
  177MOL   C10042692   2.559   1.587   6.114  0.2559  0.2273  0.8814
  177MOL   C10142693   2.436   1.644   6.039 -0.1643 -0.7812  0.2534
  177MOL   H10242694   2.591   1.427   5.925  1.6235 -2.0320 -1.4329
  177MOL   H10342695   2.720   1.405   6.024 -0.8746 -0.6436  1.2092
  177MOL   H10442696   2.447   1.402   6.145 -0.2275  0.7174 -0.1610
  177MOL   H10542697   2.648   1.608   6.054  0.3378 -0.5785  0.7266
  177MOL   H10642698   2.560   1.627   6.215  0.7758 -0.9454  1.3426
  177MOL   H10742699   2.420   1.606   5.939 -1.0828  0.8435 -0.2393
  177MOL   H10842700   2.348   1.619   6.099  1.4571 -2.5800  1.9389
  177MOL   H10942701   2.444   1.753   6.035 -0.0620 -0.6781  2.5193
  177MOL   C11042702   2.613   1.382   6.271  0.3035  0.0127 -0.0361
  177MOL   C11142703   2.528   1.379   6.396  0.3955  0.0941 -0.0799
  177MOL   C11242704   2.486   1.511   6.450  0.5695 -0.3014 -0.3691
  177MOL   C11342705   2.601   1.609   6.491  0.2631  0.6727  0.0047
  177MOL   H11442706   2.704   1.441   6.286  2.1527 -1.6990 -3.7541
  177MOL   H11542707   2.646   1.278   6.262 -0.1224 -0.2216  1.0132
  177MOL   H11642708   2.429   1.336   6.378  0.5105 -0.7247  1.1561
  177MOL   H11742709   2.417   1.505   6.534  2.5998  0.7323  1.4469
  177MOL   H11842710   2.416   1.552   6.377 -0.5774 -0.2743  0.7304
  177MOL   H11942711   2.667   1.564   6.566  0.2371  1.6419  0.6169
  177MOL   H12042712   2.656   1.632   6.400 -0.7115 -0.8678 -0.9879
  177MOL   H12142713   2.556   1.695   6.541 -2.2296 -0.8803  0.5497
  177MOL   C12242714   2.587   1.292   6.506 -0.5354  0.3303 -0.3039
  177MOL   C12342715   2.595   1.131   6.486 -0.5698 -0.3158  0.4396
  177MOL   C12442716   2.456   1.083   6.447 -0.1855 -0.9376  0.3861
  177MOL   C12542717   2.461   0.943   6.376  0.3902  0.6188 -0.3365
  177MOL   H12642718   2.519   1.305   6.590  0.8635  1.6341  0.6601
  177MOL   H12742719   2.682   1.332   6.542 -0.1929 -1.2929  0.6140
  177MOL   H12842720   2.667   1.091   6.415 -0.3117  2.0121 -0.6329
  177MOL   H12942721   2.406   1.144   6.372 -0.3415 -0.2562  1.0457
  177MOL   H13042722   2.384   1.079   6.529  1.8817 -1.0569  2.2469
  177MOL   H13142723   2.526   0.935   6.289 -0.1381  0.3511 -0.7069
  177MOL   H13242724   2.481   0.852   6.434  0.4277  0.4638 -0.5915
  177MOL   H13342725   2.369   0.914   6.327  0.3610  0.8537 -0.4208
  177MOL   C13442726   2.633   1.063   6.621  0.2013  0.4697  0.0696
  177MOL   C13542727   2.775   1.100   6.659 -0.6637  0.5623 -1.0687
  177MOL   C13642728   2.878   0.995   6.610 -0.1434  0.3206  0.1812
  177MOL   C13742729   2.891   0.871   6.694  0.0023 -0.0656  0.4361
  177MOL   H13842730   2.620   0.955   6.612  2.7798  0.1731 -0.4688
  177MOL   H13942731   2.559   1.093   6.695  0.1732 -0.5073  0.4436
  177MOL   H14042732   2.805   1.190   6.604  1.5365  1.5478  1.6563
  177MOL   H14142733   2.978   1.039   6.614 -0.5110  1.3378 -1.3427
  177MOL   H14242734   2.865   0.968   6.505 -1.4015  1.9777 -0.1105
  177MOL   H14342735   2.945   0.901   6.783  0.2679  3.9012 -0.9258
  177MOL   H14442736   2.795   0.830   6.726  0.0103 -0.7019 -0.3409
  177MOL   H14542737   2.945   0.787   6.650 -0.4781 -0.1958  0.0762
  177MOL   C14642738   2.792   1.115   6.817 -0.0983  0.4810  0.2882
  177MOL   C14742739   2.749   1.243   6.884  0.1674  0.7371  0.3469
  177MOL   C14842740   2.830   1.363   6.828  0.1860 -0.2323  0.6122
  177MOL   C14942741   2.771   1.498   6.866  0.0369  0.5077 -0.3012
  177MOL   H15042742   2.897   1.102   6.841  0.4198  0.4390 -1.8403
  177MOL   H15142743   2.727   1.039   6.859  1.7134  0.2062  2.6593
  177MOL   H15242744   2.647   1.248   6.847 -0.7365  0.9030  2.7420
  177MOL   H15342745   2.828   1.347   6.720 -0.7900  0.3111  0.5400
  177MOL   H15442746   2.933   1.373   6.860  0.6886 -1.0023 -0.6852
  177MOL   H15542747   2.819   1.585   6.822  1.0557  0.2202  0.2320
  177MOL   H15642748   2.664   1.509   6.847 -0.2407  1.9176  1.7953
  177MOL   H15742749   2.783   1.524   6.972  0.8993 -1.4919  0.1199
  177MOL   C15842750   2.752   1.239   7.036  0.4005  0.2462  0.2155
  177MOL   C15942751   2.623   1.282   7.100  0.4002  0.2017 -0.0685
  177MOL   C16042752   2.646   1.339   7.240  0.0074  0.0820 -0.2684
  177MOL   C16142753   2.685   1.248   7.354 -0.1755 -0.0419 -0.3065
  177MOL   H16242754   2.841   1.286   7.078  0.7826 -0.2336 -0.0645
  177MOL   H16342755   2.767   1.134   7.061 -0.7019  0.3116  1.2158
  177MOL   H16442756   2.581   1.361   7.037  1.1255  1.3121  0.8028
  177MOL   H16542757   2.559   1.394   7.274  1.2502  1.7934  0.1725
  177MOL   H16642758   2.721   1.418   7.241  0.7859 -0.6568  0.5640
  177MOL   H16742759   2.691   1.303   7.447 -2.9077  3.2607 -1.9743
  177MOL   H16842760   2.597   1.183   7.360 -0.7981  0.7397 -0.8921
  177MOL   H16942761   2.773   1.185   7.341 -0.1769 -0.2196  0.5389
  177MOL   C17042762   2.517   1.169   7.097  0.0980 -0.5212  0.0607
  177MOL   C17142763   2.376   1.194   7.147 -0.1887 -0.1075  0.0793
  177MOL   C17242764   2.287   1.064   7.154 -1.0437 -0.0383  0.5851
  177MOL   C17342765   2.158   1.071   7.238  0.1478 -0.6516 -0.4082
  177MOL   H17442766   2.545   1.081   7.154  0.4439 -0.7865 -0.5095
  177MOL   H17542767   2.502   1.135   6.994 -2.6007  2.3114 -0.5461
  177MOL   H17642768   2.383   1.238   7.246 -0.4752 -1.2724  0.6355
  177MOL   H17742769   2.350   0.991   7.206 -1.2403  0.3302  1.3561
  177MOL   H17842770   2.268   1.023   7.055 -1.0494  1.6001 -0.1097
  177MOL   H17942771   2.088   1.141   7.193  0.6193 -1.1595 -1.9790
  177MOL   H18042772   2.108   0.975   7.248 -1.3796  0.0818 -0.7861
  177MOL   H18142773   2.168   1.105   7.341  1.6945  0.2121 -0.8186
  177MOL   C18242774   2.307   1.317   7.078  1.0732  0.6509 -0.0686
  177MOL   C18342775   2.262   1.305   6.935 -0.0267  0.3749  0.3294
  177MOL   C18442776   2.310   1.430   6.845  0.1322  0.1715 -0.4811
  177MOL   C18542777   2.242   1.571   6.870  0.4393  0.3689  0.3597
  177MOL   H18642778   2.364   1.406   7.101  1.1585  0.3184  1.0916
  177MOL   H18742779   2.217   1.345   7.134  0.9530 -1.1684  0.7005
  177MOL   H18842780   2.301   1.211   6.895  0.3196  0.4495  0.4935
  177MOL   H18942781   2.293   1.404   6.741 -0.2797 -0.3763 -0.2778
  177MOL   H19042782   2.419   1.442   6.847  0.0812  0.4670  0.7447
  177MOL   H19142783   2.265   1.635   6.785  0.5325  1.2212  1.0213
  177MOL   H19242784   2.134   1.575   6.882  0.3928  1.0873 -0.2833
  177MOL   H19342785   2.297   1.612   6.954  2.3788  2.6313 -1.9255
  177MOL   C19442786   2.101   1.298   6.928 -0.1973 -0.4207  0.8272
  177MOL   C19542787   2.042   1.289   6.788 -0.1207 -0.2285 -0.1545
  177MOL   C19642788   1.894   1.329   6.802  0.1064 -0.2307  0.0381
  177MOL   C19742789   1.802   1.233   6.878  0.6577 -0.3838 -0.4297
  177MOL   H19842790   2.059   1.391   6.967  1.4159  0.4093  0.6062
  177MOL   H19942791   2.059   1.228   7.001 -0.7597  0.7265  1.6275
  177MOL   H20042792   2.092   1.372   6.739  1.4000 -0.7528  0.4940
  177MOL   H20142793   1.855   1.342   6.701  1.2717 -0.5031 -0.4553
  177MOL   H20242794   1.885   1.424   6.854 -2.6481 -0.1530 -0.5077
  177MOL   H20342795   1.812   1.132   6.838  0.0412 -0.6717  0.1256
  177MOL   H20442796   1.835   1.218   6.981  2.0390  2.6506 -0.3643
  177MOL   H20542797   1.696   1.255   6.873  1.2724  2.4477 -2.1731
  177MOL   C20642798   2.074   1.153   6.728 -0.2056  0.5807  0.1141
  177MOL   C20742799   2.021   1.129   6.585  0.6794  0.6276  0.4885
  177MOL   C20842800   2.011   0.977   6.561  0.4282 -0.5659  0.5517
  177MOL   C20942801   2.136   0.897   6.512  0.3334 -0.8327 -0.2864
  177MOL   H21042802   2.037   1.078   6.798  1.8707 -3.3348 -2.7754
  177MOL   H21142803   2.181   1.132   6.721 -0.5515 -1.5537  0.7618
  177MOL   H21242804   1.918   1.163   6.586  0.7542  0.8249  1.9653
  177MOL   H21342805   1.931   0.956   6.490  0.5614 -0.5003  0.3827
  177MOL   H21442806   1.977   0.930   6.654 -1.4621 -0.9815 -0.3142
  177MOL   H21542807   2.167   0.923   6.411 -1.5068  0.8170 -0.4512
  177MOL   H21642808   2.226   0.925   6.566  1.3809 -0.6863 -2.0706
  177MOL   H21742809   2.113   0.792   6.532 -1.9682 -0.7856 -2.3736
  177MOL   C21842810   2.115   1.198   6.487  0.2247 -0.0145 -0.9565
  177MOL   C21942811   2.029   1.261   6.367 -0.3664  0.6553 -0.2767
  177MOL   C22042812   2.115   1.258   6.243  0.2010 -0.3550  0.0223
  177MOL   C22142813   2.129   1.116   6.186 -0.0303 -0.3537  0.7342
  177MOL   H22242814   2.198   1.134   6.456  1.0319  1.0695 -1.0467
  177MOL   H22342815   2.175   1.269   6.544  0.2891 -0.3472 -0.6100
  177MOL   H22442816   1.945   1.192   6.352 -0.2270 -0.4850  3.6218
  177MOL   H22542817   2.211   1.309   6.245 -0.6477  1.3763 -1.7526
  177MOL   H22642818   2.055   1.310   6.168 -0.1144 -0.1303  0.4273
  177MOL   H22742819   2.056   1.042   6.215  1.9312 -3.0454 -0.9828
  177MOL   H22842820   2.146   1.122   6.078 -2.5940  0.5652  0.3456
  177MOL   H22942821   2.226   1.087   6.225  0.2432  0.7445  0.8938
  177MOL   C23042822   1.957   1.395   6.400  0.0397 -0.2965 -0.4995
  177MOL   C23142823   2.050   1.515   6.393  0.0635 -0.2550  0.6168
  177MOL   C23242824   2.014   1.636   6.479 -0.1690 -0.2401  0.1488
  177MOL   C23342825   2.089   1.758   6.455 -0.6323 -0.0364  0.1569
  177MOL   H23442826   1.901   1.389   6.493  2.1611  0.7676  0.9145
  177MOL   H23542827   1.884   1.416   6.322  0.9896 -0.7467 -1.5325
  177MOL   H23642828   2.147   1.475   6.422 -0.3134 -0.6036  1.4053
  177MOL   H23742829   2.004   1.610   6.585  1.9888 -2.9054 -0.2314
  177MOL   H23842830   1.910   1.658   6.456 -0.0290  0.8865  0.5720
  177MOL   H23942831   2.195   1.762   6.482 -0.2047 -0.0073 -1.4624
  177MOL   H24042832   2.101   1.793   6.352 -1.5049  1.7860  0.6534
  177MOL   H24142833   2.031   1.840   6.497 -0.9770 -0.3784  0.3520
  177MOL   H24242834   2.062   1.543   6.289  0.7936 -2.6559  0.0422
  178MOL     C142835   4.432   0.777   3.951  0.1283  0.4022 -0.6328
  178MOL     C242836   4.281   0.744   3.954  0.3450  0.7904 -0.1618
  178MOL     C342837   4.231   0.722   4.107 -0.0996 -0.0373  0.3635
  178MOL     C442838   4.263   0.590   4.173 -0.7449  0.2637  0.0007
  178MOL     H542839   4.490   0.684   3.956 -0.8988 -0.2294 -0.1983
  178MOL     H642840   4.459   0.825   3.858  0.8919  0.8424 -0.1895
  178MOL     H742841   4.220   0.827   3.917 -1.8945  0.1176  1.8998
  178MOL     H842842   4.122   0.723   4.106 -0.0977  0.5597 -1.4936
  178MOL     H942843   4.261   0.801   4.176 -1.2106 -0.4131  1.2901
  178MOL    H1042844   4.209   0.507   4.128  0.3324  0.1646 -1.1423
  178MOL    H1142845   4.369   0.565   4.184 -0.7629 -0.7701 -1.9037
  178MOL    H1242846   4.229   0.580   4.276  0.7918  1.6031  0.6718
  178MOL    H1342847   4.453   0.845   4.034  0.4778  0.4894 -0.7918
  178MOL    C1442848   4.248   0.628   3.870  0.3005  0.5944 -0.8740
  178MOL    C1542849   4.285   0.641   3.723 -0.0916  0.0435 -0.6086
  178MOL    C1642850   4.201   0.753   3.649 -0.6482 -0.3385 -0.4169
  178MOL    C1742851   4.046   0.733   3.648 -0.1548 -0.5606  0.1085
  178MOL    H1842852   4.144   0.596   3.873  0.2302  0.9605  1.1562
  178MOL    H1942853   4.309   0.545   3.907 -0.0412 -0.1764 -2.0224
  178MOL    H2042854   4.392   0.661   3.723 -0.5083  2.5173 -0.0165
  178MOL    H2142855   4.234   0.740   3.546  2.4776  1.9761  0.2279
  178MOL    H2242856   4.234   0.851   3.684  1.2799 -1.5833  1.3471
  178MOL    H2342857   4.004   0.756   3.746 -2.5486  0.4843 -1.1022
  178MOL    H2442858   4.009   0.808   3.578  2.6724  0.7167 -0.0484
  178MOL    H2542859   4.013   0.632   3.625  2.9151 -1.4724 -0.5189
  178MOL    C2642860   4.269   0.508   3.647  0.3450  0.8832  0.4100
  178MOL    C2742861   4.364   0.387   3.682 -0.0252 -0.5858 -0.2147
  178MOL    C2842862   4.519   0.420   3.652 -0.1098  0.5009  0.2006
  178MOL    C2942863   4.555   0.466   3.514 -0.1106 -0.3058  0.3354
  178MOL    H3042864   4.279   0.534   3.542 -2.7430  2.2679  0.3961
  178MOL    H3142865   4.167   0.473   3.662  0.7593 -0.7409 -0.4641
  178MOL    H3242866   4.362   0.374   3.790 -1.2807 -1.7502 -0.3588
  178MOL    H3342867   4.579   0.332   3.679  1.0956  0.7589 -1.5203
  178MOL    H3442868   4.549   0.506   3.711  2.0303  0.7265 -1.1598
  178MOL    H3542869   4.645   0.528   3.521 -1.0561  1.2137 -0.4066
  178MOL    H3642870   4.566   0.381   3.447 -0.0887 -1.6436  2.0178
  178MOL    H3742871   4.483   0.526   3.457 -2.1930 -2.9230  0.1385
  178MOL    C3842872   4.313   0.261   3.611  0.6180 -0.8381 -0.6324
  178MOL    C3942873   4.231   0.164   3.701 -0.2821 -0.1865  0.1747
  178MOL    C4042874   4.095   0.216   3.756  0.8297 -0.3483  0.7028
  178MOL    C4142875   3.999   0.103   3.802  0.0030  0.4081  0.2106
  178MOL    H4242876   4.398   0.203   3.574  1.0718  0.3411 -1.4707
  178MOL    H4342877   4.251   0.282   3.524  2.3700 -0.0462 -1.7382
  178MOL    H4442878   4.200   0.082   3.636  0.1134 -0.5010  0.3820
  178MOL    H4542879   4.044   0.271   3.677 -0.3483 -1.0308  0.9754
  178MOL    H4642880   4.105   0.298   3.827 -1.9627  0.0226  0.7131
  178MOL    H4742881   3.904   0.142   3.841 -0.7345 -1.4136  0.2937
  178MOL    H4842882   3.980   0.033   3.721  1.0544 -0.6672  0.8895
  178MOL    H4942883   4.042   0.041   3.880 -2.5137  0.9103  2.0726
  178MOL    C5042884   4.326   0.097   3.807  0.7257 -0.1475 -0.3418
  178MOL    C5142885   4.422   7.688   3.763 -0.3368 -0.8935 -0.6689
  178MOL    C5242886   4.355   7.578   3.670  0.0139  0.1555  0.3088
  178MOL    C5342887   4.237   7.500   3.739 -0.3585  0.2929 -0.5904
  178MOL    H5442888   4.269   0.070   3.896  0.1632  1.7512 -0.0952
  178MOL    H5542889   4.388   0.181   3.838 -0.0087 -0.0639  0.9560
  178MOL    H5642890   4.499   0.016   3.694  0.0213  0.3049  0.3098
  178MOL    H5742891   4.438   7.510   3.648  1.3086  0.9990  2.4003
  178MOL    H5842892   4.318   7.623   3.578  0.9788 -0.4678 -0.4056
  178MOL    H5942893   4.198   7.423   3.672  2.3697 -1.9254  0.2770
  178MOL    H6042894   4.271   7.442   3.824 -1.5719  0.4999  0.0478
  178MOL    H6142895   4.170   7.571   3.787  1.2747  0.6465  1.2398
  178MOL    C6242896   4.494   7.626   3.891 -0.1616 -0.3674  0.0171
  178MOL    C6342897   4.603   0.021   3.953  0.1604 -0.4167 -0.1984
  178MOL    C6442898   4.719   0.052   3.858 -0.0069 -0.3336 -0.0156
  178MOL    C6542899   4.814   0.155   3.912 -0.3813 -0.7339  0.2969
  178MOL    H6642900   4.548   7.532   3.881  2.0043  0.9186 -0.8088
  178MOL    H6742901   4.412   7.598   3.957  0.2977  1.2655  1.3205
  178MOL    H6842902   4.551   0.114   3.977  1.6241  0.0149  1.3872
  178MOL    H6942903   4.674   0.093   3.767  2.1406 -1.0393 -1.4252
  178MOL    H7042904   4.790   7.680   3.830 -0.5723 -0.9653  0.2883
  178MOL    H7142905   4.870   0.103   3.990  1.2633 -1.7300 -1.5078
  178MOL    H7242906   4.872   0.194   3.829 -0.0946  1.7654  1.6264
  178MOL    H7342907   4.767   0.241   3.960  0.5999  0.4649 -0.8726
  178MOL    C7442908   4.656   7.678   4.093 -0.2188 -0.1353  0.1543
  178MOL    C7542909   4.547   7.627   4.190 -0.6053  0.7265 -0.0929
  178MOL    C7642910   4.435   0.018   4.208  0.5821 -0.3448 -0.2408
  178MOL    C7742911   4.468   0.149   4.273  0.8401  0.4804  0.1608
  178MOL    H7842912   4.712   0.056   4.133  1.0503 -2.6429  3.9508
  178MOL    H7942913   4.731   7.602   4.073 -0.6585 -0.4631 -0.2705
  178MOL    H8042914   4.505   7.536   4.147 -0.4802  0.7040 -0.1689
  178MOL    H8142915   4.357   7.663   4.256 -2.0873  1.3169 -2.3495
  178MOL    H8242916   4.380   0.045   4.118 -1.5196  1.1955  1.4630
  178MOL    H8342917   4.541   0.206   4.216 -0.3752 -2.7862 -4.9972
  178MOL    H8442918   4.374   0.204   4.285  0.8725  0.4954  0.3570
  178MOL    H8542919   4.497   0.136   4.378 -0.8507  0.4975  0.6474
  178MOL    C8642920   4.623   7.599   4.318  0.2121 -0.2924  1.0624
  178MOL    C8742921   4.556   7.515   4.425 -0.8028  0.2181 -0.2924
  178MOL    C8842922   4.653   7.502   4.546 -0.0692 -0.0676  0.4439
  178MOL    C8942923   4.578   7.430   4.663 -0.3361  0.0107  0.2241
  178MOL    H9042924   4.677   7.687   4.354 -0.7994  0.5829  0.4852
  178MOL    H9142925   4.709   7.537   4.294  1.3592  1.7163 -0.1404
  178MOL    H9242926   4.471   7.579   4.447 -1.1739 -0.3648  0.0075
  178MOL    H9342927   4.688   7.602   4.574  0.7739  0.2529 -1.5992
  178MOL    H9442928   4.745   7.447   4.524  0.1848  0.2005  0.8149
  178MOL    H9542929   4.597   7.323   4.658  0.5809  0.1692  0.2706
  178MOL    H9642930   4.618   7.471   4.755  2.1717  0.5728 -1.0747
  178MOL    H9742931   4.470   7.446   4.661 -0.8829 -2.8089  2.6154
  178MOL    C9842932   4.496   7.379   4.371 -0.3977 -0.5131 -0.5013
  178MOL    C9942933   4.602   7.272   4.326  0.2939 -0.5991  0.1893
  178MOL   C10042934   4.650   7.291   4.176  1.0101  0.2598  0.2918
  178MOL   C10142935   4.560   7.227   4.064  0.0077  1.8042 -0.0524
  178MOL   H10242936   4.438   7.403   4.282 -1.9648  0.2116  0.6760
  178MOL   H10342937   4.426   7.335   4.443  1.1192 -0.1221  1.2676
  178MOL   H10442938   4.677   7.303   4.398  0.3976  2.3814 -1.1335
  178MOL   H10542939   4.748   7.242   4.185  0.4627 -1.1140 -0.8476
  178MOL   H10642940   4.678   7.394   4.155 -1.7059  1.4479  2.3289
  178MOL   H10742941   4.462   7.276   4.068 -1.3969 -0.8870 -0.2164
  178MOL   H10842942   4.599   7.247   3.964  1.9150 -0.4755  0.1903
  178MOL   H10942943   4.547   7.119   4.071  0.6532  1.5379 -2.6634
  178MOL   C11042944   4.557   7.137   4.357  0.4583  1.0258 -0.0934
  178MOL   C11142945   4.663   7.032   4.361 -0.2650 -0.7452  0.5673
  178MOL   C11242946   4.601   6.891   4.318  0.2623 -0.9155  0.6570
  178MOL   C11342947   4.516   6.818   4.424 -0.3159  0.0884 -0.9211
  178MOL   H11442948   4.473   7.107   4.294  0.2458 -0.8183  1.0249
  178MOL   H11542949   4.513   7.138   4.457  0.9624 -1.2710  0.1955
  178MOL   H11642950   4.741   7.058   4.290 -2.2386 -0.8738 -1.7327
  178MOL   H11742951   4.685   6.825   4.298 -0.3044 -1.3294 -0.4067
  178MOL   H11842952   4.543   6.895   4.226  0.9230 -2.5481  0.1386
  178MOL   H11942953   4.581   6.795   4.508 -0.8344 -0.5158 -0.6798
  178MOL   H12042954   4.424   6.865   4.460  1.0276  1.2620  1.0859
  178MOL   H12142955   4.496   6.720   4.380 -0.0706 -0.7406  0.7838
  178MOL   C12242956   4.740   7.033   4.495  0.0241 -0.2172 -0.2828
  178MOL   C12342957   4.882   6.973   4.508 -0.3678  0.1233  0.2041
  178MOL   C12442958   4.881   6.818   4.527  0.2639 -0.0138  0.1367
  178MOL   C12542959   5.017   6.751   4.476  0.7065 -0.1378  0.6481
  178MOL   H12642960   4.673   6.983   4.565 -0.9150 -1.9520 -2.3685
  178MOL   H12742961   4.744   7.140   4.519  0.3633 -0.2885 -0.0215
  178MOL   H12842962   4.930   7.006   4.416  2.1405  0.3798  1.5719
  178MOL   H12942963   4.800   6.772   4.470 -0.3534  1.2073 -0.0059
  178MOL   H13042964   4.854   6.783   4.626 -2.2326  0.2553 -0.4125
  178MOL   H13142965   5.089   6.803   4.539 -0.4083 -0.7389  2.4561
  178MOL   H13242966   5.020   6.646   4.504  0.0883 -0.1495  0.6729
  178MOL   H13342967   5.024   6.761   4.368 -0.2375 -3.2169  0.2635
  178MOL   C13442968   4.961   7.029   4.627 -0.2856  0.3812 -0.1017
  178MOL   C13542969   4.971   7.188   4.631 -0.3502 -0.6029 -0.0915
  178MOL   C13642970   5.009   7.253   4.498 -0.4717  0.8399 -0.1108
  178MOL   C13742971   5.019   7.405   4.505  0.1058  0.7480  0.0410
  178MOL   H13842972   5.059   6.982   4.615 -1.4658 -1.9218 -0.8754
  178MOL   H13942973   4.913   7.007   4.723  0.7209 -0.1753  0.2819
  178MOL   H14042974   4.872   7.222   4.660 -1.0304 -1.5953 -1.2003
  178MOL   H14142975   4.927   7.233   4.429 -2.1644  0.0185  2.0864
  178MOL   H14242976   5.098   7.201   4.462 -0.5020  1.9349 -1.8567
  178MOL   H14342977   4.955   7.447   4.582  0.4927 -1.5285  1.6501
  178MOL   H14442978   5.115   7.438   4.545 -0.8042  1.3917  1.7194
  178MOL   H14542979   5.003   7.448   4.406  0.6653 -0.2405 -0.4844
  178MOL   C14642980   5.082   7.213   4.733  0.3266  0.2130  0.1061
  178MOL   C14742981   5.071   7.162   4.878 -0.7255  0.1712 -0.0041
  178MOL   C14842982   4.944   7.203   4.947  0.2027  0.2001  0.0436
  178MOL   C14942983   4.923   7.354   4.991  0.1388  0.2875 -0.2273
  178MOL   H15042984   5.094   7.320   4.746 -3.8034  0.7742 -0.0276
  178MOL   H15142985   5.171   7.159   4.700 -0.2446  0.8161 -2.4815
  178MOL   H15242986   5.061   7.056   4.853  1.5953  0.2866 -1.5729
  178MOL   H15342987   4.935   7.139   5.035  0.4712  1.6544  1.1522
  178MOL   H15442988   4.867   7.179   4.874  0.8053 -0.0607 -0.5082
  178MOL   H15542989   5.001   7.390   5.058  0.1472  0.2088 -0.1952
  178MOL   H15642990   4.926   7.417   4.901  0.1191  1.6892  0.7330
  178MOL   H15742991   4.830   7.364   5.047 -0.3065 -1.3388 -0.6412
  178MOL   C15842992   5.207   7.170   4.967  0.0388  0.0812  0.3117
  178MOL   C15942993   5.344   7.101   4.906  0.1443 -0.6788  0.0351
  178MOL   C16042994   5.340   6.954   4.864 -0.1176 -0.0857 -0.3648
  178MOL   C16142995   5.304   6.852   4.977 -0.5029 -0.3512  0.6550
  178MOL   H16242996   5.179   7.120   5.060 -2.9811  0.7622 -0.1693
  178MOL   H16342997   5.228   7.274   4.992 -0.4286 -0.0917  1.4678
  178MOL   H16442998   5.366   7.151   4.811 -1.5517  0.8668  0.4188
  178MOL   H16542999   5.433   6.923   4.816 -0.8459  1.4198 -2.8073
  178MOL   H16643000   5.262   6.930   4.792  0.5170 -0.1672 -1.0333
  178MOL   H16743001   5.267   6.760   4.932  1.0119 -1.1118  0.9555
  178MOL   H16843002   5.389   6.845   5.045  0.1747  1.4658  0.0095
  178MOL   H16943003   5.217   6.879   5.038 -1.1143  0.0423 -0.3708
  178MOL   C17043004   5.469   7.131   5.002  0.6093  0.2601 -0.4327
  178MOL   C17143005   5.519   7.282   5.002  0.4599 -0.6766 -0.7146
  178MOL   C17243006   5.654   7.287   4.924 -0.7539  0.3322 -0.2207
  178MOL   C17343007   5.638   7.230   4.781 -0.1398  0.3631  0.5311
  178MOL   H17443008   5.552   7.068   4.970  1.3146  1.3571 -0.7712
  178MOL   H17543009   5.459   7.102   5.107 -0.2920  0.1061 -0.5515
  178MOL   H17643010   5.447   7.342   4.945 -0.7733 -2.4735 -1.0991
  178MOL   H17743011   5.726   7.220   4.970  0.4482  2.2062  0.6718
  178MOL   H17843012   5.700   7.386   4.927 -2.9481  1.3972 -0.4731
  178MOL   H17943013   5.540   7.259   4.745 -0.9097 -1.6897  0.8894
  178MOL   H18043014   5.709   7.269   4.708 -1.1418 -0.6937 -1.0556
  178MOL   H18143015   5.658   7.124   4.766  1.5951  0.7573 -0.1335
  178MOL   C18243016   5.541   7.345   5.142  0.4580  0.2166  0.4223
  178MOL   C18343017   5.494   7.499   5.155 -0.2270  0.8647  0.2496
  178MOL   C18443018   5.575   7.578   5.256  0.4895 -0.2734  0.9992
  178MOL   C18543019   5.567   7.545   5.405 -0.5514 -0.4630  0.3189
  178MOL   H18643020   5.646   7.344   5.171  0.1295  1.0210  1.6819
  178MOL   H18743021   5.511   7.282   5.227 -0.0808 -0.5247 -0.3085
  178MOL   H18843022   5.526   7.542   5.060  1.0197  0.4435  0.4735
  178MOL   H18943023   5.566   7.686   5.243  1.9581  0.0843  2.7563
  178MOL   H19043024   5.674   7.568   5.214 -0.1189  1.4784 -0.9653
  178MOL   H19143025   5.573   7.438   5.423  1.2170 -0.5447 -0.5558
  178MOL   H19243026   5.648   7.582   5.468  0.5552 -2.7002  0.2431
  178MOL   H19343027   5.474   7.590   5.440 -0.6042  1.0438 -1.5853
  178MOL   C19443028   5.336   7.529   5.164 -0.0786 -0.3148 -0.2308
  178MOL   C19543029   5.296   7.675   5.118  0.1533 -0.0392 -0.5731
  178MOL   C19643030   5.264   0.057   5.237  0.1643  0.6832 -0.6075
  178MOL   C19743031   5.225   0.206   5.211  0.5001 -0.0088 -0.2544
  178MOL   H19843032   5.315   7.517   5.271  2.8999 -2.0670  0.2225
  178MOL   H19943033   5.284   7.451   5.108 -0.7696  1.4709 -2.1076
  178MOL   H20043034   5.388   0.006   5.073  0.4185  0.5374  0.4208
  178MOL   H20143035   5.344   0.064   5.310  0.2824 -0.7219 -0.5905
  178MOL   H20243036   5.189   0.007   5.298  0.5668 -0.2861 -0.8961
  178MOL   H20343037   5.303   0.267   5.166 -0.2989  0.6148 -0.8180
  178MOL   H20443038   5.134   0.218   5.152  0.9670  0.1071 -0.9568
  178MOL   H20543039   5.197   0.264   5.299 -1.0171  0.2880 -0.9163
  178MOL   C20643040   5.188   7.670   5.012 -0.0158 -0.4026  0.4129
  178MOL   C20743041   5.231   0.004   4.869 -0.4537 -0.3046  0.7188
  178MOL   C20843042   5.110   0.056   4.792 -0.0824  0.4520 -0.3533
  178MOL   C20943043   5.054   0.196   4.834  0.6031 -0.1588  0.4112
  178MOL   H21043044   5.113   0.035   5.047  2.2169  1.7005  1.0147
  178MOL   H21143045   5.131   7.578   4.993  1.9072 -1.6995  0.8030
  178MOL   H21243046   5.291   0.094   4.882  0.3084 -0.8467  0.9894
  178MOL   H21343047   5.031   7.687   4.787  0.8818 -0.5466 -0.9964
  178MOL   H21443048   5.153   0.088   4.698 -0.8119  2.1104 -0.1288
  178MOL   H21543049   5.131   0.274   4.839 -0.3882  0.9150 -0.8998
  178MOL   H21643050   4.983   0.236   4.762  0.5218  0.3004  0.7496
  178MOL   H21743051   5.001   0.196   4.930  1.8947  2.3780  1.1680
  178MOL   C21843052   5.309   7.607   4.790  0.5224  0.2142  0.4682
  178MOL   C21943053   5.355   7.627   4.646 -0.2869  0.7315  0.3602
  178MOL   C22043054   5.438   7.503   4.599  0.1353 -0.1785  0.1279
  178MOL   C22143055   5.475   7.505   4.454  0.4691  0.3188  0.2622
  178MOL   H22243056   5.246   7.519   4.782  0.0546  0.6526 -0.8723
  178MOL   H22343057   5.383   7.562   4.856  0.8565  0.1922  0.0835
  178MOL   H22443058   5.266   7.637   4.584  0.4367 -0.0755 -0.8411
  178MOL   H22543059   5.378   7.416   4.623  0.3171 -0.1508  0.7122
  178MOL   H22643060   5.524   7.487   4.665  0.9810  0.7221 -0.7279
  178MOL   H22743061   5.538   7.591   4.434 -0.1558  0.5196 -0.8304
  178MOL   H22843062   5.531   7.416   4.424  0.2775  0.3035 -0.0509
  178MOL   H22943063   5.386   7.513   4.391  1.6430 -3.4786 -2.0573
  178MOL   C23043064   5.439   0.052   4.641  0.4767  0.6889 -0.1968
  178MOL   C23143065   5.569   0.049   4.728 -0.0683  0.3681 -0.6548
  178MOL   C23243066   5.641   0.181   4.755  0.3771 -0.0686  0.3905
  178MOL   C23343067   5.710   0.227   4.630 -0.1304  0.4488 -0.3805
  178MOL   H23443068   5.390   0.140   4.681  0.5626  1.0576 -0.9019
  178MOL   H23543069   5.459   0.080   4.538  1.8782  1.1383  0.1851
  178MOL   H23643070   5.546   7.704   4.822 -1.6661  1.2194 -0.5639
  178MOL   H23743071   5.709   0.160   4.838 -0.7965  0.0898  1.4126
  178MOL   H23843072   5.563   0.247   4.792  2.0789  0.5032  3.0743
  178MOL   H23943073   5.642   0.252   4.549  0.6987  0.6533 -1.0209
  178MOL   H24043074   5.773   0.312   4.657  2.2260 -0.8941 -1.5348
  178MOL   H24143075   5.767   0.149   4.579 -0.8989  0.9716 -2.0570
  178MOL   H24243076   5.642   7.694   4.674 -0.6106 -1.2837  0.4466
  179MOL     C143077   5.205   0.582   7.695 -0.0137 -0.1934 -0.2630
  179MOL     C243078   5.241   0.467   0.083 -0.3448 -0.1194  0.9232
  179MOL     C343079   5.116   0.417   0.160  0.1658 -0.9042 -0.7406
  179MOL     C443080   5.010   0.352   0.064  1.1477 -0.3777 -0.0662
  179MOL     H543081   5.159   0.661   0.049 -2.2299 -0.7226 -1.2483
  179MOL     H643082   5.290   0.622   7.639  0.2078 -1.6798 -1.0200
  179MOL     H743083   5.276   0.381   0.026  2.0248  1.2816  0.1954
  179MOL     H843084   5.073   0.503   0.212  2.8440  1.3926 -2.1578
  179MOL     H943085   5.151   0.348   0.237  1.4556 -0.7121 -1.1357
  179MOL    H1043086   4.978   0.423   7.694 -0.3188  0.4576  1.3022
  179MOL    H1143087   5.053   0.265   0.013 -0.5437 -1.0201 -0.4329
  179MOL    H1243088   4.922   0.328   0.123 -1.0106  0.5837 -2.7982
  179MOL    H1343089   5.137   0.553   7.615 -1.8669  1.8748  0.5102
  179MOL    C1443090   5.358   0.484   0.183  0.4563 -0.2284 -0.1715
  179MOL    C1543091   5.504   0.457   0.130  0.9119  0.8616  0.0837
  179MOL    C1643092   5.527   0.299   0.107  0.5874 -0.2916 -0.0822
  179MOL    C1743093   5.614   0.261   7.688  0.4464  0.1974 -0.0603
  179MOL    H1843094   5.351   0.418   0.269  0.4127  0.7141  0.5595
  179MOL    H1943095   5.350   0.580   0.234  0.9653 -1.3072  1.9664
  179MOL    H2043096   5.505   0.514   0.037 -0.1006 -1.1564 -1.1905
  179MOL    H2143097   5.427   0.255   0.108  0.6569 -0.4686  1.7239
  179MOL    H2243098   5.569   0.260   0.200  0.9940 -0.5163 -0.3611
  179MOL    H2343099   5.716   0.246   0.017 -0.1952 -2.1441  0.9144
  179MOL    H2443100   5.592   0.162   7.648  2.2337 -1.4532  2.8334
  179MOL    H2543101   5.611   0.335   7.609 -0.2130 -2.2279 -2.3770
  179MOL    C2643102   5.629   0.515   0.216 -0.0428 -1.0476  0.1855
  179MOL    C2743103   5.630   0.672   0.215  0.3909  0.1901 -0.4235
  179MOL    C2843104   5.684   0.724   0.084 -0.0378  0.3574  0.6539
  179MOL    C2943105   5.633   0.866   0.050  0.5785  0.2797  0.1902
  179MOL    H3043106   5.723   0.471   0.183  0.6567  1.0991 -0.7686
  179MOL    H3143107   5.609   0.480   0.318  0.2317 -0.4958  0.4310
  179MOL    H3243108   5.526   0.704   0.208  0.6763  1.9676  2.5465
  179MOL    H3343109   5.668   0.660   7.703  2.3833 -2.6830  2.3622
  179MOL    H3443110   5.791   0.743   0.094  0.3962 -0.5713 -1.9469
  179MOL    H3543111   5.657   0.943   0.124  2.1178 -0.3624  0.3647
  179MOL    H3643112   5.693   0.893   7.669 -0.0555 -1.5497 -0.8462
  179MOL    H3743113   5.525   0.868   0.030  0.2564 -3.2387  1.3973
  179MOL    C3843114   5.691   0.736   0.336  0.0713 -0.5707  0.9932
  179MOL    C3943115   5.629   0.691   0.472 -0.6875 -0.1492 -0.2218
  179MOL    C4043116   5.475   0.705   0.475  0.5369 -0.0927  0.5246
  179MOL    C4143117   5.420   0.840   0.425  0.2927  0.1823  0.0591
  179MOL    H4243118   5.688   0.845   0.328 -2.5400 -0.7546 -1.1255
  179MOL    H4343119   5.796   0.705   0.332  0.7032  1.3995  1.9987
  179MOL    H4443120   5.648   0.584   0.488 -3.2518 -0.7026 -0.7145
  179MOL    H4543121   5.436   0.693   0.576  0.5438 -1.5586  0.3591
  179MOL    H4643122   5.430   0.616   0.431  1.1021  0.1477 -0.5603
  179MOL    H4743123   5.403   0.846   0.317 -0.6309  0.1536  0.2034
  179MOL    H4843124   5.330   0.870   0.478 -0.7055 -1.6388 -0.5530
  179MOL    H4943125   5.482   0.927   0.450  0.1106  0.5098 -0.5934
  179MOL    C5043126   5.688   0.767   0.595  0.1921 -0.2398 -0.2952
  179MOL    C5143127   5.699   0.674   0.724 -0.7729 -0.3701  0.7166
  179MOL    C5243128   5.699   0.767   0.844 -0.0925  0.4008  0.3190
  179MOL    C5343129   5.567   0.823   0.878 -0.0505 -0.0257  0.0927
  179MOL    H5443130   5.613   0.846   0.603 -0.1131 -0.2678 -2.5403
  179MOL    H5543131   5.788   0.805   0.573 -0.4488  0.7598 -1.6224
  179MOL    H5643132   5.614   0.607   0.728 -0.2232 -1.3566 -2.8724
  179MOL    H5743133   5.779   0.842   0.839  1.0906 -0.9189 -1.3610
  179MOL    H5843134   5.733   0.714   0.933  0.6931 -0.2618 -0.3684
  179MOL    H5943135   5.528   0.905   0.818 -2.6826 -1.1965  0.1264
  179MOL    H6043136   5.489   0.751   0.902 -1.2809  1.4651  0.5922
  179MOL    H6143137   5.580   0.878   0.971 -0.6956  0.4190 -0.0783
  179MOL    C6243138   5.827   0.585   0.723  0.1838 -0.2011  0.4306
  179MOL    C6343139   5.834   0.463   0.822  0.0496 -0.8503  0.7320
  179MOL    C6443140   5.952   0.372   0.791  0.7592  0.3488  0.2217
  179MOL    C6543141   6.076   0.442   0.755  0.1506  0.0172  0.1005
  179MOL    H6643142   5.910   0.655   0.734 -0.0435  0.2148 -0.4442
  179MOL    H6743143   5.848   0.541   0.625  0.7792 -0.6937  0.7769
  179MOL    H6843144   5.836   0.505   0.922 -1.6186 -0.9854  0.8400
  179MOL    H6943145   5.921   0.310   0.707 -1.2599  0.4521  0.8745
  179MOL    H7043146   5.990   0.304   0.867 -0.2544 -1.4154 -0.8317
  179MOL    H7143147   6.167   0.386   0.781  2.0967  2.3309 -1.5332
  179MOL    H7243148   6.086   0.468   0.650  0.9581  1.4949  0.5244
  179MOL    H7343149   6.084   0.540   0.802  1.1635  1.5686 -3.1668
  179MOL    C7443150   5.704   0.363   0.810  0.4412  0.7087  0.5056
  179MOL    C7543151   5.679   0.255   0.919 -0.0413  0.0393  0.8082
  179MOL    C7643152   5.739   0.115   0.880  0.1819 -0.0725  0.4709
  179MOL    C7743153   5.766   0.026   1.000  0.1669  0.4401  0.5589
  179MOL    H7843154   5.707   0.312   0.714  1.5015  2.7088 -0.5439
  179MOL    H7943155   5.612   0.416   0.787  1.2781  2.0920  0.3008
  179MOL    H8043156   5.729   0.297   1.006 -0.6190  0.6619  0.8419
  179MOL    H8143157   5.833   0.128   0.827 -0.0287  1.8529  0.5364
  179MOL    H8243158   5.678   0.069   0.802 -0.8679 -0.0208  1.2494
  179MOL    H8343159   5.851   7.670   0.968 -0.2566 -0.1617  0.5840
  179MOL    H8443160   5.783   0.072   1.097  1.3449  0.3524  0.4075
  179MOL    H8543161   5.674   7.673   1.004  2.1477 -2.9404 -0.8206
  179MOL    C8643162   5.534   0.241   0.953  0.1804  0.2984 -0.0240
  179MOL    C8743163   5.466   0.358   1.031 -0.7103  0.1017  0.1426
  179MOL    C8843164   5.527   0.370   1.173  0.2188 -0.3143 -0.0071
  179MOL    C8943165   5.472   0.476   1.262  0.1490 -0.2265  0.1684
  179MOL    H9043166   5.518   0.145   1.001  1.7165 -0.9864 -1.9920
  179MOL    H9143167   5.479   0.228   0.859 -0.0413  1.5015 -0.0679
  179MOL    H9243168   5.500   0.454   0.992 -0.5971  0.8138  1.9366
  179MOL    H9343169   5.635   0.373   1.167  0.1572  3.4464 -0.2916
  179MOL    H9443170   5.511   0.270   1.214 -0.5423 -0.2830 -0.2137
  179MOL    H9543171   5.541   0.490   1.346 -0.0411 -1.1664  0.4801
  179MOL    H9643172   5.445   0.573   1.219  0.2459 -0.8606 -1.3424
  179MOL    H9743173   5.377   0.435   1.294  0.6263  0.2396  2.2527
  179MOL    C9843174   5.316   0.342   1.037  0.6360 -0.1213  0.3865
  179MOL    C9943175   5.237   0.352   0.904 -0.5316  0.8328  0.0616
  179MOL   C10043176   5.277   0.479   0.824  0.1421 -0.8414  0.0412
  179MOL   C10143177   5.250   0.615   0.886 -0.3332  0.1355 -0.4612
  179MOL   H10243178   5.278   0.420   1.103  0.1628 -1.1213  1.3075
  179MOL   H10343179   5.280   0.252   1.086 -0.1498  0.8535  1.6322
  179MOL   H10443180   5.273   0.266   0.847 -1.1576 -0.4390  1.5706
  179MOL   H10543181   5.226   0.472   0.729  0.8266 -2.3917 -0.2316
  179MOL   H10643182   5.382   0.473   0.795 -0.2182 -1.0187 -1.2320
  179MOL   H10743183   5.293   0.626   0.985  0.5541  3.1275 -1.1381
  179MOL   H10843184   5.305   0.687   0.825 -1.3834  2.2972  1.1166
  179MOL   H10943185   5.144   0.636   0.897 -0.6005 -1.7712  0.8440
  179MOL   C11043186   5.080   0.341   0.924 -0.5360  0.0007 -0.4268
  179MOL   C11143187   4.990   0.286   0.807  0.4229 -0.0298  0.3153
  179MOL   C11243188   4.852   0.263   0.871 -0.0713  0.2675  0.7784
  179MOL   C11343189   4.769   0.385   0.898  0.2328 -0.1076 -0.2339
  179MOL   H11443190   5.047   0.436   0.966  2.8850  1.1309 -0.1171
  179MOL   H11543191   5.057   0.283   1.014  1.1541  0.5026  0.3590
  179MOL   H11643192   4.983   0.362   0.729 -0.4116 -1.2328 -0.8080
  179MOL   H11743193   4.845   0.206   0.963  0.3222 -1.7800 -0.4342
  179MOL   H11843194   4.790   0.206   0.802 -0.6514  0.0310  1.4850
  179MOL   H11943195   4.664   0.371   0.923  0.4037  0.4771  0.8311
  179MOL   H12043196   4.812   0.444   0.980  2.9082 -1.5224 -0.5534
  179MOL   H12143197   4.766   0.453   0.813 -2.7825 -0.6458 -0.5885
  179MOL   C12243198   5.044   0.153   0.746 -0.6182  0.7896 -0.6926
  179MOL   C12343199   5.113   0.161   0.614 -0.0551 -0.4300 -0.5076
  179MOL   C12443200   5.010   0.187   0.501 -0.2960 -0.2513 -0.6085
  179MOL   C12543201   4.937   0.060   0.453  0.2514  0.0340 -0.1376
  179MOL   H12643202   4.970   0.073   0.745  1.1911 -0.9828  0.4797
  179MOL   H12743203   5.116   0.114   0.819 -2.0511 -0.4123  0.0949
  179MOL   H12843204   5.181   0.246   0.610 -0.1228 -0.4250 -1.8152
  179MOL   H12943205   5.062   0.237   0.419 -0.5034  0.4036 -0.3477
  179MOL   H13043206   4.937   0.258   0.542  1.0543  1.4872 -1.1466
  179MOL   H13143207   4.860   0.080   0.379 -0.4242 -2.9732 -0.3096
  179MOL   H13243208   5.004   7.688   0.416  0.7744  0.2003  0.4459
  179MOL   H13343209   4.882   0.015   0.536  1.2312 -1.4382 -0.2522
  179MOL   C13443210   5.207   0.035   0.586 -0.7432 -0.1430 -0.1541
  179MOL   C13543211   5.333   0.012   0.664  0.5191  0.0519  0.1013
  179MOL   C13643212   5.449   0.045   0.571 -0.2243  0.3475  0.1147
  179MOL   C13743213   5.440   0.194   0.531 -0.2059  0.0680 -0.3806
  179MOL   H13843214   5.230   0.030   0.479 -0.9394 -0.3900 -0.1871
  179MOL   H13943215   5.140   7.654   0.586 -2.4448  1.1281  0.4631
  179MOL   H14043216   5.342   0.089   0.741 -2.5795 -1.2803  1.8918
  179MOL   H14143217   5.450   7.691   0.480 -0.1883  1.3629 -0.5716
  179MOL   H14243218   5.539   0.025   0.628 -0.3434 -0.0478  0.1620
  179MOL   H14343219   5.431   0.260   0.617 -0.7772  3.2862 -2.8309
  179MOL   H14443220   5.527   0.222   0.471  2.0604 -0.8891  2.3571
  179MOL   H14543221   5.356   0.223   0.469 -0.5245  3.7101  1.6075
  179MOL   C14643222   5.354   7.566   0.716  0.1923 -0.1612  0.0601
  179MOL   C14743223   5.289   7.521   0.856 -0.3094 -0.5302 -0.2569
  179MOL   C14843224   5.139   7.522   0.845  0.0026  0.3457 -0.5557
  179MOL   C14943225   5.084   7.382   0.807 -0.2442 -0.5252  0.5885
  179MOL   H15043226   5.459   7.538   0.725  0.3209  0.7590  1.5262
  179MOL   H15143227   5.325   7.497   0.637 -3.1527  0.3754  0.7426
  179MOL   H15243228   5.318   7.417   0.865 -0.6021 -0.7911 -2.1118
  179MOL   H15343229   5.107   7.587   0.764  0.1922  0.0974 -0.8323
  179MOL   H15443230   5.084   7.556   0.933 -3.4107  0.9482 -2.8380
  179MOL   H15543231   4.979   7.372   0.780  0.0528  2.0089 -1.7695
  179MOL   H15643232   5.133   7.334   0.722  0.9810  1.6086  0.0403
  179MOL   H15743233   5.112   7.308   0.881 -0.1111  0.4966  1.5824
  179MOL   C15843234   5.350   7.592   0.977  0.3837  0.1329  0.3143
  179MOL   C15943235   5.355   7.499   1.095 -0.0665 -0.3263 -0.6641
  179MOL   C16043236   5.400   7.582   1.220 -0.6776  0.4984 -0.3613
  179MOL   C16143237   5.289   7.671   1.278  0.0551 -0.0118 -0.2142
  179MOL   H16243238   5.301   7.688   0.996 -2.1697 -1.0927  0.0365
  179MOL   H16343239   5.452   7.621   0.951 -0.2328  1.8260 -0.3054
  179MOL   H16443240   5.257   7.464   1.126 -0.8212  2.3062  0.0910
  179MOL   H16543241   5.485   7.640   1.186 -2.4728  1.7015 -3.0566
  179MOL   H16643242   5.439   7.517   1.298 -0.8586 -0.4738 -1.0681
  179MOL   H16743243   5.199   7.612   1.294  2.0675 -2.3007  3.1968
  179MOL   H16843244   5.312   7.691   1.383 -1.7091 -1.4898  0.4783
  179MOL   H16943245   5.285   0.059   1.223 -0.0783  0.8484  1.2292
  179MOL   C17043246   5.458   7.388   1.074  0.5786  0.3142 -0.4996
  179MOL   C17143247   5.465   7.270   1.176  0.5262 -0.0732 -0.0130
  179MOL   C17243248   5.604   7.267   1.243 -0.2024 -0.0256 -0.3578
  179MOL   C17343249   5.620   7.159   1.346 -0.0416  0.1130  0.0337
  179MOL   H17443250   5.551   7.441   1.054  1.4792 -0.5078  1.3771
  179MOL   H17543251   5.455   7.336   0.979 -0.0390  0.5290 -0.6024
  179MOL   H17643252   5.392   7.296   1.253 -0.6472 -0.7013 -0.9098
  179MOL   H17743253   5.613   7.364   1.292  1.2395  0.8693 -2.3267
  179MOL   H17843254   5.689   7.263   1.175 -0.0990  0.2566 -0.2447
  179MOL   H17943255   5.710   7.180   1.404 -0.1033 -3.0942  1.4400
  179MOL   H18043256   5.524   7.164   1.397  1.1564 -0.0181  2.3725
  179MOL   H18143257   5.623   7.057   1.308  0.8272  0.2351 -0.2353
  179MOL   C18243258   5.424   7.136   1.113 -0.3410  0.1533 -0.3004
  179MOL   C18343259   5.273   7.120   1.084 -0.3541 -0.4566  0.2298
  179MOL   C18443260   5.182   7.135   1.213 -0.2656 -0.1293 -0.8630
  179MOL   C18543261   5.190   7.015   1.316 -0.0649 -0.2454 -0.3864
  179MOL   H18643262   5.449   7.047   1.171  2.2007  0.0594 -1.5127
  179MOL   H18743263   5.479   7.117   1.021  0.9057  0.7952  0.3079
  179MOL   H18843264   5.248   7.203   1.019 -1.4468 -1.8779 -1.2106
  179MOL   H18943265   5.084   7.130   1.165 -0.3756 -0.1876 -0.6330
  179MOL   H19043266   5.187   7.239   1.245 -2.3600  0.1019 -1.2444
  179MOL   H19143267   5.290   7.009   1.359 -0.1668 -0.1085 -0.1251
  179MOL   H19243268   5.109   7.023   1.389 -1.5532  1.0117 -2.1257
  179MOL   H19343269   5.178   6.920   1.263 -2.5637  0.0285 -0.4054
  179MOL   C19443270   5.249   6.985   1.000  0.5848  0.1381  1.0466
  179MOL   C19543271   5.326   6.960   0.868 -0.8229  0.1090 -0.9309
  179MOL   C19643272   5.292   7.060   0.757 -0.8399  0.3543  0.7681
  179MOL   C19743273   5.149   7.069   0.710 -0.6318 -0.4179  0.0648
  179MOL   H19843274   5.146   6.961   0.977  0.4205 -0.3366  2.2384
  179MOL   H19943275   5.258   6.901   1.069  0.8770  0.2401  1.1319
  179MOL   H20043276   5.434   6.961   0.885 -0.9346  1.1521 -0.1948
  179MOL   H20143277   5.362   7.055   0.673 -0.8934  2.3034  0.5748
  179MOL   H20243278   5.316   7.158   0.799 -0.3952 -0.4170  2.3618
  179MOL   H20343279   5.079   7.081   0.792 -0.0649  2.8490  0.1311
  179MOL   H20443280   5.134   7.147   0.635 -0.6385  0.5405  1.0667
  179MOL   H20543281   5.127   6.983   0.646  1.8394 -1.1342  0.1440
  179MOL   C20643282   5.301   6.817   0.823  0.0401 -0.2832 -0.3565
  179MOL   C20743283   5.380   6.714   0.899 -0.4670  0.7438  0.3394
  179MOL   C20843284   5.519   6.697   0.829  0.0126  0.4775 -0.2064
  179MOL   C20943285   5.620   6.642   0.925  0.2602  0.2563  0.1272
  179MOL   H21043286   5.333   6.804   0.719 -2.9410 -1.5621 -1.1727
  179MOL   H21143287   5.193   6.804   0.824  0.2609 -2.3304  1.1065
  179MOL   H21243288   5.399   6.753   0.999 -0.1702 -0.9329  0.9443
  179MOL   H21343289   5.547   6.792   0.782 -1.4513  1.0047 -0.0713
  179MOL   H21443290   5.508   6.628   0.746 -0.1768  2.6460 -2.0360
  179MOL   H21543291   5.639   6.720   0.999  1.3299 -1.9295  2.2136
  179MOL   H21643292   5.598   6.546   0.971  0.9987 -0.0620 -0.1714
  179MOL   H21743293   5.715   6.619   0.876  1.1340  1.5534  1.1966
  179MOL   C21843294   5.309   6.573   0.901  0.0650  0.4223 -0.0354
  179MOL   C21943295   5.173   6.574   0.983 -0.1907  0.1720  0.4018
  179MOL   C22043296   5.190   6.509   1.124  0.1390  0.5161 -0.0586
  179MOL   C22143297   5.073   6.549   1.224  0.2886  0.0880  0.5399
  179MOL   H22243298   5.369   6.487   0.931  1.6965  1.7857  0.7203
  179MOL   H22343299   5.299   6.538   0.799  1.8787  2.1674 -0.8471
  179MOL   H22443300   5.149   6.678   1.006 -0.7365  0.9238 -3.2714
  179MOL   H22543301   5.286   6.540   1.165  0.6359 -1.7017  0.5038
  179MOL   H22643302   5.179   6.403   1.101 -1.7123  0.4156  1.1506
  179MOL   H22743303   4.982   6.570   1.168  0.0057 -1.2025  0.5114
  179MOL   H22843304   5.066   6.474   1.303 -0.4335  0.5576  0.9251
  179MOL   H22943305   5.098   6.647   1.266  2.2544 -0.5239  0.8564
  179MOL   C23043306   5.063   6.493   0.908  0.0545  0.1237 -0.1518
  179MOL   C23143307   5.011   6.548   0.782 -0.1963  0.1771  0.4012
  179MOL   C23243308   4.919   6.446   0.714  0.2487  0.1456 -0.1447
  179MOL   C23343309   4.786   6.428   0.789 -0.4217 -0.0803 -0.4436
  179MOL   H23443310   4.976   6.478   0.972  1.2452  0.7355  1.6726
  179MOL   H23543311   5.103   6.393   0.891 -0.1797  0.0282 -0.1414
  179MOL   H23643312   4.971   6.649   0.797  2.5872  1.5640 -1.1115
  179MOL   H23743313   4.968   6.349   0.704 -1.4185 -0.6357 -0.9683
  179MOL   H23843314   4.895   6.483   0.614 -2.1510  0.9738  0.7073
  179MOL   H23943315   4.712   6.383   0.724 -3.1355  1.2622  1.6203
  179MOL   H24043316   4.787   6.355   0.870 -2.5457 -0.1108 -0.4294
  179MOL   H24143317   4.736   6.518   0.823 -0.0635 -0.5380  1.3699
  179MOL   H24243318   5.092   6.567   0.712  0.2426 -0.6598  0.6779
  180MOL     C143319   7.392   1.821   3.785 -0.2509 -0.3751  0.3325
  180MOL     C243320   7.300   1.724   3.705 -0.1710 -0.1601  0.7132
  180MOL     C343321   7.207   1.655   3.811  0.0084  0.5536 -0.1164
  180MOL     C443322   7.259   1.529   3.890  0.4230  0.1102  0.1296
  180MOL     H543323   7.341   1.881   3.860 -1.8495 -2.0336  0.5934
  180MOL     H643324   7.469   1.765   3.837 -0.6121 -1.1820  0.0109
  180MOL     H743325   7.237   1.797   3.654  0.7527  0.3232  0.2596
  180MOL     H843326   7.109   1.628   3.770 -0.7790  1.2904  1.2434
  180MOL     H943327   7.173   1.725   3.886 -0.3461 -1.4147  1.6149
  180MOL    H1043328   7.180   1.478   3.946  1.0303 -0.1064  0.8031
  180MOL    H1143329   7.305   1.452   3.828 -0.3259 -1.4188  1.4427
  180MOL    H1243330   7.335   1.569   3.957 -0.2160  1.9914 -0.2401
  180MOL    H1343331   7.451   1.881   3.715  0.0432  0.6447  1.4353
  180MOL    C1443332   7.371   1.624   3.605 -0.3562 -0.2973 -0.5462
  180MOL    C1543333   7.276   1.555   3.505  0.3278  0.8740 -0.1123
  180MOL    C1643334   7.344   1.447   3.422  0.1454  0.1680  0.1030
  180MOL    C1743335   7.394   1.327   3.502  1.1713  0.5830 -0.2767
  180MOL    H1843336   7.421   1.553   3.670 -1.3340  1.6887  2.4770
  180MOL    H1943337   7.443   1.669   3.537 -1.5502 -1.0398 -2.3795
  180MOL    H2043338   7.194   1.511   3.563  0.1607 -1.2195 -1.8766
  180MOL    H2143339   7.429   1.496   3.374  0.1527  0.1780  0.1258
  180MOL    H2243340   7.275   1.412   3.345 -0.2994 -1.9246  1.3864
  180MOL    H2343341   7.433   1.255   3.431  2.1835  0.4714  0.3943
  180MOL    H2443342   7.472   1.359   3.571  2.7203 -1.4574 -1.0663
  180MOL    H2543343   7.319   1.261   3.547  1.5097 -0.6949 -1.5496
  180MOL    C2643344   7.201   1.650   3.416 -0.6611  0.5985  0.4761
  180MOL    C2743345   7.063   1.608   3.373 -0.5567 -0.4787  0.4216
  180MOL    C2843346   7.021   1.670   3.244  0.4883  0.3379 -1.0788
  180MOL    C2943347   7.082   1.591   3.126 -0.3426 -0.4261 -0.0950
  180MOL    H3043348   7.260   1.674   3.327 -1.4418  1.0990  0.0832
  180MOL    H3143349   7.181   1.753   3.448  1.4324  1.3537 -0.5404
  180MOL    H3243350   7.074   1.501   3.362 -2.1044 -0.6504  0.4455
  180MOL    H3343351   7.047   1.776   3.242  0.5469  0.3946  1.3741
  180MOL    H3443352   6.913   1.676   3.231  0.4396  1.0529 -0.3668
  180MOL    H3543353   7.075   1.483   3.137  2.6349 -0.6255  0.3283
  180MOL    H3643354   7.019   1.616   3.040  2.0978  1.4536 -1.4215
  180MOL    H3743355   7.189   1.604   3.111 -0.3799 -1.4584 -1.3962
  180MOL    C3843356   6.960   1.635   3.482  0.0384  0.3531 -1.2328
  180MOL    C3943357   6.837   1.548   3.475  0.2939 -0.7506 -0.0476
  180MOL    C4043358   6.706   1.626   3.461 -0.2705  0.2390 -0.3074
  180MOL    C4143359   6.584   1.548   3.413 -0.5045 -0.3674 -0.2414
  180MOL    H4243360   6.932   1.740   3.487  0.3657  0.4318 -1.0355
  180MOL    H4343361   7.004   1.617   3.580 -3.0001 -1.0374 -0.0827
  180MOL    H4443362   6.844   1.496   3.380  0.0088 -2.2189  0.7091
  180MOL    H4543363   6.720   1.710   3.393  2.1395  0.8208  0.8581
  180MOL    H4643364   6.678   1.682   3.551  1.3506  0.7406 -0.1020
  180MOL    H4743365   6.607   1.485   3.327 -2.3259 -3.7818  1.6303
  180MOL    H4843366   6.550   1.489   3.498 -0.6178 -0.9443 -0.6828
  180MOL    H4943367   6.501   1.616   3.397 -0.7307 -0.1373  1.7311
  180MOL    C5043368   6.830   1.442   3.594 -0.1654  0.4937 -0.2838
  180MOL    C5143369   6.924   1.315   3.591 -1.0279 -0.2756  0.2916
  180MOL    C5243370   6.867   1.207   3.486 -1.1848 -0.8095  0.1326
  180MOL    C5343371   6.958   1.204   3.362 -0.7571 -0.5932  0.2867
  180MOL    H5443372   6.731   1.399   3.610 -0.0416 -0.0046 -0.8280
  180MOL    H5543373   6.857   1.496   3.684  1.0461 -1.3125  0.4675
  180MOL    H5643374   7.002   1.357   3.528  0.5406 -1.1336  1.6123
  180MOL    H5743375   6.768   1.229   3.448 -0.8118 -0.9322 -0.9493
  180MOL    H5843376   6.874   1.103   3.518  1.4636 -1.3215 -1.8250
  180MOL    H5943377   6.915   1.124   3.302 -1.0521  0.3003 -0.6950
  180MOL    H6043378   6.945   1.296   3.306  2.8793 -0.6097 -0.6712
  180MOL    H6143379   7.063   1.182   3.383 -0.6490 -0.2890  0.0558
  180MOL    C6243380   6.992   1.274   3.727 -0.1388 -0.6771  0.5087
  180MOL    C6343381   6.908   1.195   3.826  0.3583  0.0706 -0.7799
  180MOL    C6443382   6.791   1.265   3.874  0.1732  0.2442 -0.0532
  180MOL    C6543383   6.681   1.189   3.959 -0.2226  0.2562  0.2817
  180MOL    H6643384   7.042   1.361   3.769  1.8585 -1.9772  0.8882
  180MOL    H6743385   7.078   1.217   3.692 -1.7631 -1.7686 -1.7745
  180MOL    H6843386   6.878   1.104   3.773 -1.2806  0.0900  0.1055
  180MOL    H6943387   6.727   1.287   3.789 -0.4922 -0.9374  0.1333
  180MOL    H7043388   6.812   1.363   3.919  0.7374 -0.1387  0.5198
  180MOL    H7143389   6.716   1.169   4.060 -1.0837  5.4610  1.7821
  180MOL    H7243390   6.595   1.255   3.976 -1.1678 -1.0648  0.7320
  180MOL    H7343391   6.645   1.094   3.920 -0.1069 -0.7396  2.5192
  180MOL    C7443392   6.990   1.152   3.949 -0.2684 -0.1140 -0.1196
  180MOL    C7543393   7.106   1.060   3.918 -0.7688  0.0195  0.4260
  180MOL    C7643394   7.049   0.919   3.880 -0.1959 -0.3011  0.4696
  180MOL    C7743395   7.141   0.857   3.773 -0.0535 -0.4145  0.3504
  180MOL    H7843396   6.929   1.115   4.031 -0.6356  1.9130  0.5600
  180MOL    H7943397   7.023   1.241   4.002 -0.0496 -1.3636  1.8769
  180MOL    H8043398   7.175   1.095   3.841  0.6201  0.9680  2.0530
  180MOL    H8143399   6.946   0.919   3.844 -0.1563 -2.4171  0.2711
  180MOL    H8243400   7.053   0.856   3.969  0.8716 -1.8355 -0.6208
  180MOL    H8343401   7.125   0.914   3.682  1.6194  1.0903  0.9700
  180MOL    H8443402   7.247   0.861   3.799  0.0341  2.7500 -0.3618
  180MOL    H8543403   7.122   0.756   3.736 -3.2568 -0.3801  1.7493
  180MOL    C8643404   7.202   1.049   4.039 -0.6064 -0.0184  0.3317
  180MOL    C8743405   7.309   1.161   4.056  0.2142  0.1512  0.0220
  180MOL    C8843406   7.420   1.130   3.951  0.2928  0.1314  0.1528
  180MOL    C8943407   7.536   1.232   3.959  0.3382 -0.0253  0.0093
  180MOL    H9043408   7.246   0.950   4.035  1.6296  0.8938  1.3603
  180MOL    H9143409   7.152   1.038   4.135  0.7710 -1.1786  0.9402
  180MOL    H9243410   7.257   1.255   4.034  0.2507 -0.1164 -1.2452
  180MOL    H9343411   7.377   1.133   3.851 -2.3120  1.6537  1.2446
  180MOL    H9443412   7.454   1.027   3.955 -2.1455 -0.7118 -0.1063
  180MOL    H9543413   7.486   1.326   3.982  0.7896 -0.0808  1.2644
  180MOL    H9643414   7.601   1.208   4.044 -1.4157  0.5519  1.5408
  180MOL    H9743415   7.589   1.236   3.864  0.4529 -1.7012 -0.0158
  180MOL    C9843416   7.357   1.183   4.194  0.2764  0.3432 -0.4030
  180MOL    C9943417   7.248   1.232   4.301 -1.0270  0.3332  0.4937
  180MOL   C10043418   7.232   1.380   4.282  0.1112  0.2573 -0.2161
  180MOL   C10143419   7.106   1.436   4.350 -0.1103  0.7275 -0.4036
  180MOL   H10243420   7.435   1.258   4.188  0.9638 -0.3020  0.5075
  180MOL   H10343421   7.408   1.089   4.214 -0.7003 -0.3883 -1.2796
  180MOL   H10443422   7.155   1.179   4.278 -0.0051 -1.8316  1.1684
  180MOL   H10543423   7.233   1.401   4.175 -0.1298 -0.4516 -0.3607
  180MOL   H10643424   7.320   1.432   4.320 -0.8161  0.4043  1.8263
  180MOL   H10743425   7.117   1.541   4.323  1.6677  0.7149  0.1912
  180MOL   H10843426   7.012   1.394   4.314  0.4872 -1.5205  0.6167
  180MOL   H10943427   7.110   1.443   4.459 -0.5065  1.2738 -0.4196
  180MOL   C11043428   7.295   1.192   4.449 -0.4768 -0.2334  0.6331
  180MOL   C11143429   7.188   1.171   4.559  1.4761  0.3781  0.1164
  180MOL   C11243430   7.199   1.239   4.699  0.5561  0.1954 -0.3880
  180MOL   C11343431   7.296   1.187   4.806  0.3933 -0.2301  0.1909
  180MOL   H11443432   7.354   1.272   4.494 -0.1037  0.5607 -1.2178
  180MOL   H11543433   7.372   1.115   4.452 -1.4915 -1.4612 -2.5757
  180MOL   H11643434   7.096   1.213   4.519  0.5608 -2.3780 -0.7942
  180MOL   H11743435   7.111   1.238   4.764  1.9289 -0.8638  1.4730
  180MOL   H11843436   7.240   1.336   4.669  0.6467  0.0748 -0.6524
  180MOL   H11943437   7.290   1.236   4.904  2.3827  0.3268  0.0597
  180MOL   H12043438   7.286   1.082   4.834 -0.6710 -0.3168 -0.5153
  180MOL   H12143439   7.397   1.198   4.766 -0.3711  1.7983 -1.2521
  180MOL   C12243440   7.165   1.020   4.585  0.1481  0.9984 -1.0599
  180MOL   C12343441   7.087   0.939   4.478 -0.3363  0.6541  0.3561
  180MOL   C12443442   6.937   0.971   4.507  0.4447 -0.2862 -0.1758
  180MOL   C12543443   6.836   0.901   4.411 -0.1350  0.5489  0.6697
  180MOL   H12643444   7.106   1.010   4.676  0.0230  0.1390 -1.2365
  180MOL   H12743445   7.257   0.972   4.617 -1.8868 -1.0428  2.0054
  180MOL   H12843446   7.108   0.974   4.377  0.1047 -0.6151 -0.0127
  180MOL   H12943447   6.920   1.079   4.507 -2.0381 -0.6317 -1.0958
  180MOL   H13043448   6.927   0.935   4.609  2.0886  1.8011  0.7691
  180MOL   H13143449   6.849   0.937   4.309 -1.7371  0.0922  0.2978
  180MOL   H13243450   6.840   0.792   4.412 -0.2020  0.5031 -1.5715
  180MOL   H13343451   6.732   0.926   4.434 -0.2929 -0.4118  1.0478
  180MOL   C13443452   7.118   0.792   4.494  1.5774  0.4936 -0.1953
  180MOL   C13543453   7.263   0.752   4.448  0.7556  0.6479 -0.3414
  180MOL   C13643454   7.268   0.711   4.300 -0.0493 -0.3086  0.2514
  180MOL   C13743455   7.412   0.727   4.240  0.1358 -0.0142 -0.5952
  180MOL   H13843456   7.047   0.734   4.435 -0.3474  1.4957  1.0794
  180MOL   H13943457   7.103   0.765   4.598 -3.0470 -1.1361 -1.1829
  180MOL   H14043458   7.324   0.842   4.462  0.8015  0.4958  0.4720
  180MOL   H14143459   7.203   0.776   4.243 -2.1078 -1.1723  1.5662
  180MOL   H14243460   7.240   0.609   4.274  0.1893 -0.2918 -0.0695
  180MOL   H14343461   7.404   0.759   4.136 -1.1029  0.3858 -0.3857
  180MOL   H14443462   7.461   0.812   4.287 -0.8871 -0.7450  1.8692
  180MOL   H14543463   7.464   0.631   4.243  0.4035  0.0474 -2.8975
  180MOL   C14643464   7.307   0.626   4.522 -0.4898 -0.5368 -0.6988
  180MOL   C14743465   7.389   0.667   4.649 -0.1836  0.4380 -0.7021
  180MOL   C14843466   7.545   0.684   4.616  0.6305 -0.0266  0.4767
  180MOL   C14943467   7.588   0.822   4.657  0.4881  0.3941 -0.0685
  180MOL   H15043468   7.359   0.556   4.456 -0.8846 -1.1317 -0.3916
  180MOL   H15143469   7.213   0.579   4.554 -0.8919  0.6260 -0.1582
  180MOL   H15243470   7.332   0.751   4.690 -3.4888 -2.9504  2.0266
  180MOL   H15343471   7.559   0.683   4.508 -0.4411  0.6599  0.3351
  180MOL   H15443472   7.610   0.608   4.659  0.5189 -1.5500 -1.9278
  180MOL   H15543473   7.695   0.838   4.650  0.7180 -1.0045  0.0652
  180MOL   H15643474   7.539   0.892   4.589  1.3742 -1.4312 -2.6509
  180MOL   H15743475   7.547   0.837   4.757 -2.0441 -0.6498 -0.9044
  180MOL   C15843476   7.381   0.548   4.753  0.0768  0.2031  0.1157
  180MOL   C15943477   7.423   0.592   4.898 -0.0970  0.3990 -0.9849
  180MOL   C16043478   7.461   0.467   4.980  1.0883 -0.6466  0.1602
  180MOL   C16143479   7.606   0.415   4.961 -0.4100  0.8490 -0.0625
  180MOL   H16243480   7.435   0.458   4.725 -1.1069 -0.1920 -0.9091
  180MOL   H16343481   7.276   0.518   4.752 -0.0315  0.6136 -1.6756
  180MOL   H16443482   7.513   0.652   4.884  2.0022 -2.3688  0.0557
  180MOL   H16543483   7.392   0.387   4.952 -2.1635  1.5954  1.4111
  180MOL   H16643484   7.447   0.481   5.087  0.3347 -1.8086  0.2200
  180MOL   H16743485   7.646   0.436   4.862 -1.3428 -0.6994 -0.7878
  180MOL   H16843486   7.671   0.467   5.032  0.6871  0.3088 -0.6650
  180MOL   H16943487   7.614   0.307   4.972 -1.3202  0.7695 -0.1799
  180MOL   C17043488   7.314   0.666   4.978 -0.0781 -0.8728  0.2851
  180MOL   C17143489   7.360   0.751   5.100  0.3424  0.0121 -0.2724
  180MOL   C17243490   7.239   0.781   5.190 -0.1406 -0.3809 -0.4886
  180MOL   C17343491   7.273   0.831   5.330  0.3609  0.2024 -0.4447
  180MOL   H17443492   7.241   0.588   5.002 -1.4802  0.1393 -0.6018
  180MOL   H17543493   7.267   0.738   4.912  1.6723 -0.4345 -0.4815
  180MOL   H17643494   7.436   0.696   5.154 -0.3189 -0.0456  0.6144
  180MOL   H17743495   7.183   0.688   5.200  1.3552 -1.0443  1.9346
  180MOL   H17843496   7.172   0.855   5.145 -1.0427 -0.6438  0.4236
  180MOL   H17943497   7.314   0.931   5.316 -0.3331  0.5865  0.1826
  180MOL   H18043498   7.187   0.843   5.396  1.1032  0.7542  0.4262
  180MOL   H18143499   7.345   0.767   5.381  0.3873  1.0217  0.5688
  180MOL   C18243500   7.434   0.882   5.064 -0.6340  0.5526 -0.1912
  180MOL   C18343501   7.562   0.913   5.153 -0.2558  0.0310 -0.1756
  180MOL   C18443502   7.584   1.071   5.157  0.0591 -0.5586 -0.5771
  180MOL   C18543503   7.632   1.138   5.030  0.0486 -0.5081 -0.1065
  180MOL   H18643504   7.369   0.970   5.058  0.2846  1.1656 -1.6135
  180MOL   H18743505   7.466   0.874   4.960  1.5143 -2.4303  0.6616
  180MOL   H18843506   7.535   0.877   5.253 -0.1948  2.2831  0.6823
  180MOL   H18943507   7.642   1.097   5.245  1.4594 -1.5936 -1.1793
  180MOL   H19043508   7.487   1.113   5.182 -0.3081 -1.3409 -0.6630
  180MOL   H19143509   7.623   1.246   5.046  0.8043 -0.0362 -2.6813
  180MOL   H19243510   0.027   1.107   5.003 -0.1311 -2.9000  1.8470
  180MOL   H19343511   7.566   1.130   4.943  0.0651  1.0949 -0.2941
  180MOL   C19443512   7.684   0.834   5.108  0.7851 -0.1464  0.4532
  180MOL   C19543513   0.093   0.820   5.209  0.0181 -0.3790 -0.6398
  180MOL   C19643514   0.224   0.774   5.143 -0.2874 -0.2329 -0.8138
  180MOL   C19743515   0.286   0.887   5.060 -0.6671  0.1349  0.4687
  180MOL   H19843516   0.008   0.883   5.015 -1.3134  1.3214  0.4905
  180MOL   H19943517   7.661   0.734   5.072 -0.8653  1.2322 -2.5117
  180MOL   H20043518   0.120   0.916   5.254 -0.5375 -0.7275  0.4684
  180MOL   H20143519   0.216   0.675   5.098 -0.3028 -0.1931 -0.8993
  180MOL   H20243520   0.297   0.760   5.222 -1.7407  0.7564  0.7531
  180MOL   H20343521   0.370   0.834   5.015  1.2405  2.1829  1.5317
  180MOL   H20443522   0.226   0.918   4.975  0.8996 -3.0898 -1.9239
  180MOL   H20543523   0.325   0.974   5.114  0.8262 -1.5569  2.1954
  180MOL   C20643524   0.055   0.722   5.321 -0.8141  0.4401 -0.3019
  180MOL   C20743525   0.134   0.744   5.452  0.1905 -0.2834 -0.3563
  180MOL   C20843526   0.121   0.621   5.545  0.1344 -0.0485  0.2465
  180MOL   C20943527   0.230   0.514   5.522 -0.3952  0.0219 -0.0022
  180MOL   H21043528   0.077   0.625   5.277 -1.2012 -0.0096  0.4782
  180MOL   H21143529   7.652   0.728   5.331 -0.7481 -0.1909  0.9522
  180MOL   H21243530   0.241   0.751   5.431 -0.1219 -0.4466 -2.0987
  180MOL   H21343531   0.020   0.580   5.541 -0.9512  2.4668  0.8915
  180MOL   H21443532   0.133   0.651   5.649 -0.0571 -1.1744  0.6086
  180MOL   H21543533   0.214   0.455   5.432  2.4796 -0.7371 -0.0720
  180MOL   H21643534   0.331   0.554   5.520  0.5383 -2.2716 -0.0669
  180MOL   H21743535   0.230   0.442   5.604  3.5020 -0.9398 -0.7234
  180MOL   C21843536   0.090   0.876   5.525  0.4983  0.4463 -0.3673
  180MOL   C21943537   0.171   0.934   5.635  0.8437 -0.2188 -0.3647
  180MOL   C22043538   0.094   1.051   5.714  0.2157  0.0270 -0.6360
  180MOL   C22143539   0.004   1.012   5.827  0.3213 -0.0579 -0.2812
  180MOL   H22243540   7.692   0.871   5.559  1.0858 -0.5533  1.2923
  180MOL   H22343541   0.093   0.950   5.445  1.1504 -2.2369 -2.9016
  180MOL   H22443542   0.173   0.863   5.718 -3.2096 -0.9389 -0.7876
  180MOL   H22543543   0.035   1.110   5.644 -1.7468 -0.9567  0.1562
  180MOL   H22643544   0.168   1.124   5.747 -1.8041  1.9467 -0.2927
  180MOL   H22743545   7.684   1.105   5.878  1.6135 -1.1654  2.5253
  180MOL   H22843546   7.623   0.959   5.789  0.0886 -0.5346  0.8942
  180MOL   H22943547   0.056   0.952   5.901  0.5131 -0.8384 -1.0410
  180MOL   C23043548   0.317   0.969   5.604  0.3946  0.0766 -0.4235
  180MOL   C23143549   0.331   1.060   5.480  0.2714 -0.0073  0.3026
  180MOL   C23243550   0.470   1.123   5.462  0.1190  0.7818 -0.5768
  180MOL   C23343551   0.469   1.237   5.359  0.0230  0.5032  0.1585
  180MOL   H23443552   0.376   0.881   5.580  2.0645  1.1387 -0.2574
  180MOL   H23543553   0.360   1.010   5.695  0.3058 -2.5901  0.8790
  180MOL   H23643554   0.299   1.021   5.383 -1.8181 -0.6208  1.2129
  180MOL   H23743555   0.534   1.039   5.432 -1.4942 -0.9302  0.6767
  180MOL   H23843556   0.514   1.145   5.559  1.0418 -0.1256 -0.7710
  180MOL   H23943557   0.457   1.201   5.257  0.5008 -1.1938  0.6817
  180MOL   H24043558   0.405   1.323   5.381 -0.9933 -0.3446  0.5539
  180MOL   H24143559   0.566   1.286   5.369  0.0968  0.5702 -0.8867
  180MOL   H24243560   0.251   1.135   5.483 -0.4955 -0.7644 -0.8206
  181MOL     C143561   1.387   2.843   4.726 -0.2611 -0.4304  0.1027
  181MOL     C243562   1.301   2.898   4.609  0.4028  0.1871  0.1897
  181MOL     C343563   1.192   2.791   4.573  0.5366  0.2924 -0.0767
  181MOL     C443564   1.069   2.800   4.667 -0.2094 -0.0405 -0.3300
  181MOL     H543565   1.351   2.880   4.822 -0.4943 -1.1880  0.3082
  181MOL     H643566   1.391   2.734   4.726 -1.1981 -0.4640  0.5730
  181MOL     H743567   1.249   2.991   4.634 -0.1779  0.1901 -0.9746
  181MOL     H843568   1.238   2.693   4.565  1.4827  0.6412  0.9209
  181MOL     H943569   1.158   2.823   4.475  2.7216  1.4921 -0.4706
  181MOL    H1043570   0.994   2.724   4.643  0.1373 -0.3326 -0.4952
  181MOL    H1143571   1.094   2.783   4.772  0.0052 -0.0527 -0.3828
  181MOL    H1243572   1.021   2.897   4.656  0.2392  0.2247  0.0808
  181MOL    H1343573   1.489   2.880   4.717 -0.1697 -0.6671  0.1711
  181MOL    C1443574   1.383   2.929   4.486 -0.0610  0.2942 -0.4445
  181MOL    C1543575   1.484   3.041   4.496  0.4683 -0.1700 -0.2791
  181MOL    C1643576   1.426   3.181   4.464 -0.1415  0.4059  0.8307
  181MOL    C1743577   1.316   3.229   4.564 -0.5060  0.0089  0.0425
  181MOL    H1843578   1.317   2.959   4.405  1.0063 -1.7749 -2.1722
  181MOL    H1943579   1.412   2.830   4.449 -1.5498 -0.3405  0.0642
  181MOL    H2043580   1.519   3.052   4.599  0.2590 -0.2206 -0.2014
  181MOL    H2143581   1.390   3.191   4.362 -1.2326 -2.1635  0.9093
  181MOL    H2243582   1.501   3.258   4.482  2.0586 -1.8480  1.5029
  181MOL    H2343583   1.319   3.337   4.576 -0.2725 -0.0984  1.0069
  181MOL    H2443584   1.222   3.175   4.548  1.0523 -3.0962  1.0270
  181MOL    H2543585   1.350   3.205   4.665 -0.3951 -0.6056 -0.1390
  181MOL    C2643586   1.604   3.002   4.412 -0.3077 -0.1603 -1.0667
  181MOL    C2743587   1.730   3.088   4.421  0.1408  0.6947 -0.0246
  181MOL    C2843588   1.815   3.084   4.286 -0.0913 -0.4147  0.8469
  181MOL    C2943589   1.733   3.131   4.162 -0.5760  0.7672  0.2692
  181MOL    H3043590   1.569   2.995   4.310 -0.4096 -1.7222 -0.9424
  181MOL    H3143591   1.643   2.902   4.433  1.8452  0.8903  0.1534
  181MOL    H3243592   1.707   3.193   4.434 -0.9696  0.4013  0.4904
  181MOL    H3343593   1.855   2.984   4.273  1.0874  0.0346  0.9567
  181MOL    H3443594   1.901   3.151   4.294 -0.6495  0.2873  0.9839
  181MOL    H3543595   1.684   3.227   4.180 -0.7406  0.9383 -1.0815
  181MOL    H3643596   1.801   3.143   4.078 -1.2617  1.9677 -0.1248
  181MOL    H3743597   1.649   3.067   4.134 -0.5313  1.2689 -1.0219
  181MOL    C3843598   1.816   3.048   4.543 -0.1778 -0.2872 -0.4645
  181MOL    C3943599   1.928   3.154   4.583 -0.1138  0.8360  0.2807
  181MOL    C4043600   2.058   3.081   4.641 -0.9991 -0.0439  0.8217
  181MOL    C4143601   2.189   3.168   4.601  0.2029  0.0953  0.5508
  181MOL    H4243602   1.864   2.952   4.528 -0.6061 -0.6182  0.2931
  181MOL    H4343603   1.751   3.029   4.629  0.3650 -2.3283 -0.4971
  181MOL    H4443604   1.971   3.190   4.490  2.1024 -2.0180  0.1264
  181MOL    H4543605   2.063   2.979   4.602 -2.5397 -0.1374  0.8368
  181MOL    H4643606   2.057   3.083   4.750  1.5591  3.4780  0.8515
  181MOL    H4743607   2.191   3.273   4.629  0.5969  0.8608 -2.1981
  181MOL    H4843608   2.285   3.119   4.613  0.1456 -0.2332 -0.2466
  181MOL    H4943609   2.197   3.180   4.492 -1.1508  1.2658  0.5598
  181MOL    C5043610   1.883   3.277   4.662 -0.1534  0.4798 -0.1326
  181MOL    C5143611   1.833   3.257   4.818 -0.2897 -0.1572  0.4712
  181MOL    C5243612   1.681   3.257   4.824 -0.3728 -0.8817 -0.0176
  181MOL    C5343613   1.601   3.380   4.774 -0.2015  0.0972 -0.0865
  181MOL    H5443614   1.804   3.334   4.615  0.0862  2.3768  1.6724
  181MOL    H5543615   1.969   3.344   4.669  0.5382 -0.6022  2.1971
  181MOL    H5643616   1.866   3.157   4.844 -3.3162 -1.2195  0.4438
  181MOL    H5743617   1.648   3.223   4.922 -1.0028 -1.3514 -0.3871
  181MOL    H5843618   1.642   3.175   4.763 -2.0353  0.6159 -1.0030
  181MOL    H5943619   1.495   3.362   4.794 -0.9222  1.5186 -2.4252
  181MOL    H6043620   1.631   3.462   4.838 -1.0884 -1.0594  1.8334
  181MOL    H6143621   1.618   3.404   4.669 -1.5646  0.3718 -0.2528
  181MOL    C6243622   1.899   3.350   4.929 -0.7633  0.6807 -0.2753
  181MOL    C6343623   2.046   3.317   4.954  0.2999  0.3040  0.1890
  181MOL    C6443624   2.074   3.192   5.037 -0.4814  0.1938 -0.6237
  181MOL    C6543625   2.024   3.188   5.182  0.0056 -0.3839 -1.1458
  181MOL    H6643626   1.846   3.336   5.023 -0.2640 -1.4911 -0.2900
  181MOL    H6743627   1.880   3.454   4.905  0.2829  0.8192 -0.5264
  181MOL    H6843628   2.087   3.290   4.857  0.3830  0.1612  0.2615
  181MOL    H6943629   2.182   3.178   5.034 -0.3423 -0.7063  4.3748
  181MOL    H7043630   2.021   3.110   4.988 -0.9164 -2.7982  4.4608
  181MOL    H7143631   2.068   3.273   5.232  1.5610 -1.9666  0.2405
  181MOL    H7243632   1.915   3.197   5.186  0.0260 -0.6666  0.4627
  181MOL    H7343633   2.046   3.091   5.228 -0.4379 -0.2170 -0.5793
  181MOL    C7443634   2.123   3.445   5.013  0.3653 -0.0090  0.0696
  181MOL    C7543635   2.181   3.532   4.904 -0.5195  0.5117 -0.4409
  181MOL    C7643636   2.319   3.481   4.848 -0.1836  0.6098  0.2619
  181MOL    C7743637   2.347   3.541   4.705  0.1779 -0.7226  0.5160
  181MOL    H7843638   2.200   3.401   5.077  0.0851 -1.4270 -0.5383
  181MOL    H7943639   2.060   3.500   5.082  0.7969 -0.3623  0.7541
  181MOL    H8043640   2.113   3.531   4.819 -0.4885 -1.5900 -0.4791
  181MOL    H8143641   2.325   3.372   4.857 -1.1796  0.4293 -1.2018
  181MOL    H8243642   2.396   3.521   4.914  0.2500  0.7698 -0.3449
  181MOL    H8343643   2.422   3.490   4.646  0.2924  1.4231 -1.2683
  181MOL    H8443644   2.256   3.540   4.645  0.9004  1.7996 -0.6897
  181MOL    H8543645   2.370   3.648   4.712 -1.5130 -0.4340  1.9702
  181MOL    C8643646   2.197   3.675   4.955  0.2493 -0.3326 -0.2985
  181MOL    C8743647   2.072   3.764   4.941 -0.9529  1.2507  0.7420
  181MOL    C8843648   2.090   3.879   4.845 -0.0088  0.2830  0.5660
  181MOL    C8943649   2.212   3.972   4.885  0.6699 -0.3755  0.6106
  181MOL    H9043650   2.282   3.721   4.903 -0.5573  2.1925  0.5369
  181MOL    H9143651   2.231   3.677   5.058  1.9044  3.0477 -0.8373
  181MOL    H9243652   1.998   3.695   4.900  0.3844 -0.0472  0.4631
  181MOL    H9343653   2.002   3.941   4.831  0.1285  0.8593  2.1348
  181MOL    H9443654   2.119   3.830   4.752  1.3576 -0.5761  1.4313
  181MOL    H9543655   2.191   4.019   4.980  0.7358 -0.9171  0.8974
  181MOL    H9643656   2.305   3.916   4.902  0.4870 -0.7684  0.3351
  181MOL    H9743657   2.237   4.037   4.801  1.0064 -0.1764  0.8608
  181MOL    C9843658   2.017   3.811   5.082  0.1847  0.3899 -0.0799
  181MOL    C9943659   1.870   3.858   5.071 -0.4635  0.6742  0.2538
  181MOL   C10043660   1.833   3.935   5.204 -0.0193 -0.5031  0.0090
  181MOL   C10143661   1.875   4.081   5.208 -0.3855 -0.4378  0.1239
  181MOL   H10243662   2.084   3.887   5.120  0.4960  0.0946 -0.0426
  181MOL   H10343663   2.017   3.729   5.153 -0.2332 -0.9610 -1.5960
  181MOL   H10443664   1.865   3.934   4.994 -0.9767  0.0305 -0.3523
  181MOL   H10543665   1.888   3.893   5.288 -0.9812 -0.9165  0.4261
  181MOL   H10643666   1.725   3.938   5.214  0.1096 -1.9779  2.2428
  181MOL   H10743667   1.831   4.139   5.126  1.0096 -3.4257 -2.8501
  181MOL   H10843668   1.851   4.138   5.298  1.6299  0.9579 -0.1930
  181MOL   H10943669   1.982   4.095   5.194 -0.4073  1.5593  1.6485
  181MOL   C11043670   1.761   3.744   5.048 -0.0251  0.3185 -0.2249
  181MOL   C11143671   1.634   3.800   4.975 -0.0773  0.2534 -0.0828
  181MOL   C11243672   1.659   3.890   4.845  0.0472 -0.2234 -0.4999
  181MOL   C11343673   1.714   3.812   4.729  0.8159 -0.1961  0.1581
  181MOL   H11443674   1.724   3.686   5.133  0.5883  1.1823  0.6552
  181MOL   H11543675   1.805   3.673   4.979  1.4249 -0.7950  1.8134
  181MOL   H11643676   1.591   3.705   4.943  0.6942 -0.0511 -0.2215
  181MOL   H11743677   1.714   3.982   4.863 -0.3573 -0.4392  2.0272
  181MOL   H11843678   1.561   3.926   4.816  0.5090  0.2517 -1.5182
  181MOL   H11943679   1.723   3.873   4.639 -2.3687  0.3335  0.1340
  181MOL   H12043680   1.813   3.781   4.761  0.3565  0.7544  2.6057
  181MOL   H12143681   1.652   3.725   4.706 -1.8215  1.3955  0.9646
  181MOL   C12243682   1.521   3.862   5.058  0.0039  0.4118  0.3018
  181MOL   C12343683   1.486   3.792   5.190 -0.0686  0.3211  0.4454
  181MOL   C12443684   1.429   3.655   5.178  0.6723 -0.0235 -0.2124
  181MOL   C12543685   1.427   3.568   5.307 -0.4327  0.0330 -0.8954
  181MOL   H12643686   1.432   3.877   4.996  0.7583 -1.5182 -1.3251
  181MOL   H12743687   1.552   3.963   5.086 -1.2506  1.0670 -0.6264
  181MOL   H12843688   1.581   3.774   5.241 -0.5409 -0.6786  0.9833
  181MOL   H12943689   1.466   3.598   5.092 -0.1834 -0.4596 -0.2938
  181MOL   H13043690   1.323   3.667   5.155  0.7731  1.0275 -0.1502
  181MOL   H13143691   1.434   3.460   5.293 -4.1948 -0.1127 -2.2946
  181MOL   H13243692   1.513   3.592   5.370  0.7109 -1.2758 -1.9363
  181MOL   H13343693   1.332   3.586   5.356 -0.7221 -2.7462 -0.3536
  181MOL   C13443694   1.386   3.872   5.276  0.2260  0.0853  0.2562
  181MOL   C13543695   1.442   3.994   5.356  0.6970 -1.2031  0.4973
  181MOL   C13643696   1.518   3.943   5.480  0.1364 -0.0622 -0.2444
  181MOL   C13743697   1.621   4.041   5.534  0.0754 -0.7372  0.3521
  181MOL   H13843698   1.338   3.804   5.347  2.5930 -2.9631 -0.9669
  181MOL   H13943699   1.301   3.899   5.214 -1.0776 -1.3274  1.3898
  181MOL   H14043700   1.521   4.040   5.296  1.4042 -1.1692  1.4306
  181MOL   H14143701   1.571   3.854   5.444 -1.3028 -1.7010  1.5916
  181MOL   H14243702   1.453   3.902   5.557 -0.1389 -0.0603 -0.4779
  181MOL   H14343703   1.666   3.989   5.619 -0.0255 -1.3817  0.0155
  181MOL   H14443704   1.691   4.057   5.452 -1.4925 -0.9853 -1.0724
  181MOL   H14543705   1.586   4.141   5.559  1.9081  0.3996 -1.4202
  181MOL   C14643706   1.328   4.092   5.380 -0.1927 -0.3852 -0.1358
  181MOL   C14743707   1.284   4.179   5.251 -0.3969  0.1803  0.1266
  181MOL   C14843708   1.379   4.311   5.234 -0.1147  0.1608 -1.5212
  181MOL   C14943709   1.390   4.353   5.088 -0.1811 -0.1553 -0.1362
  181MOL   H15043710   1.358   4.169   5.452 -0.3057 -0.1414 -0.3488
  181MOL   H15143711   1.242   4.034   5.416 -0.6272  0.7052  0.6417
  181MOL   H15243712   1.289   4.120   5.160 -2.3153 -1.5843  1.1204
  181MOL   H15343713   1.482   4.290   5.263 -0.3624 -0.0461 -0.7942
  181MOL   H15443714   1.341   4.393   5.295  0.4895 -0.3663 -0.4257
  181MOL   H15543715   1.298   4.402   5.056  0.0653  0.2552 -0.2310
  181MOL   H15643716   1.464   4.432   5.077  1.1522 -1.2711  0.6855
  181MOL   H15743717   1.415   4.268   5.024 -0.6884  1.6728 -2.8548
  181MOL   C15843718   1.141   4.225   5.268  0.0991  0.0899  0.3666
  181MOL   C15943719   1.027   4.129   5.223  0.0454 -0.0163  0.3197
  181MOL   C16043720   1.050   4.048   5.088  0.4744  0.2469  0.3408
  181MOL   C16143721   1.073   4.135   4.966 -0.7965  0.3068  0.4985
  181MOL   H16243722   1.119   4.315   5.211 -0.2691 -1.2325 -1.6366
  181MOL   H16343723   1.119   4.247   5.373  0.9791  2.3219  0.1068
  181MOL   H16443724   1.026   4.052   5.301 -1.5447 -1.0619 -0.6972
  181MOL   H16543725   0.964   3.985   5.066  0.6813  0.3660 -0.8291
  181MOL   H16643726   1.126   3.973   5.107  0.4722  0.5908  1.7812
  181MOL   H16743727   1.152   4.209   4.980 -0.3546  0.0162 -0.4357
  181MOL   H16843728   1.104   4.068   4.886 -0.9851 -1.0887  1.5785
  181MOL   H16943729   0.984   4.193   4.941  0.0978  2.0055  1.1741
  181MOL   C17043730   0.883   4.199   5.222 -0.0198  0.3886  0.0861
  181MOL   C17143731   0.767   4.108   5.260  0.1393  0.2898  0.1992
  181MOL   C17243732   0.634   4.175   5.218  0.5309  0.8175  0.1250
  181MOL   C17343733   0.617   4.214   5.067 -0.9703  0.7498  0.5688
  181MOL   H17443734   0.873   4.238   5.121 -1.9372 -0.2431  0.0145
  181MOL   H17543735   0.887   4.282   5.293 -2.7753  1.9263 -1.4869
  181MOL   H17643736   0.784   4.014   5.208  0.9150  0.9821 -0.8038
  181MOL   H17743737   0.609   4.269   5.267  1.4699  2.4081 -2.3426
  181MOL   H17843738   0.561   4.102   5.255  1.2518  0.1101  0.1662
  181MOL   H17943739   0.644   4.143   4.989  2.4360  1.9715  0.5643
  181MOL   H18043740   0.509   4.225   5.058 -1.2875 -1.7888  0.8681
  181MOL   H18143741   0.662   4.310   5.044 -0.5226  0.2285 -0.7839
  181MOL   C18243742   0.771   4.095   5.409  0.1365  0.5226  0.4065
  181MOL   C18343743   0.699   3.965   5.457 -0.1728 -0.1941 -0.5827
  181MOL   C18443744   0.613   3.997   5.586 -0.3180  0.2498  0.5886
  181MOL   C18543745   0.498   3.894   5.614  0.7094  0.0569  0.4782
  181MOL   H18643746   0.743   4.185   5.464 -1.1542  1.2058 -1.3219
  181MOL   H18743747   0.873   4.096   5.447  0.4129 -2.0472 -0.1952
  181MOL   H18843748   0.625   3.931   5.385 -0.3736 -0.2277 -0.3606
  181MOL   H18943749   0.572   4.098   5.585  0.4036  0.5973  3.0288
  181MOL   H19043750   0.680   3.998   5.672 -1.0788  1.0183  1.1801
  181MOL   H19143751   0.432   3.920   5.696  0.4608 -0.5180  0.4650
  181MOL   H19243752   0.439   3.885   5.523 -0.8835 -0.3467  1.5319
  181MOL   H19343753   0.553   3.803   5.638  1.0529  0.3160  0.6677
  181MOL   C19443754   0.796   3.854   5.482  0.2473 -1.0652  0.1371
  181MOL   C19543755   0.747   3.705   5.449  0.3373  0.4557  0.6675
  181MOL   C19643756   0.854   3.603   5.509 -1.1466 -0.3267 -0.2755
  181MOL   C19743757   0.993   3.587   5.449 -0.4333  0.0389  0.1882
  181MOL   H19843758   0.823   3.866   5.587  1.5474  0.9908 -0.4017
  181MOL   H19943759   0.889   3.863   5.426 -1.0042 -1.4854 -2.0608
  181MOL   H20043760   0.651   3.696   5.499  1.1388 -0.3409  2.0931
  181MOL   H20143761   0.817   3.500   5.505 -1.7817 -0.0987 -0.3079
  181MOL   H20243762   0.884   3.622   5.612 -1.6864  1.1349 -0.3815
  181MOL   H20343763   1.037   3.687   5.457  1.4805 -0.8129  0.6039
  181MOL   H20443764   1.061   3.521   5.503  0.1916 -1.1198 -1.9516
  181MOL   H20543765   1.005   3.559   5.344  0.0017  0.8624  0.0030
  181MOL   C20643766   0.712   3.680   5.295 -0.2201  0.2548 -1.7913
  181MOL   C20743767   0.615   3.564   5.272 -0.2850  0.2382  0.6229
  181MOL   C20843768   0.628   3.505   5.133  0.4136  0.4116 -0.1593
  181MOL   C20943769   0.761   3.436   5.110  0.5114 -0.1584 -0.1594
  181MOL   H21043770   0.803   3.650   5.244  0.4092  0.4019 -0.7770
  181MOL   H21143771   0.670   3.767   5.245 -1.9511  0.9995  0.8151
  181MOL   H21243772   0.647   3.490   5.345  0.4489  0.5958  0.6659
  181MOL   H21343773   0.608   3.585   5.062  0.7095 -0.7644 -1.5936
  181MOL   H21443774   0.558   3.425   5.111  1.7199 -0.2140 -2.1221
  181MOL   H21543775   0.841   3.508   5.089  1.1137  0.6738  4.5447
  181MOL   H21643776   0.796   3.368   5.187  1.2750 -0.2383 -0.5648
  181MOL   H21743777   0.751   3.383   5.015  0.6546  1.0068 -0.8413
  181MOL   C21843778   0.471   3.612   5.294  0.2330 -0.0730  0.0535
  181MOL   C21943779   0.371   3.495   5.299 -0.4547 -0.3640  0.3935
  181MOL   C22043780   0.227   3.536   5.265  0.9162  0.0276  0.2934
  181MOL   C22143781   0.208   3.593   5.118  0.4168  0.1632 -0.5915
  181MOL   H22243782   0.447   3.679   5.212  1.3500 -0.3707 -0.5249
  181MOL   H22343783   0.471   3.681   5.378 -3.1872  0.7456 -0.5476
  181MOL   H22443784   0.399   3.424   5.221  2.8663  0.0771  1.1094
  181MOL   H22543785   0.185   3.608   5.335 -2.3089 -0.2637 -1.2575
  181MOL   H22643786   0.160   3.450   5.266  0.1753  0.5435 -1.6312
  181MOL   H22743787   0.274   3.542   5.049 -0.1767 -2.9654  1.0902
  181MOL   H22843788   0.107   3.587   5.077  0.0312 -3.7600  0.7714
  181MOL   H22943789   0.231   3.700   5.117  0.5526  0.1762  1.6889
  181MOL   C23043790   0.383   3.423   5.442  0.6744  0.2862  0.3282
  181MOL   C23143791   0.304   3.291   5.458 -0.2582  0.0588  0.0731
  181MOL   C23243792   0.298   3.230   5.603  0.7504  0.0370 -0.4152
  181MOL   C23343793   0.278   3.342   5.716 -0.4092  0.8205  0.4436
  181MOL   H23443794   0.338   3.505   5.498 -0.6174 -0.5892  0.5659
  181MOL   H23543795   0.483   3.415   5.485  1.6380  0.0499 -1.9041
  181MOL   H23643796   0.205   3.304   5.416 -0.0841  1.0827 -0.0332
  181MOL   H23743797   0.394   3.185   5.628  0.4454 -0.5359 -0.2794
  181MOL   H23843798   0.207   3.170   5.613 -1.1110  2.8861  0.3197
  181MOL   H23943799   0.189   3.403   5.702 -1.2268 -0.8369 -1.8538
  181MOL   H24043800   0.258   3.292   5.811  0.6253 -1.6318 -0.5777
  181MOL   H24143801   0.362   3.411   5.723 -0.7082  2.0434 -5.5110
  181MOL   H24243802   0.349   3.219   5.389 -1.8120  0.0705 -0.9610
  182MOL     C143803   6.986   6.879   4.095  0.9953 -0.6239 -0.3216
  182MOL     C243804   6.871   6.776   4.098 -0.1970  0.9713  0.4158
  182MOL     C343805   6.898   6.663   3.992  0.0202  0.2484 -0.1297
  182MOL     C443806   7.029   6.577   4.022  0.9184 -0.2565  0.0223
  182MOL     H543807   6.954   6.978   4.130  3.3589  0.1344 -0.2189
  182MOL     H643808   7.072   6.847   4.154 -0.5866 -2.7009  0.9312
  182MOL     H743809   6.873   6.740   4.201  1.7170  1.1433  0.4680
  182MOL     H843810   6.913   6.720   3.900 -1.0856  3.0290  1.3394
  182MOL     H943811   6.807   6.605   3.977  0.2059  0.1280 -0.7770
  182MOL    H1043812   7.123   6.627   3.998  0.3412  0.7218 -0.2399
  182MOL    H1143813   7.037   6.529   4.119 -1.7623  0.6969  0.7552
  182MOL    H1243814   7.037   6.490   3.957  1.4572 -0.2431  0.0732
  182MOL    H1343815   7.027   6.895   3.996  1.9356  0.6116  0.2445
  182MOL    C1443816   6.729   6.841   4.078  0.1067 -0.4572  0.1834
  182MOL    C1543817   6.673   6.924   4.200 -0.5372 -0.0556  0.0679
  182MOL    C1643818   6.566   6.836   4.274 -0.3712  0.7598  0.6222
  182MOL    C1743819   6.435   6.797   4.203 -0.0668  0.8646  0.1770
  182MOL    H1843820   6.668   6.753   4.058  1.8409 -1.3421 -1.4060
  182MOL    H1943821   6.728   6.891   3.981  0.2209  1.2087  1.0196
  182MOL    H2043822   6.760   6.952   4.258 -1.1709 -1.1589  1.5690
  182MOL    H2143823   6.543   6.877   4.372  2.1440 -0.5558  1.8090
  182MOL    H2243824   6.619   6.741   4.286 -0.2851  0.9137  1.4859
  182MOL    H2343825   6.371   6.883   4.183 -0.7771  0.4171  0.4969
  182MOL    H2443826   6.452   6.757   4.104 -0.8949  1.3660 -0.1762
  182MOL    H2543827   6.362   6.727   4.243 -0.4815 -0.8011 -3.3351
  182MOL    C2643828   6.610   7.059   4.174  0.1199 -0.3144  0.3493
  182MOL    C2743829   6.698   7.180   4.148 -0.7615  0.0232  0.1054
  182MOL    C2843830   6.791   7.220   4.263 -1.0733  0.1274 -0.3942
  182MOL    C2943831   6.720   7.252   4.396  0.2463  0.3659  0.4347
  182MOL    H3043832   6.552   7.077   4.265 -0.3886 -1.7832  0.3301
  182MOL    H3143833   6.526   7.041   4.107 -0.0522 -1.5699  0.8931
  182MOL    H3243834   6.772   7.159   4.071  1.0747 -0.5121  1.9893
  182MOL    H3343835   6.871   7.291   4.243  0.1699 -1.5860 -1.6945
  182MOL    H3443836   6.847   7.131   4.291 -2.0414 -0.1893  0.5528
  182MOL    H3543837   6.797   7.244   4.473  1.4193 -1.7264 -0.9065
  182MOL    H3643838   6.691   7.355   4.415  1.0320  0.3652  1.7517
  182MOL    H3743839   6.646   7.179   4.429  1.5136 -1.0514  0.2410
  182MOL    C3843840   6.610   7.288   4.090 -0.1071 -0.5404 -0.2323
  182MOL    C3943841   6.690   7.415   4.032 -0.2877 -0.2096  0.5791
  182MOL    C4043842   6.636   7.545   4.095  0.7009 -0.2858 -0.1717
  182MOL    C4143843   6.716   7.670   4.069 -0.2030 -0.7111 -0.4401
  182MOL    H4243844   6.533   7.318   4.161  0.6084  3.0247 -0.8500
  182MOL    H4343845   6.546   7.241   4.015  0.8527  0.8224 -1.9587
  182MOL    H4443846   6.791   7.410   4.072  0.2674  3.8459 -0.1429
  182MOL    H4543847   6.638   7.526   4.202  1.2709  0.0671 -0.1178
  182MOL    H4643848   6.533   7.556   4.061  1.1546  0.1367 -1.4384
  182MOL    H4743849   6.824   7.670   4.085  0.0051 -3.0233 -1.6833
  182MOL    H4843850   6.691   0.004   3.970  1.7961  1.9451  0.0566
  182MOL    H4943851   6.673   0.037   4.137  0.8143 -0.1708 -0.3696
  182MOL    C5043852   6.671   7.424   3.878 -0.1569 -0.1284 -0.2409
  182MOL    C5143853   6.759   7.319   3.800  0.1728  0.1238 -0.2728
  182MOL    C5243854   6.900   7.371   3.776  0.6256 -0.1544 -0.5254
  182MOL    C5343855   6.982   7.396   3.900  0.1925 -0.6816 -0.3221
  182MOL    H5443856   6.704   7.521   3.840 -0.1021 -0.1481 -0.2434
  182MOL    H5543857   6.565   7.416   3.853 -0.5403  0.1002  1.3051
  182MOL    H5643858   6.760   7.236   3.871 -3.6175  3.3071  3.7974
  182MOL    H5743859   6.888   7.474   3.742 -0.6871  0.0469  0.5100
  182MOL    H5843860   6.966   7.307   3.717 -0.3427 -0.4924 -1.2453
  182MOL    H5943861   6.990   7.306   3.962  0.6738  0.1264  0.8108
  182MOL    H6043862   7.085   7.405   3.867  1.0594 -2.6466  1.6972
  182MOL    H6143863   6.967   7.482   3.965  0.6647 -1.4689  0.8765
  182MOL    C6243864   6.692   7.294   3.669  0.2432 -0.7558  0.8101
  182MOL    C6343865   6.730   7.161   3.605  0.3999  0.4049  0.0993
  182MOL    C6443866   6.717   7.157   3.451  0.2663  0.2841  0.3048
  182MOL    C6543867   6.784   7.256   3.359  0.5524 -0.1898 -0.6604
  182MOL    H6643868   6.719   7.371   3.596  0.9267 -2.3753 -0.6557
  182MOL    H6743869   6.583   7.291   3.678  0.0709 -0.1402 -0.8261
  182MOL    H6843870   6.839   7.153   3.610  0.1931 -4.2095 -1.1104
  182MOL    H6943871   6.609   7.156   3.436  0.5073 -0.4323 -1.4725
  182MOL    H7043872   6.756   7.059   3.425 -2.6154 -0.8283  0.0832
  182MOL    H7143873   6.884   7.270   3.401 -0.4831  1.6716  1.2433
  182MOL    H7243874   6.804   7.208   3.262 -0.8995 -1.3717 -0.3977
  182MOL    H7343875   6.726   7.347   3.350  0.9439  0.2086  0.8443
  182MOL    C7443876   6.659   7.032   3.660 -0.0026  0.0723 -0.1244
  182MOL    C7543877   6.695   6.885   3.615 -0.1230 -0.0158 -0.0561
  182MOL    C7643878   6.604   6.783   3.693  0.5220 -0.5149 -0.0727
  182MOL    C7743879   6.459   6.775   3.644  0.4116 -0.5562  0.8271
  182MOL    H7843880   6.552   7.047   3.645  0.0535  1.2983  0.6252
  182MOL    H7943881   6.671   7.035   3.768  0.8541  2.4103 -0.2458
  182MOL    H8043882   6.663   6.868   3.512 -0.7513  1.5559 -0.1370
  182MOL    H8143883   6.602   6.791   3.801  0.0493 -0.4806 -0.0802
  182MOL    H8243884   6.647   6.685   3.675  1.9059 -0.0285  0.5506
  182MOL    H8343885   6.464   6.765   3.535 -0.5301 -0.4229  0.7684
  182MOL    H8443886   6.417   6.679   3.677 -2.4618 -0.3504 -1.9243
  182MOL    H8543887   6.414   6.864   3.686 -1.6071 -1.9369  1.6880
  182MOL    C8643888   6.841   6.849   3.627  0.7436 -1.2881 -0.7584
  182MOL    C8743889   6.943   6.854   3.506  0.3108 -0.5840  0.1170
  182MOL    C8843890   6.892   6.775   3.373 -0.0108 -0.3686 -0.1358
  182MOL    C8943891   6.983   6.806   3.256 -0.0089 -0.1279  0.2312
  182MOL    H9043892   6.844   6.746   3.664  0.1727 -0.8028  0.6799
  182MOL    H9143893   6.887   6.908   3.707  0.4955 -1.3598 -0.5619
  182MOL    H9243894   6.953   6.957   3.473  0.5841 -0.4737  0.5386
  182MOL    H9343895   6.788   6.792   3.347 -0.2472 -1.3110  0.1905
  182MOL    H9443896   6.916   6.671   3.393 -1.2381 -0.5627  0.3655
  182MOL    H9543897   6.961   6.902   3.208  0.3671  0.1667  0.6504
  182MOL    H9643898   7.088   6.822   3.281 -0.6560 -0.1153  3.1122
  182MOL    H9743899   6.985   6.726   3.182  0.2047 -0.9454  1.1176
  182MOL    C9843900   7.090   6.822   3.545 -0.9204 -0.1737  0.2357
  182MOL    C9943901   7.157   6.882   3.675  0.4807  0.0992  0.1973
  182MOL   C10043902   7.153   7.036   3.676  0.2339  0.1046  0.0872
  182MOL   C10143903   7.245   7.112   3.580  0.3944  0.3152  0.3778
  182MOL   H10243904   7.160   6.842   3.464 -1.0122  0.1036  0.2254
  182MOL   H10343905   7.102   6.713   3.548  1.0103  0.0399  1.3220
  182MOL   H10443906   7.080   6.860   3.748  1.8047 -0.2978  1.4947
  182MOL   H10543907   7.183   7.084   3.770  1.4713  0.0392 -0.2625
  182MOL   H10643908   7.056   7.079   3.655 -0.1358 -0.5946  0.3412
  182MOL   H10743909   7.348   7.085   3.604 -0.1019 -1.5015  0.5497
  182MOL   H10843910   7.233   7.084   3.476  0.1276  2.5108 -0.1950
  182MOL   H10943911   7.228   7.218   3.595  1.3399  0.3037  1.6672
  182MOL   C11043912   7.292   6.824   3.713  0.0357  0.4831  0.2258
  182MOL   C11143913   7.295   6.672   3.751  0.5866  0.1643 -0.0032
  182MOL   C11243914   7.380   6.646   3.875 -0.0355 -0.1448  0.2471
  182MOL   C11343915   7.534   6.663   3.859  0.3369 -0.1530  0.7906
  182MOL   H11443916   7.322   6.878   3.802 -0.0178 -0.3818  0.7697
  182MOL   H11543917   7.376   6.836   3.644 -0.5304 -1.1202 -0.7834
  182MOL   H11643918   7.194   6.649   3.782  0.3319  0.5730 -0.5238
  182MOL   H11743919   7.360   6.547   3.915 -0.3374 -0.6316 -1.1107
  182MOL   H11843920   7.348   6.711   3.957  1.7599 -0.3883  1.1735
  182MOL   H11943921   7.574   6.573   3.813  3.1974  0.6575  1.6087
  182MOL   H12043922   7.563   6.746   3.795 -0.1390  0.5766  1.5190
  182MOL   H12143923   7.584   6.673   3.955 -0.4804 -0.2603  1.2301
  182MOL   C12243924   7.336   6.582   3.628  0.9240 -0.6421 -0.4203
  182MOL   C12343925   7.302   6.430   3.650 -0.1728  0.6909  0.0606
  182MOL   C12443926   7.395   6.342   3.558  0.3433 -0.7592 -1.1169
  182MOL   C12543927   7.394   6.376   3.410 -0.1399  0.0167  0.1977
  182MOL   H12643928   7.443   6.598   3.618  0.4637  2.4359 -0.8850
  182MOL   H12743929   7.296   6.628   3.538 -0.3027 -0.8711 -0.0047
  182MOL   H12843930   7.327   6.405   3.753  0.6327  0.3291 -0.2213
  182MOL   H12943931   7.362   6.239   3.565 -0.9640 -0.2714 -0.0272
  182MOL   H13043932   7.494   6.348   3.603 -0.1047 -0.3604 -0.1655
  182MOL   H13143933   7.401   6.484   3.390 -1.1995 -0.0853 -0.8105
  182MOL   H13243934   7.480   6.326   3.365 -0.8675  1.4858 -2.9683
  182MOL   H13343935   7.301   6.352   3.358 -1.8070  2.4518  1.9275
  182MOL   C13443936   7.148   6.402   3.619 -0.1709 -0.0058  0.0153
  182MOL   C13543937   7.090   6.253   3.623 -0.2594 -0.3451  0.3458
  182MOL   C13643938   6.961   6.261   3.538 -0.2709  0.2496  0.1922
  182MOL   C13743939   6.983   6.278   3.385  0.6758 -0.2850 -0.0186
  182MOL   H13843940   7.125   6.452   3.525  0.6198 -0.2369 -0.3080
  182MOL   H13943941   7.086   6.460   3.687  0.3574 -0.6310  1.0366
  182MOL   H14043942   7.161   6.189   3.571 -0.4094  0.4308 -0.8346
  182MOL   H14143943   6.896   6.337   3.582 -0.6081  0.0199  0.0997
  182MOL   H14243944   6.902   6.169   3.541 -1.3265  0.8180 -1.8452
  182MOL   H14343945   6.978   6.190   3.321 -0.1055 -0.1507 -0.1575
  182MOL   H14443946   6.905   6.347   3.352 -0.2974 -0.0462  2.7314
  182MOL   H14543947   7.075   6.330   3.359  1.0338 -1.4762 -1.2254
  182MOL   C14643948   7.060   6.194   3.764 -1.0956  0.5609 -0.2431
  182MOL   C14743949   7.179   6.121   3.840 -0.5231 -0.1239  0.2341
  182MOL   C14843950   7.233   5.995   3.770  0.4825 -0.0669  0.1034
  182MOL   C14943951   7.374   5.952   3.813  0.6693 -0.0176  0.7344
  182MOL   H15043952   6.970   6.134   3.771 -1.9030  1.5569 -1.8258
  182MOL   H15143953   7.028   6.275   3.830 -1.0351 -0.0123  0.4949
  182MOL   H15243954   7.266   6.187   3.834  0.0164 -0.6170  2.3183
  182MOL   H15343955   7.238   6.014   3.663  0.7263 -0.9971 -0.0487
  182MOL   H15443956   7.167   5.909   3.781  1.4966 -0.9892 -0.8740
  182MOL   H15543957   7.445   6.032   3.791 -1.1981  0.7442 -2.9298
  182MOL   H15643958   7.382   5.925   3.918 -1.8480  1.2373  1.2848
  182MOL   H15743959   7.396   5.859   3.760  0.1462 -0.1686  0.7763
  182MOL   C15843960   7.140   6.080   3.984 -0.2268 -0.1169 -0.2058
  182MOL   C15943961   7.124   6.180   4.102  0.7111 -0.6002  0.6045
  182MOL   C16043962   7.240   6.283   4.083  0.3718 -0.3666 -0.3809
  182MOL   C16143963   7.390   6.234   4.095  0.6586  0.0103  0.2937
  182MOL   H16243964   7.219   6.013   4.018  1.1027  0.0896 -2.8064
  182MOL   H16343965   7.055   6.013   3.990 -0.4667  0.2567  0.6131
  182MOL   H16443966   7.033   6.240   4.098  1.4677  0.6917  2.2501
  182MOL   H16543967   7.217   6.355   4.162  1.5758  1.6364 -1.8026
  182MOL   H16643968   7.222   6.344   3.994 -2.0720  1.1603  1.0873
  182MOL   H16743969   7.408   6.175   4.185 -1.9928  0.3021  1.0380
  182MOL   H16843970   7.401   6.160   4.016 -0.6134 -0.1407  0.2481
  182MOL   H16943971   7.464   6.314   4.100  1.8554 -0.9116 -1.9981
  182MOL   C17043972   7.139   6.110   4.241 -0.1492  0.0484 -0.9154
  182MOL   C17143973   7.019   6.025   4.292 -0.3886  0.7762  0.2243
  182MOL   C17243974   6.885   6.102   4.294 -0.5686  0.1061  0.2313
  182MOL   C17343975   6.758   6.012   4.289  0.8407 -0.0266 -0.5933
  182MOL   H17443976   7.154   6.182   4.321 -0.6673  0.0408 -0.8130
  182MOL   H17543977   7.228   6.048   4.250 -0.4749 -0.1535  1.1850
  182MOL   H17643978   7.007   5.952   4.212 -0.7818 -1.9924  2.7225
  182MOL   H17743979   6.874   6.173   4.211 -3.6185 -2.0601 -1.3165
  182MOL   H17843980   6.881   6.163   4.384  1.8276  0.5430  0.0753
  182MOL   H17943981   6.754   5.929   4.219 -0.7493 -0.6391  0.2036
  182MOL   H18043982   6.758   5.978   4.393  2.1017  0.8078 -0.3089
  182MOL   H18143983   6.664   6.066   4.276  0.5120 -0.4143  0.1333
  182MOL   C18243984   7.043   5.943   4.416  0.4425 -0.4957  0.2581
  182MOL   C18343985   6.997   5.799   4.412  0.4246 -0.0185 -0.1325
  182MOL   C18443986   6.953   5.744   4.550 -0.0238 -0.2861 -0.3254
  182MOL   C18543987   6.824   5.804   4.619 -0.1940 -0.3688 -0.2375
  182MOL   H18643988   6.997   5.987   4.505 -0.9212  0.6260 -0.9680
  182MOL   H18743989   7.150   5.938   4.434  0.4942  0.2414  0.1529
  182MOL   H18843990   6.907   5.796   4.350  0.2842  0.2806  0.0560
  182MOL   H18943991   7.042   5.743   4.612  0.0242 -0.9794 -0.4017
  182MOL   H19043992   6.923   5.639   4.552 -2.2480  0.3447  2.3490
  182MOL   H19143993   6.834   5.907   4.654  1.5948 -0.6970  0.2399
  182MOL   H19243994   6.742   5.806   4.547  0.9857 -2.9967 -1.7338
  182MOL   H19343995   6.790   5.738   4.698 -0.4772  0.0040 -0.0468
  182MOL   C19443996   7.101   5.699   4.348  0.1521 -0.4704 -0.1620
  182MOL   C19543997   7.111   5.701   4.195 -0.0937  0.0903  1.0224
  182MOL   C19643998   6.978   5.675   4.119 -0.0299  0.0384 -0.2333
  182MOL   C19743999   6.912   5.540   4.165 -0.0541  0.1481 -0.5051
  182MOL   H19844000   7.068   5.603   4.387 -1.5744 -0.0170 -0.4871
  182MOL   H19944001   7.199   5.709   4.395  0.3517  1.1003 -0.8799
  182MOL   H20044002   7.145   5.796   4.152 -1.3930 -0.0495 -0.3511
  182MOL   H20144003   6.988   5.672   4.010  0.2908 -3.9393 -0.1901
  182MOL   H20244004   6.909   5.756   4.139  0.3935  0.4555 -0.4426
  182MOL   H20344005   6.969   5.453   4.132  0.1197  0.1871 -0.3057
  182MOL   H20444006   6.885   5.521   4.269 -0.5360 -0.4643 -0.7372
  182MOL   H20544007   6.818   5.524   4.112 -0.2675 -1.5637  0.3503
  182MOL   C20644008   7.223   5.601   4.151  0.3087 -0.0681 -0.4666
  182MOL   C20744009   7.358   5.604   4.228 -0.0709  0.6932 -0.4645
  182MOL   C20844010   7.417   5.743   4.214 -0.4098 -0.1905 -1.2526
  182MOL   C20944011   7.539   5.769   4.306  0.7576  0.2462 -0.1157
  182MOL   H21044012   7.228   5.625   4.044 -2.7690  1.6416 -0.3081
  182MOL   H21144013   7.185   5.499   4.148  0.0965  0.0310 -2.0662
  182MOL   H21244014   7.338   5.569   4.329  2.7640  1.8061  0.5331
  182MOL   H21344015   7.346   5.808   4.265  1.5110  0.7814  0.2545
  182MOL   H21444016   7.431   5.769   4.109 -0.5805  0.1831 -1.1819
  182MOL   H21544017   7.628   5.712   4.282 -2.0088 -3.7893 -1.4440
  182MOL   H21644018   7.575   5.872   4.304 -0.8573  0.8406  0.6219
  182MOL   H21744019   7.515   5.733   4.406 -1.5375 -0.2020 -0.7955
  182MOL   C21844020   7.446   5.503   4.152  0.2799  0.1690  0.6222
  182MOL   C21944021   7.425   5.357   4.193 -0.0021 -0.2035  0.0501
  182MOL   C22044022   7.436   5.317   4.345  0.6149 -0.2829  0.3799
  182MOL   C22144023   7.579   5.325   4.399 -0.6202 -0.3333  0.4839
  182MOL   H22244024   7.552   5.531   4.155  0.4830 -0.4034 -0.8581
  182MOL   H22344025   7.425   5.510   4.046  3.1877 -0.5644 -0.0607
  182MOL   H22444026   7.322   5.334   4.169 -0.0568 -0.6623  0.7234
  182MOL   H22544027   7.387   5.222   4.367  0.1049 -0.5671 -1.8832
  182MOL   H22644028   7.372   5.388   4.398  1.5457 -0.1307  1.3042
  182MOL   H22744029   7.644   5.255   4.346  0.1120  1.7887 -1.4940
  182MOL   H22844030   7.616   5.427   4.389 -2.9828  0.4994 -0.1963
  182MOL   H22944031   7.591   5.289   4.501 -0.7932 -0.1819  0.5579
  182MOL   C23044032   7.517   5.264   4.110  0.1381 -0.1860  0.4686
  182MOL   C23144033   7.470   5.248   3.969  0.7804 -0.7732 -0.0732
  182MOL   C23244034   7.550   5.146   3.884 -0.0751  0.1743 -0.0160
  182MOL   C23344035   7.474   5.115   3.753 -0.3034 -0.1505 -0.2525
  182MOL   H23444036   7.508   5.169   4.162 -1.8498 -1.2174 -1.6756
  182MOL   H23544037   7.621   5.296   4.106  0.3783 -1.1547 -2.0465
  182MOL   H23644038   7.368   5.211   3.972 -0.2391  1.9656  0.3557
  182MOL   H23744039   7.568   5.050   3.930 -1.4454  0.2577  0.7289
  182MOL   H23844040   7.645   5.194   3.860  1.1034 -0.7313  2.6760
  182MOL   H23944041   7.538   5.100   3.667  1.0095 -1.8446  0.9849
  182MOL   H24044042   7.405   5.032   3.764 -1.1467  0.4923 -0.6179
  182MOL   H24144043   7.408   5.198   3.725 -0.2001 -0.1279 -0.4304
  182MOL   H24244044   7.482   5.345   3.920 -1.4410  0.1094  1.0432
  183MOL     C144045   1.981   6.455   5.724 -0.5732 -0.9232  0.0275
  183MOL     C244046   1.933   6.582   5.631 -0.2682  0.1552  0.7682
  183MOL     C344047   2.044   6.651   5.564 -0.2929  0.2491  0.2908
  183MOL     C444048   2.123   6.750   5.649 -0.5511  0.1108  0.6035
  183MOL     H544049   2.058   6.394   5.677  0.9573  1.6461 -0.9382
  183MOL     H644050   2.026   6.502   5.811  1.8302 -0.7960 -1.2521
  183MOL     H744051   1.863   6.535   5.562 -2.4187  2.2402  1.4293
  183MOL     H844052   2.010   6.715   5.483  0.5190  2.0505  1.3443
  183MOL     H944053   2.108   6.571   5.525 -0.5443 -0.6205  1.6302
  183MOL    H1044054   2.059   6.838   5.644 -3.3365 -1.8369  0.8785
  183MOL    H1144055   2.124   6.721   5.754  0.8307  0.6936  0.7642
  183MOL    H1244056   2.222   6.777   5.613 -0.3813 -0.3321  0.7355
  183MOL    H1344057   1.894   6.393   5.746 -0.3491 -0.7886  1.3093
  183MOL    C1444058   1.846   6.677   5.718  0.5058  0.0395 -0.3384
  183MOL    C1544059   1.701   6.626   5.767 -0.3349  0.0048 -0.0583
  183MOL    C1644060   1.596   6.644   5.650 -0.3469  0.4212  0.3994
  183MOL    C1744061   1.457   6.585   5.682 -0.3174 -0.3747 -0.1426
  183MOL    H1844062   1.820   6.767   5.662 -2.3430 -1.0496 -0.8771
  183MOL    H1944063   1.899   6.707   5.808  0.4725  0.7153 -0.5436
  183MOL    H2044064   1.706   6.518   5.776 -0.8826 -0.0957 -0.9693
  183MOL    H2144065   1.634   6.593   5.562  0.9572  0.4282  0.9549
  183MOL    H2244066   1.597   6.749   5.621 -2.9211  0.3564 -0.0705
  183MOL    H2344067   1.376   6.650   5.647  0.7631  1.0663 -0.0405
  183MOL    H2444068   1.454   6.490   5.628 -3.1673  0.8051 -2.2119
  183MOL    H2544069   1.443   6.564   5.788 -0.7491  2.5580  0.4215
  183MOL    C2644070   1.664   6.700   5.896 -0.0834  0.7006 -0.0530
  183MOL    C2744071   1.725   6.652   6.027  0.1163 -1.2021 -0.5104
  183MOL    C2844072   1.686   6.514   6.062 -0.1087  0.7712 -0.2247
  183MOL    C2944073   1.803   6.427   6.115  0.4171  0.1500  0.2572
  183MOL    H3044074   1.555   6.693   5.906 -0.0628 -0.7852 -0.6812
  183MOL    H3144075   1.693   6.803   5.880  0.2084  0.8336  1.2644
  183MOL    H3244076   1.833   6.655   6.012  0.0978 -0.8455 -0.5617
  183MOL    H3344077   1.632   6.463   5.983  0.1977 -1.2099  0.8124
  183MOL    H3444078   1.609   6.518   6.140  1.1098  0.8183  1.0097
  183MOL    H3544079   1.853   6.468   6.203  1.6527  0.9773 -0.8010
  183MOL    H3644080   1.762   6.329   6.139  0.0392  0.4753  0.9679
  183MOL    H3744081   1.884   6.408   6.045 -0.9166  0.5907 -1.4254
  183MOL    C3844082   1.683   6.751   6.135 -0.5234  1.0327  0.1809
  183MOL    C3944083   1.746   6.737   6.280 -0.1852 -0.0127 -0.1509
  183MOL    C4044084   1.669   6.827   6.381 -0.0777  0.1137  0.0830
  183MOL    C4144085   1.696   6.971   6.358  0.1862 -0.6385  0.2288
  183MOL    H4244086   1.574   6.758   6.129 -0.5031 -0.7731 -3.9002
  183MOL    H4344087   1.715   6.851   6.104  1.0158  0.6227  0.4158
  183MOL    H4444088   1.716   6.636   6.309 -0.7341  0.1338 -0.2039
  183MOL    H4544089   1.714   6.805   6.478 -0.1471 -0.6036 -0.0455
  183MOL    H4644090   1.566   6.795   6.369  0.4022 -0.4866 -2.9405
  183MOL    H4744091   1.658   7.011   6.265  2.2675  1.3769  0.1990
  183MOL    H4844092   1.640   7.030   6.431  1.2925  0.4643  0.2063
  183MOL    H4944093   1.802   6.996   6.364  0.2269 -0.8095  0.2421
  183MOL    C5044094   1.905   6.739   6.286 -0.3533 -0.1075  0.2201
  183MOL    C5144095   1.979   6.704   6.415  0.2950  0.5062  0.0817
  183MOL    C5244096   2.132   6.719   6.386 -0.8546 -1.0299  0.6877
  183MOL    C5344097   2.244   6.671   6.487  0.2769 -0.8372  0.3489
  183MOL    H5444098   1.931   6.841   6.257  2.4451 -0.9144 -0.2901
  183MOL    H5544099   1.937   6.665   6.213  1.2923  1.0004 -0.2163
  183MOL    H5644100   1.953   6.784   6.484 -2.6952 -0.5913  0.2885
  183MOL    H5744101   2.158   6.819   6.353  0.8741 -0.9315  2.2828
  183MOL    H5844102   2.155   6.677   6.288 -1.4869 -0.6919  0.3904
  183MOL    H5944103   2.337   6.683   6.432 -0.4695  0.6339 -0.6260
  183MOL    H6044104   2.257   6.735   6.575  1.8480 -0.7437  0.0638
  183MOL    H6144105   2.233   6.571   6.530 -0.3035 -0.6521  0.6380
  183MOL    C6244106   1.935   6.574   6.479  0.0863  0.4926 -0.4587
  183MOL    C6344107   1.975   6.561   6.636 -0.3110  0.7829  0.0991
  183MOL    C6444108   2.003   6.414   6.683 -0.3830 -0.0553 -0.2326
  183MOL    C6544109   1.881   6.319   6.661 -0.2790  0.8371  0.4008
  183MOL    H6644110   1.984   6.489   6.432  1.5416 -0.5644  2.8547
  183MOL    H6744111   1.828   6.558   6.474  0.2142 -0.9315  0.9998
  183MOL    H6844112   2.068   6.617   6.650 -0.2832  0.1363  2.7054
  183MOL    H6944113   2.062   6.397   6.773  0.3934 -1.6906 -1.0141
  183MOL    H7044114   2.089   6.381   6.623  1.7480  1.0593  2.1341
  183MOL    H7144115   1.915   6.222   6.699 -0.7168 -0.0218 -1.3340
  183MOL    H7244116   1.806   6.349   6.734 -0.9097  1.4310 -0.4902
  183MOL    H7344117   1.841   6.312   6.560 -2.0060  2.6627  0.9309
  183MOL    C7444118   1.861   6.622   6.717 -0.1952 -0.3787 -0.6445
  183MOL    C7544119   1.900   6.647   6.865  0.5459 -0.6321  0.4083
  183MOL    C7644120   1.775   6.665   6.955 -0.3463  0.0108  0.0585
  183MOL    C7744121   1.679   6.775   6.915  0.0778 -0.0648 -0.0391
  183MOL    H7844122   1.775   6.558   6.697 -0.6022 -0.0168 -0.0395
  183MOL    H7944123   1.824   6.714   6.672 -0.9606  0.2331  1.2021
  183MOL    H8044124   1.950   6.557   6.901  4.4693  1.2452 -0.1216
  183MOL    H8144125   1.807   6.692   7.056 -0.6546 -0.6055  0.3278
  183MOL    H8244126   1.706   6.580   6.953 -1.4683  0.7581  3.4288
  183MOL    H8344127   1.644   6.767   6.812  1.6999  2.9625 -0.8658
  183MOL    H8444128   1.588   6.768   6.975 -0.2641 -1.0317 -0.6495
  183MOL    H8544129   1.714   6.877   6.928  1.0272 -0.5630  1.3624
  183MOL    C8644130   1.990   6.767   6.880 -0.4674  0.7617 -0.1841
  183MOL    C8744131   2.108   6.743   6.979  0.1420 -0.4483 -0.1595
  183MOL    C8844132   2.162   6.880   7.037  0.3353  0.4887  0.7387
  183MOL    C8944133   2.067   6.927   7.152 -0.1744 -0.0345 -0.2296
  183MOL    H9044134   1.934   6.851   6.922 -1.5010  0.6564 -1.3288
  183MOL    H9144135   2.029   6.792   6.781 -1.3134 -1.6383 -1.1601
  183MOL    H9244136   2.060   6.699   7.067  3.0825 -0.4615  1.5036
  183MOL    H9344137   2.184   6.956   6.962  0.4546  1.0132  1.2935
  183MOL    H9444138   2.263   6.871   7.076  0.7947  3.2241  0.2767
  183MOL    H9544139   2.114   7.015   7.197  1.2254 -2.1744  2.6178
  183MOL    H9644140   1.977   6.972   7.110 -0.1564 -0.5757 -0.8390
  183MOL    H9744141   2.054   6.867   7.242  0.3846 -0.2525 -0.2920
  183MOL    C9844142   2.225   6.656   6.919  0.7953  0.9508  0.4875
  183MOL    C9944143   2.252   6.527   7.006 -0.3117  0.6202  0.1589
  183MOL   C10044144   2.321   6.571   7.144 -0.1650 -0.2418 -0.6418
  183MOL   C10144145   2.249   6.486   7.254  0.0831  0.0024  0.3769
  183MOL   H10244146   2.323   6.702   6.903  0.5140  0.9122 -1.4008
  183MOL   H10344147   2.200   6.614   6.822  3.9470 -2.4199  1.0332
  183MOL   H10444148   2.154   6.487   7.033 -0.6599  0.4226 -1.3734
  183MOL   H10544149   2.295   6.677   7.156 -0.3010 -0.1157 -1.9557
  183MOL   H10644150   2.430   6.571   7.140 -0.1503  2.0803 -1.1108
  183MOL   H10744151   2.324   6.487   7.332  2.6389 -0.6399 -1.9846
  183MOL   H10844152   2.166   6.549   7.286  0.6297  1.9589 -1.8362
  183MOL   H10944153   2.229   6.380   7.236  2.0543 -0.4796  0.9710
  183MOL   C11044154   2.335   6.428   6.930 -0.1726  0.1002 -0.3474
  183MOL   C11144155   2.347   6.282   6.993  0.6124 -0.0107  0.1663
  183MOL   C11244156   2.456   6.206   6.921  0.5501 -0.3824  0.4010
  183MOL   C11344157   2.446   6.190   6.770 -0.2067 -0.0814 -0.3870
  183MOL   H11444158   2.437   6.464   6.921 -0.1597  0.0784 -0.2787
  183MOL   H11544159   2.302   6.416   6.827  2.0719 -0.4136 -1.0453
  183MOL   H11644160   2.373   6.290   7.098  0.2196  0.3712  0.2380
  183MOL   H11744161   2.467   6.103   6.954  3.7354  0.3779  1.9039
  183MOL   H11844162   2.551   6.251   6.948  0.8860 -1.8802  1.7509
  183MOL   H11944163   2.441   6.284   6.715  0.9517  1.6524  2.4051
  183MOL   H12044164   2.522   6.118   6.740 -0.9494 -0.1415 -2.1910
  183MOL   H12144165   2.354   6.135   6.747 -0.6888  0.5241  0.0798
  183MOL   C12244166   2.208   6.213   6.977 -0.5450 -0.1723  0.1100
  183MOL   C12344167   2.193   6.064   7.021  0.0655  0.1739  0.4415
  183MOL   C12444168   2.050   6.005   6.967 -0.7155 -0.8586 -0.8319
  183MOL   C12544169   2.047   5.960   6.823 -0.1768  0.0987  0.2419
  183MOL   H12644170   2.184   6.214   6.871  2.5474  0.5232 -0.6395
  183MOL   H12744171   2.136   6.263   7.042  3.5686  0.8888  4.1701
  183MOL   H12844172   2.274   6.001   6.985  0.9835  0.0908  2.5454
  183MOL   H12944173   1.960   6.063   6.984 -0.5807 -1.2767  1.4376
  183MOL   H13044174   2.032   5.915   7.026  0.9776 -1.9200 -1.8917
  183MOL   H13144175   2.108   5.872   6.803  0.9431  1.1749 -1.1853
  183MOL   H13244176   1.945   5.923   6.807  1.3074 -3.7429 -0.9233
  183MOL   H13344177   2.061   6.032   6.743 -0.0545  0.0674  0.2363
  183MOL   C13444178   2.222   6.053   7.180 -0.4270  0.0522  0.0988
  183MOL   C13544179   2.365   6.010   7.223  0.1431  0.0092 -0.5053
  183MOL   C13644180   2.382   5.855   7.202 -0.1494  0.5810  0.8846
  183MOL   C13744181   2.521   5.787   7.237  0.4810 -0.4940  0.2672
  183MOL   H13844182   2.149   5.978   7.212 -1.8524  1.1807 -0.4675
  183MOL   H13944183   2.187   6.141   7.234 -2.7978 -0.7838 -0.0246
  183MOL   H14044184   2.432   6.068   7.160  0.1519  1.5391  0.8693
  183MOL   H14144185   2.350   5.828   7.101  1.0477  1.8527  0.1519
  183MOL   H14244186   2.310   5.806   7.268 -0.4352  2.0187  1.6405
  183MOL   H14344187   2.552   5.806   7.340  0.2035  0.7403  0.1261
  183MOL   H14444188   2.539   5.682   7.216 -0.3437 -0.8204  1.1600
  183MOL   H14544189   2.602   5.832   7.178  1.3350  0.0972  1.8521
  183MOL   C14644190   2.382   6.044   7.375  0.1510 -0.0508 -0.6867
  183MOL   C14744191   2.437   6.178   7.403  0.4177  0.0684  0.1048
  183MOL   C14844192   2.580   6.195   7.352 -0.1412 -0.1490  0.2948
  183MOL   C14944193   2.618   6.341   7.318  0.5409  0.0312 -0.9362
  183MOL   H15044194   2.426   5.961   7.430 -0.1998 -0.1455 -0.5447
  183MOL   H15144195   2.285   6.034   7.424 -0.1955 -0.3034 -1.4055
  183MOL   H15244196   2.374   6.240   7.339  2.1380 -0.4187 -2.1274
  183MOL   H15344197   2.604   6.138   7.262  0.6715  1.1664 -0.3395
  183MOL   H15444198   2.655   6.160   7.423 -0.6992  0.5254  1.2192
  183MOL   H15544199   2.539   6.398   7.269 -0.5987 -2.8766 -2.6023
  183MOL   H15644200   2.650   6.391   7.409  1.3797  1.9872 -2.2852
  183MOL   H15744201   2.701   6.343   7.248  0.7642  1.4884 -0.6462
  183MOL   C15844202   2.419   6.214   7.547 -0.2573  0.4541  0.0226
  183MOL   C15944203   2.299   6.306   7.587  0.7140  0.7801 -0.3008
  183MOL   C16044204   2.322   6.380   0.016  0.2626 -0.5693  0.8141
  183MOL   C16144205   2.290   6.288   0.136  0.2521  0.4101  0.2086
  183MOL   H16244206   2.514   6.258   7.577  0.7587 -1.1751 -0.7237
  183MOL   H16344207   2.414   6.122   7.606 -1.3819  0.3879 -0.1594
  183MOL   H16444208   2.307   6.390   7.518  2.0063 -0.3855 -1.6118
  183MOL   H16544209   2.261   6.469   0.030  2.4393  1.1893 -0.4926
  183MOL   H16644210   2.423   6.420   0.023  0.5029 -1.1079  0.5136
  183MOL   H16744211   2.341   6.191   0.127  0.4565  0.2189  3.1079
  183MOL   H16844212   2.329   6.332   0.228  0.1529  1.5904 -0.3093
  183MOL   H16944213   2.184   6.264   0.140  0.4888 -0.5255  1.0509
  183MOL   C17044214   2.158   6.243   7.577 -0.8209  0.3033  1.1000
  183MOL   C17144215   2.037   6.339   7.622  0.0733 -0.1114  0.6797
  183MOL   C17244216   1.902   6.261   7.613 -0.1319 -1.0438 -0.1741
  183MOL   C17344217   1.903   6.149   0.018 -0.2860 -0.3400  0.0054
  183MOL   H17444218   2.169   6.153   7.638 -1.8958  0.6994  1.9096
  183MOL   H17544219   2.141   6.211   7.475 -0.3865 -0.0003  1.1208
  183MOL   H17644220   2.052   6.385   0.013  2.0875 -0.1308  0.4020
  183MOL   H17744221   1.881   6.211   7.519  0.5156 -0.8399 -0.4312
  183MOL   H17844222   1.812   6.320   7.626  2.0531  2.1240  1.3207
  183MOL   H17944223   1.972   6.067   7.701 -0.2384 -0.5134  0.7520
  183MOL   H18044224   1.937   6.198   0.109  0.8569  0.6571 -0.9381
  183MOL   H18144225   1.805   6.108   0.042 -0.1803 -1.9677 -2.2179
  183MOL   C18244226   2.026   6.465   7.522 -0.7551  0.1676  0.4407
  183MOL   C18344227   1.918   6.572   7.549 -0.1448 -0.0649  0.4805
  183MOL   C18444228   1.938   6.677   7.432 -0.3487  0.5154  0.2664
  183MOL   C18544229   1.812   6.763   7.405 -0.8184  0.4502 -0.1178
  183MOL   H18644230   2.020   6.418   7.424  1.6848  4.0689 -1.7104
  183MOL   H18744231   2.124   6.514   7.523 -0.4871 -0.3606  1.8126
  183MOL   H18844232   1.821   6.526   7.532 -0.5552  0.5893  1.0354
  183MOL   H18944233   1.970   6.627   7.340  1.6423 -0.3428  1.4058
  183MOL   H19044234   2.027   6.740   7.439  2.2446 -3.1666  1.3325
  183MOL   H19144235   1.825   6.806   7.306 -0.2428 -2.2598 -1.2545
  183MOL   H19244236   1.722   6.702   7.409  0.0252 -0.7570  1.0120
  183MOL   H19344237   1.812   6.850   7.470 -0.9155 -0.0701  0.5869
  183MOL   C19444238   1.927   6.631   7.694  0.7547 -0.2744  0.8039
  183MOL   C19544239   1.807   6.707   0.048 -0.6388  0.0245  0.0923
  183MOL   C19644240   1.852   6.773   0.184  0.5768 -0.0551 -0.0841
  183MOL   C19744241   1.886   6.673   0.298  0.9906 -0.0690  0.0636
  183MOL   H19844242   2.014   6.697   7.694  0.4001  0.1930  1.2016
  183MOL   H19944243   1.972   6.559   0.056  0.9009 -1.6792 -0.7284
  183MOL   H20044244   1.777   6.779   7.678  2.3631  1.4071  0.1476
  183MOL   H20144245   1.772   6.836   0.222  0.4015  1.6515 -3.1839
  183MOL   H20244246   1.932   6.846   0.166  0.3944 -0.0731 -0.9951
  183MOL   H20344247   1.817   6.589   0.306 -0.4591  0.8909 -2.0175
  183MOL   H20444248   1.978   6.623   0.265  0.7884 -0.8809  0.7119
  183MOL   H20544249   1.910   6.719   0.394 -0.3911 -0.0814  0.4286
  183MOL   C20644250   1.689   6.609   0.071 -0.3214  0.2819 -0.0559
  183MOL   C20744251   1.548   6.671   0.107 -0.2707  0.0566 -0.2379
  183MOL   C20844252   1.461   6.561   0.171 -0.0002 -0.6556  0.6903
  183MOL   C20944253   1.449   6.440   0.084 -1.1171 -0.1598 -0.0818
  183MOL   H21044254   1.710   6.538   0.151 -1.0698  0.2642  0.1278
  183MOL   H21144255   1.681   6.543   7.691  0.0894 -1.8407  1.5174
  183MOL   H21244256   1.556   6.748   0.184 -4.3764  0.4939 -0.1470
  183MOL   H21344257   1.360   6.594   0.196  0.2607 -0.8520  2.0718
  183MOL   H21444258   1.511   6.535   0.264  1.6731 -0.2881 -0.0922
  183MOL   H21544259   1.548   6.394   0.079 -0.6814  0.4831  2.1354
  183MOL   H21644260   1.381   6.360   0.111  0.0800 -0.9216  0.7529
  183MOL   H21744261   1.417   6.471   7.691  1.5011  0.4196 -0.7998
  183MOL   C21844262   1.494   6.744   7.691  0.8760  0.3032  0.4596
  183MOL   C21944263   1.354   6.798   7.687 -0.6959 -0.2621  0.0110
  183MOL   C22044264   1.309   6.835   7.547 -0.7632  0.4773 -0.1045
  183MOL   C22144265   1.381   6.958   7.482 -0.0757 -0.3652  0.2983
  183MOL   H22244266   1.501   6.669   7.612 -1.0905  1.0693 -0.4901
  183MOL   H22344267   1.566   6.819   7.660  1.0467 -0.5653 -1.3393
  183MOL   H22444268   1.294   6.711   0.008 -2.9371  1.1113 -0.4322
  183MOL   H22544269   1.200   6.839   7.541 -0.7266  0.2103 -1.0893
  183MOL   H22644270   1.333   6.750   7.483 -0.2753  2.2933 -2.3996
  183MOL   H22744271   1.396   7.049   7.540 -1.2417  0.2062 -0.2726
  183MOL   H22844272   1.475   6.924   7.440 -0.0727  2.4016 -2.1882
  183MOL   H22944273   1.329   6.987   7.390 -0.3328  1.7660  1.0804
  183MOL   C23044274   1.329   6.900   0.098 -0.3403  0.1764  0.5728
  183MOL   C23144275   1.180   6.955   0.104 -0.3288  0.4183 -0.5713
  183MOL   C23244276   1.066   6.853   0.119  0.7861  0.2647  0.8854
  183MOL   C23344277   1.074   6.782   0.255  0.2214  0.1470  0.4477
  183MOL   H23444278   1.384   6.993   0.114 -0.0886 -0.1423  1.6121
  183MOL   H23544279   1.346   6.851   0.194 -3.4010  0.4762  1.3148
  183MOL   H23644280   1.182   7.024   0.189 -0.4308  0.3468 -0.5100
  183MOL   H23744281   1.050   6.779   0.041  2.0095 -0.2077  1.0747
  183MOL   H23844282   0.973   6.910   0.126  1.9196  1.9473  2.8118
  183MOL   H23944283   1.052   6.842   0.343 -0.5326 -1.8821  1.6891
  183MOL   H24044284   1.002   6.701   0.239 -0.6102  1.1552 -1.0950
  183MOL   H24144285   1.172   6.740   0.275 -0.7115 -2.3571 -0.0094
  183MOL   H24244286   1.153   7.011   0.015  1.1659 -0.6085 -1.6974
  184MOL     C144287   2.161   1.077   1.876 -1.0175 -0.6328 -0.0222
  184MOL     C244288   2.106   1.218   1.879  0.4715 -0.3877  0.4087
  184MOL     C344289   1.982   1.234   1.789  0.3772  1.0656  0.2190
  184MOL     C444290   1.882   1.340   1.842 -0.4015  0.1255 -0.2479
  184MOL     H544291   2.191   1.044   1.776  0.3047 -1.0240  0.4861
  184MOL     H644292   2.255   1.071   1.932 -1.6666  1.8759  1.3684
  184MOL     H744293   2.068   1.234   1.980 -0.5816 -2.8063  0.4184
  184MOL     H844294   1.934   1.138   1.770  1.1632  1.3412 -3.5084
  184MOL     H944295   2.009   1.259   1.686  3.3830  1.0520  0.9395
  184MOL    H1044296   1.917   1.442   1.830  1.0480 -0.5337 -1.8488
  184MOL    H1144297   1.796   1.334   1.775  1.1924  0.0786 -2.3429
  184MOL    H1244298   1.855   1.300   1.939  0.4943  1.0442  0.3923
  184MOL    H1344299   2.095   1.001   1.918 -0.2978 -0.8451  0.7337
  184MOL    C1444300   2.220   1.322   1.843  0.3803  1.0285 -0.0986
  184MOL    C1544301   2.335   1.350   1.935  0.0696 -0.3507 -0.8014
  184MOL    C1644302   2.283   1.386   2.076  0.0861  0.3397 -0.1727
  184MOL    C1744303   2.393   1.413   2.182  0.4448  0.3716 -0.2425
  184MOL    H1844304   2.177   1.421   1.828 -0.9410  0.3743 -0.7016
  184MOL    H1944305   2.241   1.290   1.741  0.4742 -1.3510  0.6489
  184MOL    H2044306   2.403   1.267   1.956  0.6092  0.2876 -0.0167
  184MOL    H2144307   2.218   1.307   2.113  1.0058 -0.5479 -0.4240
  184MOL    H2244308   2.221   1.476   2.074  0.9237  0.9021 -2.4271
  184MOL    H2344309   2.448   1.321   2.204 -2.9048 -1.5574  0.3133
  184MOL    H2444310   2.445   1.506   2.160  0.2967  0.8837  1.4586
  184MOL    H2544311   2.347   1.433   2.279  3.4867  1.1975  1.1103
  184MOL    C2644312   2.422   1.464   1.868 -0.0818 -0.5023  0.0188
  184MOL    C2744313   2.465   1.435   1.719 -0.8591  0.5931 -0.3480
  184MOL    C2844314   2.561   1.315   1.709  0.2801  0.3282 -1.0841
  184MOL    C2944315   2.521   1.211   1.602 -0.7261 -0.0228 -0.1970
  184MOL    H3044316   2.518   1.480   1.917  0.0824 -0.8129 -0.2016
  184MOL    H3144317   2.375   1.562   1.880 -0.7418 -0.7978 -0.1464
  184MOL    H3244318   2.377   1.423   1.656 -1.2482 -0.2512  0.3265
  184MOL    H3344319   2.565   1.260   1.803 -0.6805 -2.4692 -2.6015
  184MOL    H3444320   2.666   1.341   1.695  0.5911 -0.8354 -0.9610
  184MOL    H3544321   2.419   1.179   1.626 -0.5567 -1.1620 -0.9683
  184MOL    H3644322   2.519   1.250   1.500  0.1969  3.9280  1.2072
  184MOL    H3744323   2.587   1.125   1.595  0.3275  0.7088  0.5980
  184MOL    C3844324   2.522   1.562   1.646 -0.5151 -0.4361  0.2943
  184MOL    C3944325   2.536   1.556   1.492  0.0041 -0.2374 -0.7820
  184MOL    C4044326   2.642   1.655   1.426 -0.0463  0.0845 -0.1827
  184MOL    C4144327   2.614   1.801   1.442  0.3972 -0.4480  0.2840
  184MOL    H4244328   2.622   1.577   1.687 -0.8908 -2.2637  1.9316
  184MOL    H4344329   2.454   1.644   1.669  1.0489  1.2099 -0.8044
  184MOL    H4444330   2.580   1.459   1.471  0.2721 -0.4249  0.5998
  184MOL    H4544331   2.664   1.628   1.322 -0.2760 -1.7194  0.2144
  184MOL    H4644332   2.742   1.636   1.465 -0.2278 -0.0522  0.2167
  184MOL    H4744333   2.516   1.823   1.399  0.5814 -1.3537 -0.6066
  184MOL    H4844334   2.610   1.816   1.550 -0.9713  0.1530  0.1645
  184MOL    H4944335   2.687   1.872   1.404  0.1788 -0.0209  0.6529
  184MOL    C5044336   2.393   1.564   1.430  0.5381  0.3812 -0.0311
  184MOL    C5144337   2.395   1.536   1.273  0.1594 -0.0403 -0.3549
  184MOL    C5244338   2.256   1.506   1.220 -0.1788  0.5202 -0.1363
  184MOL    C5344339   2.198   1.364   1.259  0.4347  0.2106  0.6411
  184MOL    H5444340   2.354   1.663   1.452  1.0941  0.7571 -0.7544
  184MOL    H5544341   2.325   1.496   1.482 -0.3429  2.2680  1.3752
  184MOL    H5644342   2.431   1.620   1.214 -0.7452  1.2881  0.9490
  184MOL    H5744343   2.236   1.520   1.114 -0.1188 -1.0978 -0.3727
  184MOL    H5844344   2.193   1.585   1.260 -2.3143 -1.9666  1.6136
  184MOL    H5944345   2.205   1.340   1.365 -0.9654  0.6834  0.8466
  184MOL    H6044346   2.093   1.347   1.231  0.0789  0.9673  1.5140
  184MOL    H6144347   2.247   1.279   1.210 -1.3611  0.0166 -0.9206
  184MOL    C6244348   2.494   1.424   1.234 -0.1962  0.6031 -0.2662
  184MOL    C6344349   2.510   1.413   1.081  0.6379  0.2347 -0.0726
  184MOL    C6444350   2.583   1.283   1.054 -0.0739  0.0272 -0.1838
  184MOL    C6544351   2.716   1.263   1.126  0.4236  0.1456 -0.4898
  184MOL    H6644352   2.454   1.333   1.279 -0.3877  1.6327  1.6456
  184MOL    H6744353   2.597   1.445   1.262 -0.6288  1.0450  0.9854
  184MOL    H6844354   2.409   1.395   1.043  0.0633  0.5593  1.2668
  184MOL    H6944355   2.607   1.292   0.948 -1.7166  1.3732 -0.4662
  184MOL    H7044356   2.518   1.195   1.060  0.3637 -0.1502  2.8061
  184MOL    H7144357   2.692   1.248   1.232 -0.5321  0.1909 -0.6936
  184MOL    H7244358   2.784   1.187   1.088  1.2247 -0.3042  1.7734
  184MOL    H7344359   2.783   1.349   1.121  0.5321  0.0480 -0.7089
  184MOL    C7444360   2.574   1.530   1.009  0.4604 -0.0747  0.7777
  184MOL    C7544361   2.489   1.630   0.929  0.9227 -0.4986  0.7335
  184MOL    C7644362   2.416   1.584   0.803 -0.5932  0.4076  0.3793
  184MOL    C7744363   2.506   1.518   0.695 -0.7810 -0.1109  0.4846
  184MOL    H7844364   2.656   1.486   0.953 -0.5502 -1.1550  0.1290
  184MOL    H7944365   2.639   1.584   1.078  0.5444  1.9236 -0.8327
  184MOL    H8044366   2.410   1.654   1.001 -0.4558 -1.4024 -0.4477
  184MOL    H8144367   2.351   1.657   0.754 -0.6852  1.1408  1.5748
  184MOL    H8244368   2.332   1.518   0.824  0.5574 -1.2959 -0.2872
  184MOL    H8344369   2.584   1.456   0.739 -0.3072  0.6790  0.7745
  184MOL    H8444370   2.459   1.464   0.613  3.0676  0.8171 -2.5003
  184MOL    H8544371   2.565   1.601   0.654 -0.5677  1.2030  3.3320
  184MOL    C8644372   2.568   1.754   0.901 -0.3944 -0.2329  0.7185
  184MOL    C8744373   2.582   1.847   1.023 -0.7214  0.6510  0.3809
  184MOL    C8844374   2.456   1.928   1.056  0.2213 -0.2943 -0.0057
  184MOL    C8944375   2.365   1.989   0.939 -0.1877  0.3452  0.3094
  184MOL    H9044376   2.529   1.810   0.816 -1.3326 -0.0826  1.2349
  184MOL    H9144377   2.669   1.730   0.868 -0.3638 -0.0277  0.6628
  184MOL    H9244378   2.611   1.792   1.112  0.4371  0.8678  0.1401
  184MOL    H9344379   2.490   2.010   1.120 -1.4589  0.1426  0.3702
  184MOL    H9444380   2.392   1.864   1.117  1.4856  0.2253  1.9117
  184MOL    H9544381   2.314   1.904   0.893 -2.6020  0.8475  1.9514
  184MOL    H9644382   2.290   2.053   0.984 -0.7836  0.2978 -0.6075
  184MOL    H9744383   2.436   2.045   0.878 -0.5243  0.5049  0.0651
  184MOL    C9844384   2.697   1.952   0.990  0.0004 -0.3650  0.5189
  184MOL    C9944385   2.836   1.927   1.060  0.5409  0.5817 -0.0044
  184MOL   C10044386   2.926   2.045   1.025  0.2508 -0.6630 -0.4283
  184MOL   C10144387   2.990   2.047   0.879 -0.3078 -0.2969  0.4901
  184MOL   H10244388   2.670   2.054   1.020 -3.2244 -1.2435  0.7663
  184MOL   H10344389   2.698   1.968   0.883  0.3213  1.1021  0.7328
  184MOL   H10444390   2.811   1.938   1.166  1.3733 -0.7980  0.3476
  184MOL   H10544391   3.014   2.053   1.089 -0.4247 -0.7265  0.5085
  184MOL   H10644392   2.885   2.146   1.025  1.8570  0.0200  2.3513
  184MOL   H10744393   3.037   1.950   0.861  0.6288 -0.3607  3.0554
  184MOL   H10844394   2.912   2.056   0.805 -1.3537 -0.4506  1.5599
  184MOL   H10944395   3.068   2.121   0.860 -1.2024  0.7818  0.9794
  184MOL   C11044396   2.897   1.792   1.045  0.2891  0.4170  0.2383
  184MOL   C11144397   3.012   1.760   1.145 -0.1311 -0.3423 -0.1099
  184MOL   C11244398   3.122   1.670   1.086 -0.1265 -0.6413 -0.1111
  184MOL   C11344399   3.081   1.522   1.063  0.2248  0.0661  0.7718
  184MOL   H11444400   2.934   1.783   0.943 -0.2030  1.1435 -0.0071
  184MOL   H11544401   2.824   1.711   1.048 -0.6669  1.2481 -0.2046
  184MOL   H11644402   3.065   1.854   1.157 -0.4438 -0.0441 -1.0490
  184MOL   H11744403   3.218   1.661   1.136 -0.0823 -0.6810 -0.2032
  184MOL   H11844404   3.140   1.712   0.988  0.4084 -1.1006 -0.2121
  184MOL   H11944405   3.095   1.482   1.164 -2.5960  2.2766  2.1156
  184MOL   H12044406   2.975   1.515   1.038  0.2594 -1.4699  0.9877
  184MOL   H12144407   3.147   1.466   0.997 -0.3586 -0.1814  0.3975
  184MOL   C12244408   2.965   1.704   1.287  0.6390  0.3900 -0.9196
  184MOL   C12344409   3.073   1.715   1.399  0.0014  0.2270 -0.0362
  184MOL   C12444410   3.028   1.632   1.519 -0.4205  0.6205  0.7113
  184MOL   C12544411   3.021   1.476   1.492  0.0951  0.3934  0.0440
  184MOL   H12644412   2.920   1.606   1.277  0.3918  0.5358 -1.2561
  184MOL   H12744413   2.879   1.766   1.315  1.7073  1.4856  0.0042
  184MOL   H12844414   3.166   1.670   1.365 -0.3781  0.4242 -1.3358
  184MOL   H12944415   2.936   1.679   1.551 -1.7232 -0.8045 -0.8713
  184MOL   H13044416   3.099   1.647   1.600  0.4292  0.2961  0.0383
  184MOL   H13144417   2.924   1.458   1.445  0.2933  2.4063 -1.1954
  184MOL   H13244418   3.110   1.447   1.437 -0.0052 -0.1390  0.1568
  184MOL   H13344419   3.029   1.418   1.583 -1.0798 -1.0622 -0.7541
  184MOL   C13444420   3.101   1.865   1.433 -0.3921  0.0756  0.3461
  184MOL   C13544421   3.212   1.886   1.534 -0.2990 -0.0427  0.3672
  184MOL   C13644422   3.221   2.040   1.561 -0.5280 -0.7226  0.4623
  184MOL   C13744423   3.103   2.119   1.620  0.5671  0.0985  0.7183
  184MOL   H13844424   3.000   1.884   1.470 -1.0186  0.3932 -1.4877
  184MOL   H13944425   3.124   1.921   1.343  1.5007  0.7490  1.2229
  184MOL   H14044426   3.184   1.842   1.630 -2.6177  0.1291 -0.2075
  184MOL   H14144427   3.250   2.087   1.467 -0.1621 -1.2141  0.3291
  184MOL   H14244428   3.302   2.055   1.632 -0.0993  2.0889 -0.5331
  184MOL   H14344429   3.029   2.137   1.542  2.0082 -1.5192 -1.0926
  184MOL   H14444430   3.053   2.063   1.698  0.6687  0.1804  0.8423
  184MOL   H14544431   3.150   2.203   1.670 -0.2884  0.0657  1.5930
  184MOL   C14644432   3.348   1.837   1.487 -0.5007 -0.5067 -0.2264
  184MOL   C14744433   3.467   1.840   1.586 -0.7425 -0.0494 -0.3644
  184MOL   C14844434   3.603   1.817   1.510 -0.4068 -0.0227  0.0176
  184MOL   C14944435   3.656   1.928   1.426 -0.3539 -0.7445 -0.2442
  184MOL   H15044436   3.379   1.899   1.402 -2.1939  1.4041  0.5158
  184MOL   H15144437   3.340   1.732   1.458 -0.3703 -0.9742  1.4102
  184MOL   H15244438   3.473   1.940   1.630 -0.2248  0.7357 -2.1864
  184MOL   H15344439   3.601   1.721   1.458 -0.8681 -1.0383  1.8563
  184MOL   H15444440   3.681   1.793   1.583  0.2210 -1.9412 -1.2296
  184MOL   H15544441   3.756   1.905   1.388  0.5147 -1.1915  2.2137
  184MOL   H15644442   3.585   1.962   1.352 -1.4792 -1.1692  0.6325
  184MOL   H15744443   3.667   2.014   1.491 -0.6261 -1.1124  0.2914
  184MOL   C15844444   3.442   1.736   1.700  0.5555 -0.0296  0.2721
  184MOL   C15944445   3.539   1.761   1.825  1.0410 -0.4062 -0.8725
  184MOL   C16044446   3.658   1.666   1.823 -0.0013  0.0204  0.8580
  184MOL   C16144447   3.773   1.728   1.905  0.2421  0.2718 -0.3359
  184MOL   H16244448   3.443   1.632   1.667 -2.7665  0.4674 -1.6345
  184MOL   H16344449   3.342   1.756   1.739 -0.5943 -1.3609 -1.8764
  184MOL   H16444450   3.579   1.861   1.808 -2.3534  1.1554  0.0852
  184MOL   H16544451   3.687   1.646   1.719 -2.5665  1.6508 -0.2262
  184MOL   H16644452   3.629   1.567   1.858 -0.8732  0.9690  2.8497
  184MOL   H16744453   3.758   1.729   2.013  1.5612  1.9549 -0.1521
  184MOL   H16844454   3.867   1.673   1.898 -0.2034 -0.4967 -0.4221
  184MOL   H16944455   3.795   1.832   1.880  1.2719  0.2730  0.5780
  184MOL   C17044456   3.462   1.745   1.957 -0.2316 -0.5252 -0.1165
  184MOL   C17144457   3.363   1.861   1.986  0.1656  0.0090  0.3886
  184MOL   C17244458   3.424   1.991   2.027  0.3665 -0.0744 -0.4142
  184MOL   C17344459   3.362   2.114   1.962 -0.3158 -0.4715 -0.3649
  184MOL   H17444460   3.531   1.739   2.042 -0.3203  2.0273  0.1580
  184MOL   H17544461   3.415   1.647   1.945 -0.6578 -0.3939  0.4602
  184MOL   H17644462   3.310   1.876   1.892 -0.4480  0.5734  0.8239
  184MOL   H17744463   3.527   2.005   1.994  0.5764 -0.6627 -0.0038
  184MOL   H17844464   3.439   1.993   2.135 -1.2141 -0.4330 -0.1720
  184MOL   H17944465   3.256   2.120   1.988  0.2950  0.7510  1.9850
  184MOL   H18044466   3.421   2.203   1.982 -1.5572  0.2970 -0.1020
  184MOL   H18144467   3.361   2.090   1.855  0.3778 -0.9667 -0.2668
  184MOL   C18244468   3.260   1.823   2.098 -0.2917  0.4182  0.5186
  184MOL   C18344469   3.163   1.705   2.066  0.1587 -0.3058  0.0128
  184MOL   C18444470   3.076   1.727   1.936  0.8688  0.2530  0.2203
  184MOL   C18544471   3.004   1.859   1.925  0.2800 -1.2820  0.4934
  184MOL   H18644472   3.200   1.908   2.131 -0.9169  0.6942 -1.2894
  184MOL   H18744473   3.316   1.792   2.186  2.0229  1.0889 -0.7041
  184MOL   H18844474   3.217   1.612   2.051 -1.4495 -1.0532 -1.2481
  184MOL   H18944475   2.994   1.656   1.927  0.4879  0.7882 -0.5516
  184MOL   H19044476   3.147   1.711   1.855  2.3165  0.6473  1.4004
  184MOL   H19144477   3.070   1.945   1.917  1.3301 -2.3112 -2.6008
  184MOL   H19244478   2.950   1.872   1.831  2.3250  0.5461 -0.4795
  184MOL   H19344479   2.940   1.879   2.011  0.3578 -1.0810  0.5061
  184MOL   C19444480   3.077   1.684   2.189 -0.4453 -0.4059  1.0406
  184MOL   C19544481   3.011   1.545   2.194  0.1697  0.4460  0.6168
  184MOL   C19644482   2.921   1.543   2.327  0.2172  0.2900  0.0380
  184MOL   C19744483   2.819   1.421   2.331 -0.4607 -0.2825 -0.0979
  184MOL   H19844484   3.001   1.761   2.200 -0.7051 -0.6321  0.8312
  184MOL   H19944485   3.147   1.687   2.273  0.1635  1.3760  0.4848
  184MOL   H20044486   2.943   1.524   2.111 -0.7226  2.7836  0.7309
  184MOL   H20144487   2.857   1.630   2.339 -1.7536 -1.3393  1.9237
  184MOL   H20244488   2.975   1.536   2.421  0.9106  0.3049 -0.3564
  184MOL   H20344489   2.867   1.326   2.308  3.4145  1.6919 -0.6382
  184MOL   H20444490   2.779   1.402   2.430  0.2544 -1.6259 -0.0602
  184MOL   H20544491   2.741   1.446   2.260  0.7084 -1.3041 -1.7751
  184MOL   C20644492   3.102   1.421   2.190  0.2695  0.1037  0.4972
  184MOL   C20744493   3.102   1.337   2.058  0.2521  0.8168 -0.0370
  184MOL   C20844494   2.969   1.262   2.033  0.9353 -0.1923 -0.1602
  184MOL   C20944495   2.946   1.234   1.880  0.1424  0.0040 -0.7653
  184MOL   H21044496   3.083   1.352   2.272  0.3570 -1.5758 -0.8508
  184MOL   H21144497   3.205   1.454   2.198  0.4882 -0.7693  1.3210
  184MOL   H21244498   3.102   1.408   1.975 -1.7211  0.7111 -0.1711
  184MOL   H21344499   2.890   1.319   2.082 -0.3846 -2.1008 -0.0264
  184MOL   H21444500   2.976   1.168   2.089 -0.1317  0.3141  0.8362
  184MOL   H21544501   2.845   1.197   1.863 -0.5092  1.4530 -0.1480
  184MOL   H21644502   2.962   1.326   1.824 -1.0078  0.9003  0.3706
  184MOL   H21744503   3.016   1.160   1.841 -0.3873 -0.0345 -1.6456
  184MOL   C21844504   3.223   1.243   2.057  0.5875 -0.6255 -0.5513
  184MOL   C21944505   3.358   1.309   2.025 -0.1423 -0.7599  0.0606
  184MOL   C22044506   3.394   1.286   1.880 -0.6308 -0.0034  0.1884
  184MOL   C22144507   3.280   1.319   1.777 -0.1212 -0.7077 -0.0374
  184MOL   H22244508   3.193   1.164   1.987 -1.3310  0.5308 -1.0858
  184MOL   H22344509   3.229   1.189   2.151  0.8064 -0.9626 -0.7575
  184MOL   H22444510   3.338   1.415   2.037 -1.3154 -0.8353 -1.0409
  184MOL   H22544511   3.445   1.191   1.866  1.5450  1.0897  0.3894
  184MOL   H22644512   3.467   1.361   1.849  1.1398 -0.6814  2.6277
  184MOL   H22744513   3.223   1.404   1.812  0.3267 -0.1193 -0.7259
  184MOL   H22844514   3.315   1.340   1.676 -0.5777  0.9004  0.1340
  184MOL   H22944515   3.208   1.237   1.778  0.1606 -0.9928 -1.5724
  184MOL   C23044516   3.478   1.278   2.114 -0.9960  0.2334 -0.5180
  184MOL   C23144517   3.458   1.334   2.256 -0.2408 -0.0401  0.0004
  184MOL   C23244518   3.550   1.265   2.355 -0.5788  0.1251  0.4001
  184MOL   C23344519   3.486   1.133   2.408  0.3043 -0.2696  0.3539
  184MOL   H23444520   3.572   1.308   2.068 -1.2760 -1.0378 -1.9690
  184MOL   H23544521   3.469   1.170   2.115  0.9967 -0.0099 -3.0303
  184MOL   H23644522   3.481   1.440   2.253 -0.6109  0.0334 -0.1824
  184MOL   H23744523   3.559   1.325   2.446 -2.7411  1.8730 -0.5071
  184MOL   H23844524   3.649   1.253   2.310 -0.8948 -1.3918  0.0615
  184MOL   H23944525   3.391   1.143   2.462 -0.0041 -0.6280 -0.1227
  184MOL   H24044526   3.475   1.059   2.329 -3.1387  1.8519 -1.2944
  184MOL   H24144527   3.543   1.087   2.488 -1.0656 -0.3390  1.3090
  184MOL   H24244528   3.354   1.336   2.287  0.0533 -1.2917  1.1312
  185MOL     C144529   1.533   1.147   2.599 -0.4608  0.7744  0.1061
  185MOL     C244530   1.523   0.990   2.613  0.2514 -0.3727  0.6754
  185MOL     C344531   1.374   0.943   2.610 -0.3477  0.5141  0.1153
  185MOL     C444532   1.342   0.891   2.473 -0.1679 -0.1589  0.1524
  185MOL     H544533   1.508   1.199   2.692  1.5086  1.5646  0.2217
  185MOL     H644534   1.632   1.177   2.564  0.8475 -2.0410  1.2514
  185MOL     H744535   1.574   0.949   2.525 -1.0174 -0.6503  0.0542
  185MOL     H844536   1.308   1.027   2.634  0.1003  1.3843 -1.6073
  185MOL     H944537   1.358   0.865   2.685 -0.2944  1.2843  0.9338
  185MOL    H1044538   1.234   0.898   2.457  0.1693  2.9342 -1.0097
  185MOL    H1144539   1.386   0.945   2.390 -0.2070 -1.2498 -0.5904
  185MOL    H1244540   1.367   0.786   2.459  0.9995  0.2461 -0.8271
  185MOL    H1344541   1.462   1.188   2.527  1.2873  1.1911 -1.4107
  185MOL    C1444542   1.597   0.946   2.744 -0.4492 -0.2141  0.0516
  185MOL    C1544543   1.617   0.793   2.763  0.0003 -0.3835  0.3070
  185MOL    C1644544   1.724   0.775   2.876 -0.1566 -0.1614  0.2021
  185MOL    C1744545   1.697   0.825   3.016 -0.0991 -0.2813 -0.2804
  185MOL    H1844546   1.545   0.976   2.834 -0.6245  1.3234 -0.5495
  185MOL    H1944547   1.697   0.988   2.758 -0.2956 -0.0244 -1.5480
  185MOL    H2044548   1.522   0.753   2.799 -1.7985  3.2429 -0.2334
  185MOL    H2144549   1.813   0.824   2.837  0.9388 -0.8771  1.7850
  185MOL    H2244550   1.752   0.670   2.882 -0.0343 -0.0945  0.8962
  185MOL    H2344551   1.610   0.789   3.071 -1.2635  1.0573 -1.2080
  185MOL    H2444552   1.780   0.814   3.086 -1.5037 -0.9409  1.3183
  185MOL    H2544553   1.681   0.932   3.002 -0.5351 -0.0595  1.7023
  185MOL    C2644554   1.675   0.707   2.635 -0.2438  0.6296 -0.0990
  185MOL    C2744555   1.681   0.545   2.649 -0.0423 -0.7449  0.5159
  185MOL    C2844556   1.731   0.487   2.511 -0.0959 -0.0163 -0.6772
  185MOL    C2944557   1.869   0.530   2.462  0.4660  0.6714 -0.1367
  185MOL    H3044558   1.772   0.748   2.608 -0.2043  0.3582 -0.3765
  185MOL    H3144559   1.619   0.732   2.545 -0.2428  0.2368 -0.2086
  185MOL    H3244560   1.752   0.517   2.728  0.0118 -1.4680  0.2175
  185MOL    H3344561   1.655   0.515   2.439  0.1727  2.8865  0.0719
  185MOL    H3444562   1.730   0.378   2.514  0.8358 -0.0365 -0.7113
  185MOL    H3544563   1.879   0.492   2.360 -1.9279  1.2739 -0.6354
  185MOL    H3644564   1.878   0.637   2.442  0.8417  0.7170  0.2818
  185MOL    H3744565   1.954   0.501   2.523 -1.0960  0.5329  2.0461
  185MOL    C3844566   1.556   0.477   2.691  0.0405  0.2553  0.7645
  185MOL    C3944567   1.563   0.313   2.710 -0.2878 -0.7070 -0.5238
  185MOL    C4044568   1.509   0.235   2.585  0.2605  0.7379 -0.0925
  185MOL    C4144569   1.539   0.087   2.576 -0.2275  0.1789  0.4587
  185MOL    H4244570   1.480   0.506   2.619 -0.2722  2.2046  1.8571
  185MOL    H4344571   1.531   0.520   2.788 -3.4014 -0.7424  0.3862
  185MOL    H4444572   1.668   0.284   2.721 -0.1880 -1.0104 -2.1966
  185MOL    H4544573   1.553   0.285   2.498 -0.3392  3.2440  0.9811
  185MOL    H4644574   1.401   0.247   2.581  0.4055  2.0198 -0.7658
  185MOL    H4744575   1.643   0.071   2.604 -0.6989 -3.1007  0.5590
  185MOL    H4844576   1.469   0.034   2.641 -1.9981  0.4948 -1.1458
  185MOL    H4944577   1.531   0.044   2.476 -2.1107  2.3745 -0.3771
  185MOL    C5044578   1.473   0.266   2.833 -0.5814  0.5886 -0.3699
  185MOL    C5144579   1.548   0.261   2.965 -0.5172  0.3802  0.1553
  185MOL    C5244580   1.622   0.123   2.984  0.1642  0.5310  0.3106
  185MOL    C5344581   1.538   0.000   3.025 -0.0733 -0.2181  0.5734
  185MOL    H5444582   1.434   0.165   2.818  3.6258 -1.9534  4.5883
  185MOL    H5544583   1.392   0.340   2.840 -0.5348  0.6123 -0.0805
  185MOL    H5644584   1.623   0.340   2.959  0.9339 -0.9241  0.6375
  185MOL    H5744585   1.717   0.130   3.037  0.1868 -2.9298  0.8704
  185MOL    H5844586   1.654   0.101   2.882  2.5242 -1.6508  1.4754
  185MOL    H5944587   1.450   7.692   2.963  1.3962  1.4437 -1.9891
  185MOL    H6044588   1.599   7.618   3.005  2.6696  2.0169 -1.3075
  185MOL    H6144589   1.514   7.696   3.131  2.0675  1.1956  1.2331
  185MOL    C6244590   1.452   0.284   3.086 -0.1035  0.0300  0.6368
  185MOL    C6344591   1.420   0.437   3.113  0.0662 -0.1777 -0.5047
  185MOL    C6444592   1.530   0.503   3.202 -0.0525  0.4535  0.6062
  185MOL    C6544593   1.541   0.459   3.350 -0.0082  0.0368  0.0166
  185MOL    H6644594   1.486   0.250   3.184  3.1143  1.1792 -0.0243
  185MOL    H6744595   1.355   0.237   3.075 -0.1855 -0.1030  1.8178
  185MOL    H6844596   1.431   0.487   3.016 -2.4030  0.1357 -0.6420
  185MOL    H6944597   1.518   0.612   3.202  1.3563  0.6116 -0.9647
  185MOL    H7044598   1.627   0.496   3.154 -0.6936  1.5102 -0.8705
  185MOL    H7144599   1.563   0.352   3.345 -0.1985  0.0452 -1.0741
  185MOL    H7244600   1.627   0.501   3.402 -1.0328  0.4038  1.4613
  185MOL    H7344601   1.458   0.478   3.419 -2.4189  1.0690 -3.0610
  185MOL    C7444602   1.276   0.460   3.149  0.0236  0.7706 -0.1722
  185MOL    C7544603   1.169   0.459   3.035 -0.2964 -0.0870 -0.6338
  185MOL    C7644604   1.186   0.571   2.932 -0.6867 -0.3550 -0.0608
  185MOL    C7744605   1.127   0.543   2.784  0.2413  0.1260  0.6124
  185MOL    H7844606   1.273   0.555   3.203 -1.8962  0.8581 -0.4080
  185MOL    H7944607   1.248   0.384   3.222 -3.2008  1.6765 -0.3981
  185MOL    H8044608   1.179   0.366   2.980 -2.7961  0.3467 -1.8588
  185MOL    H8144609   1.289   0.606   2.922 -1.0012  0.0398 -2.4099
  185MOL    H8244610   1.132   0.659   2.965 -0.9852 -0.5008 -0.1560
  185MOL    H8344611   1.139   0.632   2.721 -0.2638  0.2931  0.7495
  185MOL    H8444612   1.174   0.457   2.737  0.4981  1.2251 -1.2237
  185MOL    H8544613   1.020   0.526   2.778  0.4329 -0.4092 -2.0581
  185MOL    C8644614   1.027   0.446   3.086  0.0175 -0.4986 -1.0429
  185MOL    C8744615   0.983   0.323   3.165 -0.0332  0.1078  0.0643
  185MOL    C8844616   1.001   0.193   3.085 -0.4539  0.4540  0.0954
  185MOL    C8944617   0.959   0.062   3.144 -0.3173 -0.3805  0.0195
  185MOL    H9044618   0.959   0.456   3.001  2.2572  1.6809 -2.6397
  185MOL    H9144619   1.017   0.534   3.150  1.8140 -1.3345  0.4276
  185MOL    H9244620   1.043   0.318   3.256 -1.4439  0.5787  1.0420
  185MOL    H9344621   1.104   0.175   3.052 -1.0740 -1.2201 -1.0089
  185MOL    H9444622   0.957   0.195   2.986  0.9941  0.5668 -0.5706
  185MOL    H9544623   0.975   0.062   3.252  0.3461  1.5955 -0.0692
  185MOL    H9644624   0.858   0.027   3.123 -0.9161  0.3241  1.6075
  185MOL    H9744625   1.020   7.685   3.107  0.2210  0.3771 -0.7917
  185MOL    C9844626   0.832   0.340   3.205 -0.1987  0.4888  1.7086
  185MOL    C9944627   0.799   0.435   3.326 -0.3320  0.5058 -0.0380
  185MOL   C10044628   0.846   0.363   3.451  0.1475 -0.3789  0.7861
  185MOL   C10144629   0.886   0.453   3.567 -0.1130  0.0266  0.1796
  185MOL   H10244630   0.800   0.239   3.231  0.0344 -0.1845 -0.5549
  185MOL   H10344631   0.778   0.361   3.113 -1.7859  0.2392  2.5630
  185MOL   H10444632   0.854   0.527   3.310  0.6249  0.0676  0.6850
  185MOL   H10544633   0.934   0.303   3.432 -1.1307 -1.8774 -0.5462
  185MOL   H10644634   0.787   0.277   3.480 -0.1509 -0.3607  0.2451
  185MOL   H10744635   0.946   0.535   3.526 -1.1290  0.4107 -0.5638
  185MOL   H10844636   0.799   0.508   3.601  0.5873 -0.0195  2.1103
  185MOL   H10944637   0.921   0.401   3.656  0.0693 -0.0851  0.0428
  185MOL   C11044638   0.659   0.494   3.331  0.1369 -0.1106  0.5576
  185MOL   C11144639   0.613   0.595   3.220 -0.3795  0.0028  0.3763
  185MOL   C11244640   0.695   0.730   3.210  0.1920 -0.0123 -0.0967
  185MOL   C11344641   0.786   0.730   3.085  0.1711 -0.0766  0.1029
  185MOL   H11444642   0.636   0.552   3.420  0.6368 -0.0486  0.6463
  185MOL   H11544643   0.589   0.411   3.331 -1.7160  1.3934 -0.9960
  185MOL   H11644644   0.626   0.543   3.125  0.2314  0.3704  0.2574
  185MOL   H11744645   0.753   0.746   3.301  0.8928 -1.1915 -0.3315
  185MOL   H11844646   0.629   0.813   3.183 -0.4696 -0.1944  0.9309
  185MOL   H11944647   0.732   0.767   2.998  0.5746 -0.4007 -0.2834
  185MOL   H12044648   0.877   0.789   3.092 -0.5258  1.1773 -1.1569
  185MOL   H12144649   0.819   0.633   3.046 -1.0417 -0.9856  1.2802
  185MOL   C12244650   0.456   0.616   3.225 -0.2893 -0.0910 -0.6741
  185MOL   C12344651   0.369   0.518   3.140  0.1075  0.5251 -0.2314
  185MOL   C12444652   0.374   0.574   2.996  0.0922  0.4222  0.2170
  185MOL   C12544653   0.367   0.481   2.879 -0.2953 -0.4967  0.1316
  185MOL   H12644654   0.434   0.719   3.197 -2.7241  0.0623  1.6706
  185MOL   H12744655   0.429   0.619   3.331  1.1662  2.6719 -0.3439
  185MOL   H12844656   0.417   0.421   3.148 -1.3183 -0.0103  2.0840
  185MOL   H12944657   0.465   0.632   2.985 -0.0362  0.5452 -0.1780
  185MOL   H13044658   0.290   0.644   2.994 -1.1335 -1.0582 -1.3244
  185MOL   H13144659   0.265   0.444   2.868  0.0259 -2.1654  2.3806
  185MOL   H13244660   0.381   0.527   2.781  0.2165 -0.3531  0.2740
  185MOL   H13344661   0.447   0.407   2.883  1.8532  1.7680 -0.1493
  185MOL   C13444662   0.229   0.497   3.209 -0.6747  0.4788  0.3493
  185MOL   C13544663   0.215   0.380   3.312 -0.0104 -0.3065 -0.2127
  185MOL   C13644664   0.274   0.411   3.449 -0.4553 -0.0979 -0.2341
  185MOL   C13744665   0.212   0.324   3.569 -0.2303  0.7085  0.4339
  185MOL   H13844666   0.152   0.483   3.133 -0.3948  3.4170 -0.5403
  185MOL   H13944667   0.192   0.590   3.252 -1.5675  0.1252  0.3569
  185MOL   H14044668   0.111   0.364   3.340 -0.5667  3.0104 -0.1766
  185MOL   H14144669   0.262   0.518   3.465  1.2769  0.0928 -0.0848
  185MOL   H14244670   0.382   0.396   3.445 -0.4103  0.3307 -0.6818
  185MOL   H14344671   0.259   0.365   3.658  2.6154 -1.5400  0.0395
  185MOL   H14444672   0.106   0.316   3.592  0.0348 -2.0012  0.8362
  185MOL   H14544673   0.241   0.219   3.564 -0.9342  0.5127  0.5212
  185MOL   C14644674   0.240   0.242   3.251 -0.5906  0.7623 -0.2832
  185MOL   C14744675   0.188   0.224   3.096 -0.2454  0.7126 -0.1554
  185MOL   C14844676   0.038   0.228   3.073  0.1857  0.1761  0.0197
  185MOL   C14944677   7.703   0.230   2.925  0.8515  0.5412 -0.4274
  185MOL   H15044678   0.194   0.171   3.319  0.7577 -1.5721 -1.7429
  185MOL   H15144679   0.348   0.229   3.249 -0.4993  0.2112  3.7714
  185MOL   H15244680   0.224   0.302   3.029  0.4796  2.4681  2.2068
  185MOL   H15344681   7.699   0.313   3.124 -0.1216 -0.2296  0.4246
  185MOL   H15444682   7.696   0.145   3.124 -2.4497  0.6476 -1.5619
  185MOL   H15544683   7.612   0.170   2.918  1.7005 -1.1513  2.2786
  185MOL   H15644684   7.685   0.330   2.887 -0.8272  0.2002 -0.5817
  185MOL   H15744685   0.053   0.169   2.854 -0.3998 -0.1380 -0.8598
  185MOL   C15844686   0.240   0.082   3.041  0.2182  1.0458 -0.0998
  185MOL   C15944687   0.386   0.088   3.004  0.2337 -0.1684  0.4898
  185MOL   C16044688   0.411   0.094   2.853 -0.4013 -0.0696 -0.1408
  185MOL   C16144689   0.558   0.132   2.815 -0.0536 -0.3584 -0.3009
  185MOL   H16244690   0.176   0.044   2.961 -0.6329  3.1896 -0.4816
  185MOL   H16344691   0.226   0.008   3.119  2.8394 -0.3383 -0.9029
  185MOL   H16444692   0.443   0.170   3.047  0.3368 -0.4625  0.9129
  185MOL   H16544693   0.346   0.176   2.824  2.5654  2.8156  1.1017
  185MOL   H16644694   0.370   0.006   2.803  0.4422 -0.4035 -0.2655
  185MOL   H16744695   0.594   0.207   2.885 -0.3102 -0.7071  0.2034
  185MOL   H16844696   0.621   0.044   2.799  1.5161  0.9491 -1.5284
  185MOL   H16944697   0.549   0.187   2.721 -2.0716  0.3859  0.3031
  185MOL   C17044698   0.464   7.672   3.059 -0.2930  0.6890  0.1169
  185MOL   C17144699   0.477   7.648   3.208  0.4509 -0.6045 -0.5502
  185MOL   C17244700   0.565   0.048   3.274 -0.0929 -0.3469  0.2653
  185MOL   C17344701   0.535   0.063   3.424 -0.5111 -0.1958 -0.6690
  185MOL   H17444702   0.567   7.677   3.025  0.5805  0.3794  2.6517
  185MOL   H17544703   0.432   7.584   3.003 -1.5596  1.9300 -1.1378
  185MOL   H17644704   0.379   7.652   3.256  1.4005  0.9482  1.3612
  185MOL   H17744705   0.547   0.141   3.220 -0.4220 -0.5981 -0.0632
  185MOL   H17844706   0.671   0.025   3.263 -0.1453  0.1218 -1.2490
  185MOL   H17944707   0.429   0.076   3.447 -0.6993 -0.3649 -1.4120
  185MOL   H18044708   0.580   7.691   3.486 -0.3441 -1.3968 -2.2586
  185MOL   H18144709   0.580   0.156   3.456 -0.1383 -0.6199  0.0569
  185MOL   C18244710   0.547   7.516   3.225 -0.3464  0.5104 -0.5157
  185MOL   C18344711   0.455   7.389   3.198 -0.1350  0.1948 -0.9151
  185MOL   C18444712   0.416   7.333   3.337 -0.1515 -0.3023  0.0145
  185MOL   C18544713   0.330   7.426   3.421 -0.9785 -0.1967 -0.3480
  185MOL   H18644714   0.590   7.502   3.324  3.5582  0.7839 -2.0957
  185MOL   H18744715   0.630   7.507   3.156  0.4652  0.4091  0.4697
  185MOL   H18844716   0.360   7.421   3.156  0.4360  1.6928 -1.0873
  185MOL   H18944717   0.501   7.331   3.404 -0.2687 -1.2187  0.1333
  185MOL   H19044718   0.381   7.230   3.338 -2.8749  0.5784 -0.4009
  185MOL   H19144719   0.320   7.380   3.519 -0.1297 -2.9780 -1.5274
  185MOL   H19244720   0.371   7.526   3.434 -0.2841 -0.0037 -3.6245
  185MOL   H19344721   0.231   7.431   3.376 -1.1932 -0.7084  0.0632
  185MOL   C19444722   0.526   7.287   3.110 -0.3095  0.3218  0.2793
  185MOL   C19544723   0.552   7.320   2.962  0.1065 -0.5622 -0.9066
  185MOL   C19644724   0.421   7.293   2.881 -0.2282  0.3923 -1.3659
  185MOL   C19744725   0.428   7.340   2.735 -0.4361  0.6235  0.4286
  185MOL   H19844726   0.475   7.191   3.108  0.8349 -0.3147  1.2569
  185MOL   H19944727   0.621   7.268   3.159  1.3213  0.7551 -2.6055
  185MOL   H20044728   0.579   7.425   2.950 -0.4231 -0.2286  0.6617
  185MOL   H20144729   0.332   7.331   2.932  0.3480 -0.1019  0.0395
  185MOL   H20244730   0.396   7.187   2.878  1.8747 -0.1065 -1.7672
  185MOL   H20344731   0.331   7.321   2.689 -0.9587  2.5871  0.6613
  185MOL   H20444732   0.463   7.444   2.734  0.2186  0.4069  0.9360
  185MOL   H20544733   0.495   7.274   2.682 -2.9639 -1.5413 -0.1525
  185MOL   C20644734   0.666   7.231   2.908  0.5562  0.0422  0.3129
  185MOL   C20744735   0.812   7.270   2.956 -0.2664  0.0402 -0.3538
  185MOL   C20844736   0.853   7.406   2.896 -0.1312 -0.8120 -0.5972
  185MOL   C20944737   0.831   7.446   2.757  0.7270  0.2125 -0.4723
  185MOL   H21044738   0.678   7.219   2.801  2.1726  0.8562  0.3798
  185MOL   H21144739   0.628   7.138   2.950 -0.9352  1.9818  3.4322
  185MOL   H21244740   0.810   7.272   3.065  1.6416  1.1492 -0.3142
  185MOL   H21344741   0.958   7.408   2.925 -0.3205  2.4717  0.0956
  185MOL   H21444742   0.815   7.487   2.959 -1.9609 -2.2640  0.1969
  185MOL   H21544743   0.727   7.474   2.737  0.5322 -1.2411 -1.5787
  185MOL   H21644744   0.891   7.529   2.721 -0.0728  0.4974 -1.1838
  185MOL   H21744745   0.851   7.361   2.691  0.2250 -0.2083 -0.0939
  185MOL   C21844746   0.916   7.166   2.903  0.1277  0.0420 -0.6255
  185MOL   C21944747   0.905   7.014   2.928 -0.0290 -0.0359 -0.4784
  185MOL   C22044748   0.883   6.975   3.080  0.1176 -0.0867 -0.0336
  185MOL   C22144749   0.976   7.031   3.185  0.4947 -0.0081  0.3376
  185MOL   H22244750   1.004   7.194   2.961 -0.5685  0.9831  0.0004
  185MOL   H22344751   0.934   7.180   2.796  1.0200  0.1546 -0.4668
  185MOL   H22444752   0.809   6.993   2.880 -1.8970  1.2806  2.4981
  185MOL   H22544753   0.868   6.868   3.081  1.9834 -0.3772  3.2921
  185MOL   H22644754   0.779   7.005   3.094  0.2908  0.1698  0.7178
  185MOL   H22744755   1.074   6.990   3.160 -0.6211 -0.8175 -2.9426
  185MOL   H22844756   0.987   7.140   3.186 -0.0054  0.0990 -1.8916
  185MOL   H22944757   0.970   6.998   3.288  0.4751  0.4716  0.4918
  185MOL   C23044758   1.021   6.938   2.857 -0.8583  0.6099 -0.6509
  185MOL   C23144759   1.014   6.930   2.701 -0.3102  0.9088 -1.2368
  185MOL   C23244760   1.141   6.875   2.633 -0.4558 -0.0477 -0.1243
  185MOL   C23344761   1.120   6.853   2.484  0.0153 -0.1090  0.8639
  185MOL   H23444762   1.031   6.842   2.908 -0.7568 -0.1229 -2.0519
  185MOL   H23544763   1.116   6.992   2.871 -1.0374  0.1814  2.7189
  185MOL   H23644764   0.931   6.862   2.680  0.4168 -0.4010  0.0338
  185MOL   H23744765   1.178   6.783   2.679  0.1584  0.2057 -0.1006
  185MOL   H23844766   1.233   6.928   2.657  0.3645 -1.8055  0.7567
  185MOL   H23944767   1.110   6.948   2.431  0.8007 -1.3226 -1.4844
  185MOL   H24044768   1.199   6.797   2.435 -0.3603  1.3654 -1.5232
  185MOL   H24144769   1.034   6.788   2.468  1.1719 -0.6410 -3.7990
  185MOL   H24244770   0.977   7.017   2.647  0.9774  2.4783  0.3327
  186MOL     C144771   2.669   2.874   6.839 -0.8346 -0.1157  0.8325
  186MOL     C244772   2.753   2.786   6.932 -0.8757  0.1952  0.2050
  186MOL     C344773   2.907   2.781   6.905  0.1714  0.2456  0.3513
  186MOL     C444774   2.949   2.764   6.756 -0.2904 -0.1989 -0.1068
  186MOL     H544775   2.652   2.826   6.743  1.1209  1.8994 -0.5741
  186MOL     H644776   2.571   2.904   6.873 -1.0336  0.0116  0.1490
  186MOL     H744777   2.748   2.833   7.030 -0.6550  0.8291 -0.0889
  186MOL     H844778   2.963   2.704   6.958  0.7173 -0.2223 -0.8762
  186MOL     H944779   2.947   2.878   6.936 -1.1134  1.1982 -0.9061
  186MOL    H1044780   3.050   2.721   6.750  0.0073  0.2876  1.2294
  186MOL    H1144781   2.889   2.691   6.701  0.8440 -0.3388 -1.1903
  186MOL    H1244782   2.951   2.861   6.706  0.3735 -1.3956 -2.4648
  186MOL    H1344783   2.722   2.966   6.813 -1.0674  1.1430  4.5891
  186MOL    C1444784   2.696   2.637   6.943  0.3853 -0.4930 -0.5590
  186MOL    C1544785   2.549   2.627   6.969 -0.2767 -0.6058 -0.4106
  186MOL    C1644786   2.507   2.666   7.108  0.3709  0.6634 -0.0087
  186MOL    C1744787   2.368   2.713   7.143  0.4078  0.3772  0.1044
  186MOL    H1844788   2.757   2.592   7.020  1.3237 -0.9538 -1.5609
  186MOL    H1944789   2.723   2.588   6.849 -0.6001  1.9712 -2.1872
  186MOL    H2044790   2.501   2.687   6.892 -0.8337 -1.4972 -0.7687
  186MOL    H2144791   2.583   2.733   7.149 -1.1829  2.0323  0.7285
  186MOL    H2244792   2.526   2.582   7.174 -0.4896  0.5229  0.0756
  186MOL    H2344793   2.286   2.653   7.103  2.0814 -1.3824 -0.7456
  186MOL    H2444794   2.357   2.738   7.249 -1.0672 -2.0613  0.5729
  186MOL    H2544795   2.347   2.807   7.093  1.6720 -0.1672 -1.4869
  186MOL    C2644796   2.502   2.482   6.944 -0.1354  0.0204 -0.0505
  186MOL    C2744797   2.372   2.461   6.860 -0.2646  0.4851 -0.3428
  186MOL    C2844798   2.339   2.313   6.858 -0.9783  0.4296  0.1881
  186MOL    C2944799   2.247   2.275   6.979 -0.0658 -0.2193  0.8938
  186MOL    H3044800   2.502   2.429   7.039 -1.9933  1.1718  0.6114
  186MOL    H3144801   2.578   2.431   6.883  1.3155  1.7511  0.2566
  186MOL    H3244802   2.288   2.503   6.914 -0.1263  0.6972 -0.2907
  186MOL    H3344803   2.432   2.258   6.841 -0.7194  1.2190 -1.0064
  186MOL    H3444804   2.293   2.278   6.766  2.9876  1.4681 -2.2964
  186MOL    H3544805   2.279   2.333   7.066  1.6220 -0.8326  0.7016
  186MOL    H3644806   2.141   2.289   6.957  0.7242  1.3890 -2.1351
  186MOL    H3744807   2.260   2.171   7.009  1.0791 -0.1440  0.7069
  186MOL    C3844808   2.387   2.506   6.716 -0.0177  0.3425  0.2783
  186MOL    C3944809   2.268   2.578   6.642  0.4570 -0.3731  0.8133
  186MOL    C4044810   2.140   2.493   6.646  0.2930 -0.3394  0.3056
  186MOL    C4144811   2.043   2.524   6.762  0.6977  0.5417  0.3653
  186MOL    H4244812   2.421   2.419   6.660  1.1830  1.1173 -0.2113
  186MOL    H4344813   2.474   2.570   6.710  0.1698  0.1039  0.4555
  186MOL    H4444814   2.250   2.673   6.691 -2.2310  0.5985 -1.9297
  186MOL    H4544815   2.168   2.388   6.639 -0.9995 -0.6389 -0.5885
  186MOL    H4644816   2.078   2.492   6.556  1.0644  0.0404 -0.2363
  186MOL    H4744817   2.038   2.631   6.782  0.6498  0.6788 -0.3378
  186MOL    H4844818   1.941   2.492   6.739  1.0470 -1.4874  1.5535
  186MOL    H4944819   2.087   2.478   6.850  3.8964  2.6162 -0.0924
  186MOL    C5044820   2.319   2.604   6.497  0.2545 -0.0312 -0.1106
  186MOL    C5144821   2.232   2.695   6.408  0.0452 -0.3250 -0.2599
  186MOL    C5244822   2.270   2.710   6.260 -0.4982 -0.1036 -0.7067
  186MOL    C5344823   2.206   2.598   6.176  0.1624  0.4744  0.1776
  186MOL    H5444824   2.323   2.505   6.454 -0.5093  0.2196 -0.7790
  186MOL    H5544825   2.418   2.650   6.489  1.2958 -2.0692  0.8400
  186MOL    H5644826   2.136   2.645   6.414  1.0666 -2.3746 -0.7459
  186MOL    H5744827   2.378   2.697   6.255 -0.5509 -0.2730 -1.4919
  186MOL    H5844828   2.246   2.805   6.213 -1.2901  0.1524  0.1976
  186MOL    H5944829   2.241   2.594   6.073  1.0891 -1.5956  0.5303
  186MOL    H6044830   2.229   2.507   6.232 -0.1762  0.6916  0.6793
  186MOL    H6144831   2.097   2.603   6.171  0.1181 -0.2449  0.3160
  186MOL    C6244832   2.205   2.838   6.471 -0.0525 -0.1744  0.2440
  186MOL    C6344833   2.329   2.934   6.468 -0.0925 -0.5212  0.0292
  186MOL    C6444834   2.411   2.927   6.603 -0.1444 -0.6428 -0.1876
  186MOL    C6544835   2.335   2.994   6.721 -0.4142  0.2518 -0.3420
  186MOL    H6644836   2.172   2.825   6.574  2.8668  1.9636  1.5358
  186MOL    H6744837   2.120   2.871   6.412 -1.2035  0.3327  2.1461
  186MOL    H6844838   2.396   2.891   6.393  0.7254  0.8413 -0.0371
  186MOL    H6944839   2.505   2.980   6.590 -1.1065  1.1853  0.1173
  186MOL    H7044840   2.438   2.822   6.618 -0.4558 -0.5144  1.2890
  186MOL    H7144841   2.228   2.985   6.706 -0.1257 -1.5504 -1.4258
  186MOL    H7244842   2.360   2.945   6.815  2.9227  0.3734 -1.0817
  186MOL    H7344843   2.361   3.099   6.728  1.4397 -0.2394  0.6165
  186MOL    C7444844   2.282   3.078   6.427 -0.3902  0.1296 -0.1515
  186MOL    C7544845   2.400   3.176   6.386 -0.2886  0.2765  0.4054
  186MOL    C7644846   2.342   3.318   6.388 -0.2356  0.6485  0.0491
  186MOL    C7744847   2.217   3.343   6.309  0.0240 -0.7695 -0.3410
  186MOL    H7844848   2.203   3.102   6.499 -1.0606 -1.1956 -0.4320
  186MOL    H7944849   2.230   3.059   6.334  0.7090 -1.9093 -0.3656
  186MOL    H8044850   2.466   3.169   6.473  0.7700  1.7012 -0.2615
  186MOL    H8144851   2.417   3.396   6.373 -0.7338  0.8888 -1.1953
  186MOL    H8244852   2.308   3.339   6.490 -0.2536 -0.8299  0.3634
  186MOL    H8344853   2.134   3.285   6.347 -0.1168 -0.5556 -0.3223
  186MOL    H8444854   2.188   3.448   6.314  2.5862 -0.1202  1.4719
  186MOL    H8544855   2.232   3.310   6.206  2.4560  0.8825 -0.5770
  186MOL    C8644856   2.484   3.127   6.259 -0.0358  0.6394  0.4404
  186MOL    C8744857   2.614   3.202   6.223 -0.2637 -0.7653  0.0836
  186MOL    C8844858   2.596   3.325   6.128  0.5501  0.6336 -0.0507
  186MOL    C8944859   2.711   3.437   6.135 -0.4123 -0.2821  0.3100
  186MOL    H9044860   2.420   3.139   6.171  0.1159  0.6909  0.3376
  186MOL    H9144861   2.505   3.021   6.274 -0.9532  0.4261  0.2823
  186MOL    H9244862   2.635   3.235   6.325  0.2725  0.5820 -0.4489
  186MOL    H9344863   2.500   3.373   6.143  0.6439  1.1911 -1.1695
  186MOL    H9444864   2.589   3.287   6.026  1.6076  1.6131 -0.5045
  186MOL    H9544865   2.799   3.397   6.084 -1.0897 -1.7824  0.2828
  186MOL    H9644866   2.665   3.519   6.079 -0.2610  0.8913  1.8722
  186MOL    H9744867   2.748   3.472   6.231 -0.8243 -2.1042  1.1617
  186MOL    C9844868   2.735   3.120   6.177  0.1450 -0.0367  0.3090
  186MOL    C9944869   2.829   3.068   6.280  0.5804 -0.6899  0.3482
  186MOL   C10044870   2.922   3.169   6.337 -0.8021 -0.7369 -0.0311
  186MOL   C10144871   2.981   3.128   6.469 -0.0369 -0.4483 -0.4357
  186MOL   H10244872   2.789   3.167   6.095  0.9399 -1.8330 -0.2190
  186MOL   H10344873   2.692   3.044   6.112  2.8900 -2.1223  0.8325
  186MOL   H10444874   2.770   3.039   6.367 -0.8081  0.0104 -0.3456
  186MOL   H10544875   2.868   3.264   6.342  2.2453  1.0245  0.7897
  186MOL   H10644876   3.008   3.191   6.274  1.2445  1.2333  3.3133
  186MOL   H10744877   3.031   3.033   6.454 -0.4438 -1.0754  1.9432
  186MOL   H10844878   3.043   3.203   6.519 -0.2614 -0.6269  0.1216
  186MOL   H10944879   2.899   3.116   6.541  0.1240 -0.4351 -0.2498
  186MOL   C11044880   2.914   2.947   6.222  0.1455 -0.3032  0.6845
  186MOL   C11144881   2.844   2.814   6.210  0.1841 -0.5487  0.2752
  186MOL   C11244882   2.813   2.766   6.354  0.3446  1.2268 -0.2050
  186MOL   C11344883   2.709   2.640   6.344  0.0511 -0.0754  0.2515
  186MOL   H11444884   3.005   2.936   6.281  1.5138 -1.3157 -1.5525
  186MOL   H11544885   2.955   2.979   6.126 -0.9025 -0.6677  0.0932
  186MOL   H11644886   2.746   2.841   6.172 -0.1050  0.0762  1.4230
  186MOL   H11744887   2.770   2.842   6.419 -2.4869  0.9262 -1.6595
  186MOL   H11844888   2.904   2.728   6.401 -0.4558 -0.8503 -0.2812
  186MOL   H11944889   2.653   2.637   6.437  5.0668  0.5446  3.4723
  186MOL   H12044890   2.638   2.660   6.264 -2.3725 -1.0240  2.1048
  186MOL   H12144891   2.759   2.543   6.334 -1.1893 -0.8040  0.9231
  186MOL   C12244892   2.920   2.702   6.129 -0.6505  0.4248 -0.5564
  186MOL   C12344893   2.946   2.728   5.978  0.1629 -0.4145 -0.1640
  186MOL   C12444894   2.820   2.774   5.894 -0.1115  0.3224 -0.0996
  186MOL   C12544895   2.718   2.657   5.884  0.4792  0.1621  0.1893
  186MOL   H12644896   2.867   2.606   6.129 -1.0363  0.5020  3.7997
  186MOL   H12744897   3.019   2.685   6.170 -1.3610 -0.0063  1.0335
  186MOL   H12844898   3.023   2.805   5.977  0.0733 -0.2900 -2.6752
  186MOL   H12944899   2.839   2.824   5.799  2.7298  0.5246  0.5139
  186MOL   H13044900   2.768   2.852   5.950 -1.8770 -1.5104  0.8572
  186MOL   H13144901   2.622   2.697   5.853  0.2115 -0.1554  0.6023
  186MOL   H13244902   2.735   2.591   5.800 -0.5579 -0.2296  0.2810
  186MOL   H13344903   2.709   2.591   5.970 -1.4765 -0.2145 -0.2885
  186MOL   C13444904   3.010   2.601   5.918 -0.6567  0.3656 -0.1909
  186MOL   C13544905   3.055   2.623   5.768  0.2857  0.2179 -0.4197
  186MOL   C13644906   3.149   2.507   5.736 -0.5373  0.3640 -0.7814
  186MOL   C13744907   3.101   2.367   5.715 -0.3348  0.5345 -0.0239
  186MOL   H13844908   2.944   2.515   5.935 -0.8156  0.0362 -2.4101
  186MOL   H13944909   3.101   2.581   5.974 -0.8433  0.7385  0.2529
  186MOL   H14044910   2.961   2.614   5.714 -0.2687 -0.1935  0.5992
  186MOL   H14144911   3.234   2.505   5.804 -1.1697  1.2546  0.0505
  186MOL   H14244912   3.216   2.520   5.652 -0.7143  0.6150 -0.8852
  186MOL   H14344913   3.037   2.369   5.627 -0.0325  2.9761 -0.2122
  186MOL   H14444914   3.174   2.287   5.698 -1.5207 -0.8616  1.2897
  186MOL   H14544915   3.053   2.318   5.800  1.4831 -0.9347  0.1905
  186MOL   C14644916   3.130   2.755   5.738 -0.3181 -0.7466  0.1666
  186MOL   C14744917   3.149   2.778   5.583  0.1763 -0.1505  0.1786
  186MOL   C14844918   3.299   2.815   5.563 -0.5157  0.5254  0.0935
  186MOL   C14944919   3.343   2.949   5.633  0.2325  0.0112  0.2405
  186MOL   H15044920   3.225   2.733   5.786  0.5192  0.2917 -0.9582
  186MOL   H15144921   3.085   2.846   5.778  2.2660  0.1183  1.2381
  186MOL   H15244922   3.141   2.683   5.531  5.0270  0.4439 -1.9877
  186MOL   H15344923   3.321   2.815   5.456  1.7081 -0.7623  0.5122
  186MOL   H15444924   3.360   2.731   5.597 -0.1234  0.1253 -1.5653
  186MOL   H15544925   3.451   2.962   5.618  0.2731 -0.2935  0.2770
  186MOL   H15644926   3.288   3.035   5.595  0.1768 -0.3863 -0.5640
  186MOL   H15744927   3.337   2.958   5.742 -0.0217 -0.0371  0.2285
  186MOL   C15844928   3.050   2.877   5.502  0.6060 -0.5155 -1.0246
  186MOL   C15944929   2.909   2.819   5.478  0.4045  0.0593 -0.0723
  186MOL   C16044930   2.917   2.687   5.399  1.4343 -0.0428  0.4790
  186MOL   C16144931   2.779   2.630   5.339 -0.4404  0.3948  0.3524
  186MOL   H16244932   3.101   2.901   5.408 -0.4315  1.4016 -1.1312
  186MOL   H16344933   3.048   2.970   5.559  3.1381 -1.3297  0.4760
  186MOL   H16444934   2.855   2.795   5.570 -0.7304  2.3886 -0.0938
  186MOL   H16544935   2.953   2.605   5.462 -1.4013 -1.8999 -0.2134
  186MOL   H16644936   2.989   2.695   5.317  0.8608 -1.2312 -0.1495
  186MOL   H16744937   2.800   2.527   5.309  0.8682  0.3740  1.3023
  186MOL   H16844938   2.697   2.639   5.409 -0.8401  1.7192 -0.2727
  186MOL   H16944939   2.748   2.678   5.246 -1.7773 -0.8531  0.1444
  186MOL   C17044940   2.831   2.925   5.390 -0.1293  0.0030 -0.6523
  186MOL   C17144941   2.791   3.055   5.470  0.6570 -0.0519 -0.7372
  186MOL   C17244942   2.659   3.033   5.548  0.2216 -0.0086 -0.0270
  186MOL   C17344943   2.630   3.155   5.648  0.4077  0.5951 -0.4074
  186MOL   H17444944   2.738   2.895   5.342 -1.4067 -0.7070  2.1629
  186MOL   H17544945   2.900   2.952   5.309 -0.3168  0.4595 -0.6598
  186MOL   H17644946   2.867   3.078   5.545  1.9242  1.1505 -2.3355
  186MOL   H17744947   2.665   2.946   5.613 -0.5481  0.0337  0.1006
  186MOL   H17844948   2.578   3.015   5.477 -0.8630  0.9846  0.9352
  186MOL   H17944949   2.558   3.114   5.720 -1.9706  1.9739 -1.9344
  186MOL   H18044950   2.715   3.179   5.712 -0.6685  0.2027  1.2277
  186MOL   H18144951   2.591   3.242   5.596  1.6615  1.3119 -0.1629
  186MOL   C18244952   2.771   3.177   5.370 -0.3882  0.0874 -0.3002
  186MOL   C18344953   2.905   3.233   5.295 -0.1921  0.2783  0.3524
  186MOL   C18444954   3.013   3.250   5.393 -0.5200  0.0150  0.5426
  186MOL   C18544955   3.004   3.360   5.492 -0.1749  0.6387  0.2115
  186MOL   H18644956   2.724   3.261   5.422 -0.8573 -0.8866  0.8547
  186MOL   H18744957   2.708   3.146   5.287 -0.2044 -0.3757 -0.2650
  186MOL   H18844958   2.926   3.159   5.218 -2.0012  1.1947 -1.0819
  186MOL   H18944959   3.092   3.269   5.320 -1.9832 -1.4616 -1.5093
  186MOL   H19044960   3.042   3.158   5.444  0.0710 -0.4112 -0.5556
  186MOL   H19144961   2.973   3.459   5.457 -1.5322 -0.6076 -2.2370
  186MOL   H19244962   2.925   3.343   5.565 -2.6104 -2.4730 -2.9685
  186MOL   H19344963   3.103   3.377   5.535  0.8456 -0.8187 -1.5255
  186MOL   C19444964   2.885   3.360   5.210 -0.2302 -0.5891 -0.0230
  186MOL   C19544965   2.884   3.335   5.058  0.5108  0.1252  0.7014
  186MOL   C19644966   2.781   3.233   5.007  0.1623  0.3740  0.3255
  186MOL   C19744967   2.634   3.277   5.037  0.1669  0.0739 -0.3971
  186MOL   H19844968   2.962   3.436   5.228 -1.4669  1.3579 -2.5333
  186MOL   H19944969   2.802   3.427   5.232 -1.5925 -1.9149 -1.0168
  186MOL   H20044970   2.856   3.434   5.023 -0.6174 -1.2315 -2.3993
  186MOL   H20144971   2.795   3.128   5.034 -0.2654 -0.4838 -2.6015
  186MOL   H20244972   2.796   3.229   4.899 -0.6577 -1.5743  0.2628
  186MOL   H20344973   2.565   3.193   5.039 -2.1174  1.8855 -1.6974
  186MOL   H20444974   2.628   3.327   5.134  1.2425 -3.0292  1.3481
  186MOL   H20544975   2.592   3.353   4.971  0.2632  0.9422  0.5173
  186MOL   C20644976   3.021   3.295   4.996 -0.4434  0.7690 -0.0769
  186MOL   C20744977   3.141   3.398   5.019  0.6710  0.4571 -0.0187
  186MOL   C20844978   3.112   3.550   4.984  0.2084 -0.1072  0.3931
  186MOL   C20944979   3.214   3.650   5.046 -0.3889 -0.2911  0.7828
  186MOL   H21044980   2.998   3.283   4.890 -0.4481  1.6614 -0.1760
  186MOL   H21144981   3.049   3.194   5.027 -0.0445  0.2635 -1.9938
  186MOL   H21244982   3.161   3.396   5.126 -2.6464  0.3436  0.6391
  186MOL   H21344983   3.011   3.580   5.009 -0.1757 -0.5708 -0.5872
  186MOL   H21444984   3.107   3.555   4.875  1.4697 -3.0860  0.1435
  186MOL   H21544985   3.168   3.748   5.040 -1.5127 -0.7017  2.3168
  186MOL   H21644986   3.242   3.628   5.149  4.9007  2.5138  0.1228
  186MOL   H21744987   3.313   3.658   5.003 -0.5266 -1.0254  0.3075
  186MOL   C21844988   3.260   3.343   4.941 -0.1527 -0.1606 -0.0008
  186MOL   C21944989   3.335   3.224   5.003 -0.0675 -0.0653  0.7308
  186MOL   C22044990   3.397   3.259   5.138 -0.2621  0.1902 -0.0478
  186MOL   C22144991   3.381   3.141   5.240 -0.1965 -0.0385 -0.5101
  186MOL   H22244992   3.319   3.432   4.917 -1.3363  1.1615  1.8453
  186MOL   H22344993   3.220   3.306   4.846  1.6095 -1.7687 -0.1338
  186MOL   H22444994   3.262   3.148   5.030  1.4199 -1.7308  0.1914
  186MOL   H22544995   3.332   3.335   5.182 -1.7438  0.6067 -2.8082
  186MOL   H22644996   3.500   3.293   5.127  0.2369 -1.2803  0.0495
  186MOL   H22744997   3.277   3.110   5.241 -0.0076 -0.6559  0.3002
  186MOL   H22844998   3.449   3.060   5.216 -0.3780  0.2335 -1.9977
  186MOL   H22944999   3.405   3.177   5.341  0.6706 -1.5370 -0.1718
  186MOL   C23045000   3.434   3.170   4.903  0.4677 -0.0886 -0.7550
  186MOL   C23145001   3.373   3.101   4.788  0.6035 -0.1130  0.7283
  186MOL   C23245002   3.483   3.037   4.692 -0.4429  0.2293  1.1743
  186MOL   C23345003   3.540   3.136   4.595  0.1728  0.7484 -0.0045
  186MOL   H23445004   3.491   3.096   4.958  1.4883  1.7523  0.7375
  186MOL   H23545005   3.506   3.242   4.863  0.4730 -0.5144 -1.5176
  186MOL   H23645006   3.300   3.031   4.827  0.4451 -0.5316 -0.2859
  186MOL   H23745007   3.431   2.954   4.644  2.0196  0.3205 -1.8760
  186MOL   H23845008   3.568   2.993   4.744  1.0957  1.9675  0.2365
  186MOL   H23945009   3.483   3.129   4.502 -0.4090  2.4870  0.1969
  186MOL   H24045010   3.536   3.237   4.636 -0.0884  0.6955  0.0989
  186MOL   H24145011   3.645   3.112   4.580 -0.4719 -2.0042 -0.3844
  186MOL   H24245012   3.324   3.176   4.725 -0.5082 -2.4859 -1.3452
  187MOL     C145013   4.258   4.545   0.954 -0.2199 -0.1902  0.0926
  187MOL     C245014   4.274   4.401   1.011  0.2692  0.4833  0.5915
  187MOL     C345015   4.185   4.299   0.948 -0.3984 -0.5296  0.1544
  187MOL     C445016   4.042   4.336   0.930 -0.1391  0.3762  0.1008
  187MOL     H545017   4.157   4.573   0.985  0.6270  1.9041  1.0499
  187MOL     H645018   4.328   4.620   0.990 -2.4154  2.2043 -0.4053
  187MOL     H745019   4.375   4.375   0.978  0.1985  0.2476  0.5661
  187MOL     H845020   4.195   4.202   0.998  0.0624  0.2040  1.5092
  187MOL     H945021   4.223   4.288   0.847  0.1141 -0.1248  0.3016
  187MOL    H1045022   4.038   4.434   0.883 -0.1741  0.3704  0.0933
  187MOL    H1145023   3.989   4.261   0.873 -0.0505  0.6708 -0.3691
  187MOL    H1245024   3.990   4.364   1.022  0.7262  3.3301 -0.2741
  187MOL    H1345025   4.261   4.540   0.845 -0.3293  1.8639 -0.0244
  187MOL    C1445026   4.271   4.401   1.167 -0.5559 -0.2340  0.4920
  187MOL    C1545027   4.362   4.501   1.241  0.4465  0.5075  0.0114
  187MOL    C1645028   4.507   4.488   1.191 -0.0889  0.1909  0.3713
  187MOL    C1745029   4.608   4.596   1.233 -0.4537  0.3925 -0.1005
  187MOL    H1845030   4.297   4.301   1.203 -1.3989 -0.5788  0.1516
  187MOL    H1945031   4.171   4.416   1.208 -1.4553 -3.5245 -0.3042
  187MOL    H2045032   4.320   4.597   1.211 -1.1240  0.3211  1.5237
  187MOL    H2145033   4.511   4.476   1.082 -0.9146 -0.0495  0.3662
  187MOL    H2245034   4.554   4.400   1.233 -3.2742 -1.6132  0.3252
  187MOL    H2345035   4.699   4.583   1.175 -0.0316 -0.5455  0.7726
  187MOL    H2445036   4.569   4.698   1.221 -0.5622  0.5616  1.6178
  187MOL    H2545037   4.636   4.594   1.338 -0.1647  0.6346 -0.1720
  187MOL    C2645038   4.353   4.479   1.392 -0.5723  0.1293 -0.6586
  187MOL    C2745039   4.221   4.523   1.459  0.0984 -0.3051  0.4874
  187MOL    C2845040   4.236   4.670   1.514 -0.2846 -0.1471 -0.1723
  187MOL    C2945041   4.106   4.743   1.553 -0.2665 -0.3261  0.0312
  187MOL    H3045042   4.428   4.540   1.441 -0.5223 -0.7908  0.4429
  187MOL    H3145043   4.370   4.373   1.413 -1.1016  0.1844  0.0533
  187MOL    H3245044   4.140   4.501   1.390  0.0967  0.2892  0.3000
  187MOL    H3345045   4.297   4.730   1.448 -2.9203  2.4385 -0.3857
  187MOL    H3445046   4.296   4.655   1.604 -2.1772 -3.0655  0.6920
  187MOL    H3545047   4.041   4.677   1.612 -0.1241  0.4719  1.1019
  187MOL    H3645048   4.131   4.821   1.624  2.4206 -1.6607  0.5963
  187MOL    H3745049   4.038   4.788   1.481 -0.0158  0.7494  0.4662
  187MOL    C3845050   4.197   4.433   1.586 -0.1974 -0.3318 -0.0028
  187MOL    C3945051   4.152   4.285   1.563  0.2774 -0.8615  0.5193
  187MOL    C4045052   4.031   4.267   1.468  0.0878 -0.0781 -0.1126
  187MOL    C4145053   3.900   4.347   1.504 -0.0834  0.4195 -0.9034
  187MOL    H4245054   4.114   4.480   1.638  1.5753  0.8699  1.7816
  187MOL    H4345055   4.278   4.431   1.659 -1.0184  1.7547  0.9900
  187MOL    H4445056   4.235   4.236   1.514  1.6027  1.0877  0.7763
  187MOL    H4545057   4.012   4.160   1.461  1.5717 -0.4216  0.8555
  187MOL    H4645058   4.066   4.291   1.367  0.1269  0.1601 -0.0430
  187MOL    H4745059   3.921   4.454   1.504  1.5542  0.1139 -1.0370
  187MOL    H4845060   3.827   4.313   1.430 -0.8594 -1.5699  0.7134
  187MOL    H4945061   3.875   4.306   1.601  1.0975 -1.3961 -1.3357
  187MOL    C5045062   4.107   4.213   1.701 -0.2397  0.1739  0.0874
  187MOL    C5145063   4.224   4.200   1.810  0.6964 -0.4313  0.2246
  187MOL    C5245064   4.283   4.065   1.816 -1.1937  0.7385 -0.0935
  187MOL    C5345065   4.428   4.056   1.865 -0.2064  0.0617  0.0222
  187MOL    H5445066   4.062   4.117   1.680  0.6504 -0.5742  1.5082
  187MOL    H5545067   4.029   4.276   1.743 -1.8836 -1.5663 -0.3231
  187MOL    H5645068   4.305   4.269   1.786 -0.5570  0.2128 -2.3775
  187MOL    H5745069   4.286   4.029   1.714  1.4224  2.4178 -0.6499
  187MOL    H5845070   4.228   3.993   1.877  0.4033 -0.4717 -0.0601
  187MOL    H5945071   4.434   4.063   1.973 -1.7816  0.5431  0.0870
  187MOL    H6045072   4.478   3.962   1.841 -0.2332  0.5840 -2.2129
  187MOL    H6145073   4.496   4.130   1.823 -0.0368  0.8004  1.5844
  187MOL    C6245074   4.172   4.247   1.945  0.1553  0.8487 -0.2818
  187MOL    C6345075   4.141   4.394   1.960  0.0111  0.1834 -0.4870
  187MOL    C6445076   4.271   4.479   1.975 -0.2912 -0.0617 -0.1281
  187MOL    C6545077   4.256   4.630   1.927 -0.1868 -0.6322 -0.4340
  187MOL    H6645078   4.240   4.198   2.016  0.1434 -0.3089 -1.0583
  187MOL    H6745079   4.077   4.194   1.954 -0.9071  2.4642 -1.7716
  187MOL    H6845080   4.095   4.428   1.867  0.9316  3.6501  0.2428
  187MOL    H6945081   4.366   4.445   1.934 -0.7767 -0.7187 -0.7274
  187MOL    H7045082   4.297   4.479   2.081  2.9632 -2.1877 -0.8284
  187MOL    H7145083   4.280   4.655   1.823 -1.7785  1.2073 -0.3794
  187MOL    H7245084   4.161   4.673   1.960 -0.1520 -0.8801 -0.0143
  187MOL    H7345085   4.336   4.684   1.977 -0.8939  0.6888 -0.7090
  187MOL    C7445086   4.041   4.431   2.073 -0.5138 -0.1305 -0.0704
  187MOL    C7545087   3.892   4.399   2.040 -0.1269 -0.1312  0.0576
  187MOL    C7645088   3.815   4.519   1.983 -0.1385  0.9119  0.2616
  187MOL    C7745089   3.849   4.544   1.836 -1.0717 -0.7258 -0.5728
  187MOL    H7845090   4.032   4.536   2.098  4.6984  0.6463 -1.0181
  187MOL    H7945091   4.080   4.389   2.166 -2.4273 -1.5278  0.1476
  187MOL    H8045092   3.891   4.315   1.971 -0.4503  0.5632 -0.7926
  187MOL    H8145093   3.823   4.608   2.046  1.8508  0.6492  0.3910
  187MOL    H8245094   3.707   4.505   1.983  0.2057 -2.2563 -1.8117
  187MOL    H8345095   3.845   4.450   1.781 -0.8403 -1.3155  0.4046
  187MOL    H8445096   3.793   4.628   1.796  2.4859  1.5011 -1.0705
  187MOL    H8545097   3.949   4.584   1.820 -2.0651  1.6825 -0.9697
  187MOL    C8645098   3.831   4.350   2.167  0.4157 -0.1798  0.7819
  187MOL    C8745099   3.678   4.322   2.185  0.3122  0.1868 -0.2131
  187MOL    C8845100   3.641   4.309   2.334 -0.3174  0.0181  0.0231
  187MOL    C8945101   3.715   4.205   2.424  0.2047 -0.8135  0.3863
  187MOL    H9045102   3.844   4.439   2.228 -0.4808  0.3768  0.1803
  187MOL    H9145103   3.884   4.264   2.208  0.0099 -0.1054  1.4587
  187MOL    H9245104   3.619   4.409   2.154 -2.7168 -1.0669  1.8055
  187MOL    H9345105   3.538   4.274   2.341 -0.1762 -0.6625 -1.1108
  187MOL    H9445106   3.651   4.400   2.393  0.3884 -0.9578  1.4440
  187MOL    H9545107   3.678   4.105   2.403 -2.7982  0.3998 -0.4169
  187MOL    H9645108   3.823   4.215   2.412 -0.1253 -0.0855 -2.4432
  187MOL    H9745109   3.696   4.223   2.530 -0.0964 -0.5416  0.2885
  187MOL    C9845110   3.641   4.210   2.086 -0.1745 -0.1815  0.2093
  187MOL    C9945111   3.502   4.206   2.015 -0.1508 -0.2749 -0.6564
  187MOL   C10045112   3.459   4.344   1.947 -0.5822  0.4361 -0.0660
  187MOL   C10145113   3.338   4.321   1.859 -0.0127 -0.5463 -0.3103
  187MOL   H10245114   3.686   4.119   2.128  1.9098  0.6054 -0.2411
  187MOL   H10345115   3.699   4.218   1.994 -0.9482 -0.7563 -0.3369
  187MOL   H10445116   3.521   4.134   1.936  0.0557  0.0969 -0.9464
  187MOL   H10545117   3.544   4.379   1.888 -2.8261  3.8033 -1.4265
  187MOL   H10645118   3.430   4.408   2.030  1.2154  1.6612 -0.3548
  187MOL   H10745119   3.345   4.226   1.806 -0.1721 -0.6241 -0.1934
  187MOL   H10845120   3.243   4.314   1.913  1.1093 -0.3456  1.7607
  187MOL   H10945121   3.333   4.410   1.797 -0.3199 -0.6161 -0.3871
  187MOL   C11045122   3.390   4.159   2.114 -0.3811 -0.2282 -0.0664
  187MOL   C11145123   3.376   4.008   2.164  0.4242 -0.9832 -0.0100
  187MOL   C11245124   3.378   3.902   2.053  0.2013 -0.8109 -0.4055
  187MOL   C11345125   3.410   3.758   2.102 -0.2988 -0.7975  0.1360
  187MOL   H11445126   3.293   4.174   2.066 -0.6012 -0.5531  0.2692
  187MOL   H11545127   3.401   4.225   2.200  0.7368  0.7893 -0.9690
  187MOL   H11645128   3.464   3.991   2.226  0.6925 -1.3134 -0.4822
  187MOL   H11745129   3.444   3.936   1.973  1.1948  1.1880  1.2172
  187MOL   H11845130   3.286   3.905   1.995  0.8012 -1.6346 -1.4264
  187MOL   H11945131   3.503   3.757   2.159 -0.0099 -0.6874 -0.3355
  187MOL   H12045132   3.326   3.708   2.150 -0.4304  0.0803  0.8194
  187MOL   H12145133   3.434   3.688   2.022  0.0705  0.2925 -0.7250
  187MOL   C12245134   3.243   3.998   2.251 -0.2349  0.1900  0.5002
  187MOL   C12345135   3.208   4.085   2.374  0.3010  0.2808  0.7082
  187MOL   C12445136   3.308   4.069   2.493  0.8303 -0.0363 -0.3973
  187MOL   C12545137   3.301   4.186   2.590  0.1542  0.7812  0.3170
  187MOL   H12645138   3.241   3.904   2.306  0.4420  0.7327  1.4838
  187MOL   H12745139   3.159   4.008   2.183  0.9208  0.5069 -0.9264
  187MOL   H12845140   3.232   4.183   2.334 -0.4997 -0.0188 -0.5199
  187MOL   H12945141   3.409   4.051   2.457  0.6299 -1.9008 -0.0793
  187MOL   H13045142   3.278   3.977   2.541  1.4163 -1.1129 -2.0416
  187MOL   H13145143   3.371   4.261   2.552  2.0024 -1.3630 -0.6373
  187MOL   H13245144   3.200   4.219   2.614 -0.8571 -1.1549 -1.1574
  187MOL   H13345145   3.337   4.139   2.681  0.4455 -1.3994 -0.9078
  187MOL   C13445146   3.059   4.058   2.415  0.6489  0.5726  0.1831
  187MOL   C13545147   2.955   4.138   2.323 -0.0137 -0.3215 -0.5244
  187MOL   C13645148   2.926   4.281   2.377 -0.6072 -0.1924  0.0529
  187MOL   C13745149   2.883   4.376   2.268 -0.4608 -0.3510  0.3759
  187MOL   H13845150   3.045   4.082   2.521  0.7650  0.3887  0.2398
  187MOL   H13945151   3.048   3.950   2.414  3.4916  0.2716 -1.4748
  187MOL   H14045152   3.006   4.155   2.228  2.0209 -0.6389  0.4849
  187MOL   H14145153   3.016   4.323   2.423 -0.5953 -0.5259  0.3377
  187MOL   H14245154   2.856   4.270   2.459 -0.5557  1.7326  0.3734
  187MOL   H14345155   2.808   4.319   2.213  0.2655 -0.2382 -0.7593
  187MOL   H14445156   2.829   4.464   2.301 -1.0208 -0.4469 -0.2626
  187MOL   H14545157   2.959   4.396   2.192  0.0301 -0.4666  0.8267
  187MOL   C14645158   2.831   4.054   2.308  0.1891 -0.2068 -0.7463
  187MOL   C14745159   2.819   3.975   2.177 -0.0890  0.0375 -0.6259
  187MOL   C14845160   2.733   4.052   2.072 -0.3075 -0.1838 -0.2747
  187MOL   C14945161   2.769   4.000   1.933 -0.0463  0.7710  0.2579
  187MOL   H15045162   2.738   4.112   2.312  0.4849  0.1454  1.4299
  187MOL   H15145163   2.822   3.991   2.396  2.4089 -1.8569 -1.6574
  187MOL   H15245164   2.917   3.966   2.132 -0.1395  1.6749 -1.0866
  187MOL   H15345165   2.739   4.160   2.053 -2.6595  0.0376  0.1232
  187MOL   H15445166   2.628   4.032   2.092 -0.4790  0.9431 -0.0120
  187MOL   H15545167   2.871   3.975   1.903 -0.2610  1.7844 -1.4080
  187MOL   H15645168   2.715   3.907   1.918  1.1901  0.2230 -0.9286
  187MOL   H15745169   2.734   4.062   1.851 -0.8000 -1.2171 -0.9528
  187MOL   C15845170   2.770   3.825   2.204 -0.3429  0.3563  1.0601
  187MOL   C15945171   2.880   3.726   2.242  0.0154 -0.4787  0.6468
  187MOL   C16045172   2.975   3.696   2.132 -0.1021  0.2106 -0.0002
  187MOL   C16145173   2.908   3.625   2.017  0.0610  0.1283 -0.6819
  187MOL   H16245174   2.714   3.792   2.116  0.6165  2.3943 -0.3550
  187MOL   H16345175   2.693   3.829   2.281  0.8781  0.2661  2.2981
  187MOL   H16445176   2.951   3.768   2.313  1.3209 -2.2873  0.4645
  187MOL   H16545177   3.054   3.636   2.177  0.8130  0.6366 -1.0110
  187MOL   H16645178   3.033   3.781   2.095  2.1884 -0.2935  2.2801
  187MOL   H16745179   2.976   3.563   1.959  0.3470 -2.0613  1.9262
  187MOL   H16845180   2.816   3.573   2.043 -0.4356  0.7966 -1.0726
  187MOL   H16945181   2.859   3.701   1.956 -1.4822 -0.4146 -0.1460
  187MOL   C17045182   2.807   3.604   2.307  0.7696 -0.1243  0.2122
  187MOL   C17145183   2.784   3.631   2.450 -0.3748 -0.3342 -0.3040
  187MOL   C17245184   2.912   3.635   2.541  0.0269 -0.0700  0.2621
  187MOL   C17345185   2.893   3.736   2.663 -0.3076  0.9615 -0.1247
  187MOL   H17445186   2.875   3.518   2.305  0.0125 -0.7078 -1.2621
  187MOL   H17545187   2.722   3.583   2.242  1.7515 -1.4210 -0.6704
  187MOL   H17645188   2.741   3.732   2.454  1.1229  0.3071 -0.1789
  187MOL   H17745189   3.010   3.658   2.499  0.1994 -1.6802 -0.2539
  187MOL   H17845190   2.938   3.535   2.574  1.8046 -0.0672 -1.1077
  187MOL   H17945191   2.902   3.841   2.633 -1.2139  0.3861 -2.5213
  187MOL   H18045192   2.803   3.722   2.722 -0.4086 -1.1580 -0.7420
  187MOL   H18145193   2.976   3.722   2.732 -1.7335 -3.0129  0.8926
  187MOL   C18245194   2.674   3.547   2.518 -0.3345  0.1171  0.4573
  187MOL   C18345195   2.530   3.551   2.444 -0.9466  0.0289  0.3537
  187MOL   C18445196   2.419   3.633   2.522 -0.4182 -0.1564  0.7723
  187MOL   C18545197   2.439   3.784   2.527  0.2684 -0.1258 -0.6954
  187MOL   H18645198   2.669   3.570   2.625  4.0124 -1.4070  1.0564
  187MOL   H18745199   2.712   3.445   2.515  2.3474  0.9917  2.6970
  187MOL   H18845200   2.541   3.587   2.342  1.0312 -1.6566 -0.0690
  187MOL   H18945201   2.406   3.596   2.624 -1.7703  2.8015  1.7134
  187MOL   H19045202   2.325   3.623   2.468  0.2231  0.8138 -0.5587
  187MOL   H19145203   2.347   3.826   2.569  0.4523 -1.9182  1.6011
  187MOL   H19245204   2.522   3.821   2.588  0.2683 -4.6099  2.2041
  187MOL   H19345205   2.457   3.815   2.425 -1.5564  1.1430 -0.6617
  187MOL   C19445206   2.480   3.404   2.421  0.1165  0.0007  0.2409
  187MOL   C19545207   2.540   3.329   2.294 -0.3385  0.3989 -0.1151
  187MOL   C19645208   2.431   3.343   2.187 -0.0737 -0.0947 -0.2767
  187MOL   C19745209   2.385   3.481   2.137 -0.3696  0.2143  0.1504
  187MOL   H19845210   2.371   3.396   2.416  0.0973 -2.1055  3.2467
  187MOL   H19945211   2.507   3.349   2.511 -1.0110 -0.1147  0.5203
  187MOL   H20045212   2.633   3.373   2.257  0.4495 -1.3866 -0.3241
  187MOL   H20145213   2.348   3.280   2.218  0.6716 -0.5437  0.8336
  187MOL   H20245214   2.478   3.289   2.105  1.5291  1.5078 -0.4486
  187MOL   H20345215   2.473   3.540   2.108 -0.8350  1.0073  0.3325
  187MOL   H20445216   2.318   3.476   2.051 -0.3267  1.9351 -0.0011
  187MOL   H20545217   2.328   3.532   2.214  0.0750 -1.6773  1.7624
  187MOL   C20645218   2.564   3.179   2.324  0.5925  0.1221 -1.0892
  187MOL   C20745219   2.673   3.104   2.236 -0.9148  0.1587  0.0072
  187MOL   C20845220   2.814   3.158   2.281  1.5486  0.4389  0.2491
  187MOL   C20945221   2.930   3.070   2.248 -0.2404  0.3186 -0.0055
  187MOL   H21045222   2.466   3.132   2.319  1.2086 -1.4150  0.6863
  187MOL   H21145223   2.597   3.159   2.426 -2.6466  0.1291  0.0062
  187MOL   H21245224   2.671   3.000   2.272  2.5391  0.1871  0.4697
  187MOL   H21345225   2.811   3.159   2.390  1.3808  1.3356  0.2362
  187MOL   H21445226   2.817   3.264   2.254  0.9654  0.2596 -0.5474
  187MOL   H21545227   2.954   3.067   2.142  1.3686 -2.0813  0.3829
  187MOL   H21645228   3.022   3.105   2.295 -0.6560 -1.0378  1.8834
  187MOL   H21745229   2.913   2.969   2.284 -2.6339  0.9676  0.7506
  187MOL   C21845230   2.654   3.095   2.083 -0.6257 -0.3732  0.5303
  187MOL   C21945231   2.520   3.026   2.041 -0.0882 -0.1127 -0.0245
  187MOL   C22045232   2.547   2.872   2.030  1.3936 -0.3442  1.0524
  187MOL   C22145233   2.625   2.818   1.913 -0.3758  0.3776  0.2575
  187MOL   H22245234   2.733   3.044   2.029 -0.0693  0.0215  0.9685
  187MOL   H22345235   2.660   3.200   2.052 -0.4762 -1.2230 -2.5312
  187MOL   H22445236   2.439   3.043   2.113 -0.8156 -0.0038 -0.8598
  187MOL   H22545237   2.450   2.822   2.034 -0.1430  2.3653 -1.1075
  187MOL   H22645238   2.599   2.846   2.122  2.0389  1.0954  1.1069
  187MOL   H22745239   2.576   2.839   1.818  0.3344 -2.6497 -0.8413
  187MOL   H22845240   2.729   2.849   1.917 -0.6743  1.5335 -0.7094
  187MOL   H22945241   2.628   2.709   1.915 -0.6598  0.3581 -0.1939
  187MOL   C23045242   2.466   3.071   1.901  0.5272  0.2482 -0.0284
  187MOL   C23145243   2.346   2.997   1.835  0.2768 -0.3045  0.3024
  187MOL   C23245244   2.341   3.043   1.683  0.1365 -0.0015  0.5282
  187MOL   C23345245   2.237   2.961   1.606 -0.3971 -0.1972  0.8903
  187MOL   H23445246   2.552   3.070   1.834  1.3446  2.7949  0.8920
  187MOL   H23545247   2.453   3.179   1.902  0.2744  0.2149  1.5949
  187MOL   H23645248   2.346   2.889   1.851 -1.1484 -0.1904  1.0718
  187MOL   H23745249   2.432   3.009   1.634 -1.7166 -1.9925 -1.6390
  187MOL   H23845250   2.333   3.152   1.677  0.4630 -0.0842 -1.9944
  187MOL   H23945251   2.265   2.855   1.602  2.0253  0.4396 -0.7849
  187MOL   H24045252   2.132   2.973   1.633 -0.8029  2.5021 -1.6536
  187MOL   H24145253   2.254   2.994   1.503  2.3144 -0.0231  1.3537
  187MOL   H24245254   2.250   3.027   1.877 -0.1620  0.7085 -1.3748
  188MOL     C145255   6.953   1.642   1.728 -0.1273 -0.2117 -0.7246
  188MOL     C245256   7.103   1.674   1.764  0.0003  0.0150  0.1545
  188MOL     C345257   7.176   1.753   1.650 -0.3128  0.0510  0.5645
  188MOL     C445258   7.128   1.900   1.643 -0.0358 -0.0053 -0.2042
  188MOL     H545259   6.939   1.561   1.657 -0.6904  0.6460 -1.6062
  188MOL     H645260   6.908   1.610   1.822 -0.0392  0.2162 -0.5319
  188MOL     H745261   7.109   1.739   1.851  3.0551 -0.7958  0.6208
  188MOL     H845262   7.161   1.696   1.559  0.7593 -0.9036  0.9734
  188MOL     H945263   7.278   1.750   1.690 -0.6648 -1.7119  1.3570
  188MOL    H1045264   7.019   1.908   1.644 -0.4566 -4.5709 -0.1783
  188MOL    H1145265   7.186   1.959   1.713 -0.6018 -0.0678  0.3183
  188MOL    H1245266   7.164   1.946   1.551  1.1413  0.3580  0.4291
  188MOL    H1345267   6.891   1.725   1.693 -0.0400  2.1134  4.1466
  188MOL    C1445268   7.188   1.545   1.803  0.0144 -0.1805  0.1536
  188MOL    C1545269   7.137   1.479   1.931 -0.0165 -1.0705 -0.1030
  188MOL    C1645270   7.151   1.569   2.052  0.1471  0.2545 -0.2263
  188MOL    C1745271   7.292   1.596   2.110  0.2604  0.6766  0.2357
  188MOL    H1845272   7.296   1.563   1.802 -0.1123  0.5949  0.8022
  188MOL    H1945273   7.172   1.473   1.722 -0.1187 -0.2512  0.2425
  188MOL    H2045274   7.031   1.465   1.913 -0.6396  1.5892  1.2688
  188MOL    H2145275   7.092   1.521   2.130  0.5734  2.2286  1.3557
  188MOL    H2245276   7.089   1.657   2.039 -1.3780 -0.7251  0.2613
  188MOL    H2345277   7.345   1.512   2.154 -0.5824 -0.3159 -0.6104
  188MOL    H2445278   7.344   1.648   2.029 -1.7959  1.0426 -0.8932
  188MOL    H2545279   7.284   1.672   2.188 -0.3215  0.3064  0.5349
  188MOL    C2645280   7.209   1.349   1.962 -0.1271 -0.4626  0.1456
  188MOL    C2745281   7.179   1.223   1.864  0.2229  0.0347  0.1716
  188MOL    C2845282   7.031   1.222   1.814 -0.5302 -0.8187 -0.0508
  188MOL    C2945283   6.982   1.105   1.727 -0.3138 -0.7215  0.3672
  188MOL    H3045284   7.181   1.329   2.066  1.1014  2.0014  1.0009
  188MOL    H3145285   7.317   1.362   1.967 -0.3107  0.9418  0.7780
  188MOL    H3245286   7.245   1.239   1.779  0.8911 -1.8649  0.3271
  188MOL    H3345287   7.030   1.307   1.746 -0.9998 -0.6347  0.1849
  188MOL    H3445288   6.966   1.239   1.900  0.0031  0.7220  0.0615
  188MOL    H3545289   6.980   1.008   1.776  0.0813 -1.0923 -0.3384
  188MOL    H3645290   6.889   1.129   1.675  0.4760 -0.1760 -0.8014
  188MOL    H3745291   7.060   1.094   1.652 -0.9752 -1.2952 -0.2425
  188MOL    C3845292   7.210   1.098   1.944 -0.6027 -0.1461 -1.0421
  188MOL    C3945293   7.343   1.074   2.022 -0.0554 -0.3181 -0.0348
  188MOL    C4045294   7.462   1.115   1.931 -0.1961  0.3112 -0.5002
  188MOL    C4145295   7.476   1.049   1.787  0.0640  1.0282 -0.0487
  188MOL    H4245296   7.215   1.025   1.863  1.3835 -2.3764  1.0240
  188MOL    H4345297   7.125   1.076   2.009  0.6373 -1.7729  0.0590
  188MOL    H4445298   7.350   1.139   2.109 -0.8551 -1.0279  0.5683
  188MOL    H4545299   7.554   1.095   1.986  0.6977  0.1741 -2.0184
  188MOL    H4645300   7.465   1.224   1.924 -1.5392  0.4250  0.4381
  188MOL    H4745301   7.574   1.074   1.749  0.6497  1.7060  1.8435
  188MOL    H4845302   7.454   0.942   1.796  1.0105  0.8778  0.4669
  188MOL    H4945303   7.395   1.079   1.720  0.1534 -0.8463 -1.0432
  188MOL    C5045304   7.349   0.928   2.073  0.2217 -0.7689  0.7023
  188MOL    C5145305   7.224   0.880   2.163  0.2702 -0.6067  0.5348
  188MOL    C5245306   7.232   0.945   2.305 -0.1052 -0.3395 -0.6929
  188MOL    C5345307   7.094   0.954   2.375  0.5006  0.6155 -0.0560
  188MOL    H5445308   7.447   0.913   2.118  1.2924  3.0712 -0.2412
  188MOL    H5545309   7.361   0.862   1.987 -0.3528  0.9104 -0.6819
  188MOL    H5645310   7.134   0.907   2.108  0.7576 -0.4786 -0.2234
  188MOL    H5745311   7.287   1.039   2.299  2.9829 -1.9325  1.4891
  188MOL    H5845312   7.299   0.882   2.363 -0.5264 -0.0389  0.1276
  188MOL    H5945313   7.009   0.928   2.312 -0.5965 -2.5397  2.5969
  188MOL    H6045314   7.086   0.915   2.476  1.2776  0.9345  0.1298
  188MOL    H6145315   7.080   1.061   2.390 -1.0324  0.1263  2.3394
  188MOL    C6245316   7.212   0.730   2.177 -0.5345  0.5333  0.5244
  188MOL    C6345317   7.185   0.640   2.055  0.4582  0.0392  0.3869
  188MOL    C6445318   7.068   0.705   1.977 -0.5099 -0.4013  0.0697
  188MOL    C6545319   7.018   0.623   1.852 -0.0207  0.0500  0.3963
  188MOL    H6645320   7.142   0.704   2.256 -0.1397 -0.5680  0.5184
  188MOL    H6745321   7.305   0.696   2.223  0.6003  3.1371  0.2975
  188MOL    H6845322   7.272   0.650   1.991 -0.4059 -2.1617 -1.1850
  188MOL    H6945323   7.097   0.801   1.934 -0.4601 -0.2331  0.4810
  188MOL    H7045324   6.981   0.721   2.039 -1.7182 -0.0402 -1.6742
  188MOL    H7145325   6.966   0.534   1.886 -1.0448 -1.0744 -3.8699
  188MOL    H7245326   6.965   0.684   1.779  0.1997 -0.9654 -0.6162
  188MOL    H7345327   7.107   0.583   1.803  0.8839  0.3236  1.7868
  188MOL    C7445328   7.155   0.494   2.089 -0.9412 -0.3650  0.2305
  188MOL    C7545329   7.284   0.421   2.152 -0.0745  0.2943 -0.1579
  188MOL    C7645330   7.388   0.402   2.047  0.6488  0.0249  0.2747
  188MOL    C7745331   7.355   0.341   1.916 -0.2408 -1.0111  0.8489
  188MOL    H7845332   7.112   0.442   2.003 -0.2083 -2.8230  1.3007
  188MOL    H7945333   7.069   0.493   2.157 -0.4952 -0.5969  0.7988
  188MOL    H8045334   7.314   0.485   2.235 -0.4201  1.9777 -1.3009
  188MOL    H8145335   7.453   0.329   2.095  0.5335  0.9589  1.8576
  188MOL    H8245336   7.436   0.499   2.036  2.4528 -0.8877  0.0002
  188MOL    H8345337   7.299   0.402   1.845  2.5062 -1.2654 -1.6398
  188MOL    H8445338   7.443   0.348   1.852 -0.4983  0.7851  0.6517
  188MOL    H8545339   7.325   0.236   1.914  2.0156 -1.6831  1.1852
  188MOL    C8645340   7.232   0.288   2.216  0.5439 -0.5212 -0.2794
  188MOL    C8745341   7.338   0.207   2.302  0.3283 -0.3398  0.1386
  188MOL    C8845342   7.277   0.063   2.328 -0.6610 -0.0565 -0.0763
  188MOL    C8945343   7.332   7.658   2.233 -0.0379  0.7473 -0.2146
  188MOL    H9045344   7.203   0.225   2.132  4.1649 -1.2178 -1.1040
  188MOL    H9145345   7.143   0.309   2.276  0.5958 -0.8682 -0.0787
  188MOL    H9245346   7.431   0.200   2.247  0.9552  1.6064  0.9320
  188MOL    H9345347   7.168   0.069   2.324 -0.6765  2.3229  2.5035
  188MOL    H9445348   7.294   0.028   2.430  3.9470  0.6542 -0.4863
  188MOL    H9545349   7.431   7.637   2.273 -1.2719 -0.2219  2.4026
  188MOL    H9645350   7.270   7.569   2.244  0.4666  0.2376 -1.4341
  188MOL    H9745351   7.335   7.688   2.128 -0.9308  1.1455 -0.1345
  188MOL    C9845352   7.366   0.277   2.438  0.4673 -0.6600  0.0641
  188MOL    C9945353   7.468   0.213   2.533  0.6815 -0.5544 -0.2576
  188MOL   C10045354   7.459   0.278   2.670  0.3047 -1.1243  0.4593
  188MOL   C10145355   7.505   0.420   2.673  0.4544  0.5925  0.5714
  188MOL   H10245356   7.269   0.291   2.487  0.4490 -0.4011 -0.0450
  188MOL   H10345357   7.397   0.381   2.423 -0.6093 -0.0373  1.9045
  188MOL   H10445358   7.441   0.108   2.540  2.6931 -0.8985  3.0406
  188MOL   H10545359   7.520   0.216   2.736  0.0920 -2.3224 -0.4579
  188MOL   H10645360   7.355   0.276   2.702  0.5031 -0.2928  1.1767
  188MOL   H10745361   7.447   0.486   2.609  1.1657  1.7300  1.0826
  188MOL   H10845362   7.489   0.455   2.775 -3.2058 -1.4891  0.8116
  188MOL   H10945363   7.609   0.435   2.646  0.8582  0.1002  1.7942
  188MOL   C11045364   7.609   0.207   2.465 -0.3453  0.6873 -0.5757
  188MOL   C11145365   0.009   0.121   2.532 -0.5907 -0.2321  0.3054
  188MOL   C11245366   0.149   0.172   2.491  0.4529  0.1607  0.2141
  188MOL   C11345367   0.194   0.300   2.560 -0.1070  0.5956  0.0652
  188MOL   H11445368   7.633   0.313   2.466 -1.2402  0.8944  2.4721
  188MOL   H11545369   7.605   0.196   2.356  0.4168  1.9024 -0.7423
  188MOL   H11645370   0.008   0.136   2.640  0.3479 -1.4484  0.4900
  188MOL   H11745371   0.161   0.172   2.383 -2.1414 -0.6196 -0.1052
  188MOL   H11845372   0.224   0.104   2.533  1.5060  1.0116 -0.2835
  188MOL   H11945373   0.124   0.381   2.542 -1.5563 -0.8586 -0.9514
  188MOL   H12045374   0.200   0.288   2.668 -0.3828  1.7592  0.2190
  188MOL   H12145375   0.295   0.326   2.525  0.3945 -1.3776 -0.0063
  188MOL   C12245376   7.688   7.676   2.501 -0.1984  0.2806 -0.0180
  188MOL   C12345377   7.637   7.593   2.622  0.2259 -0.2284  0.5526
  188MOL   C12445378   0.045   7.580   2.725 -0.4613  0.1527 -0.5560
  188MOL   C12545379   7.700   7.552   2.871  1.2279  0.0967 -0.5839
  188MOL   H12645380   0.073   7.634   2.459  0.5739  0.6756  1.2146
  188MOL   H12745381   7.614   7.678   2.421 -0.3001 -0.0716  0.0671
  188MOL   H12845382   7.555   7.652   2.663  1.3688  1.1311  0.9408
  188MOL   H12945383   0.111   7.667   2.724  4.4204 -3.3875 -0.0617
  188MOL   H13045384   0.111   7.506   2.680 -0.3272 -0.8274  1.2306
  188MOL   H13145385   0.069   7.576   2.947 -0.2881 -0.0389  0.9831
  188MOL   H13245386   7.620   7.622   2.894  0.6708 -0.2296 -1.5368
  188MOL   H13345387   7.658   7.453   2.887 -2.4205  1.5588 -0.6944
  188MOL   C13445388   7.563   7.462   2.578  0.5082  0.2390 -0.5019
  188MOL   C13545389   7.439   7.422   2.659  0.1568  0.2581 -0.6924
  188MOL   C13645390   7.407   7.274   2.627 -0.0318  0.2354  0.3253
  188MOL   C13745391   7.289   7.221   2.711  0.0229  0.0598 -0.5143
  188MOL   H13845392   7.631   7.378   2.588  0.5900  0.6232  2.6299
  188MOL   H13945393   7.546   7.459   2.471  1.1088  2.2274 -0.6793
  188MOL   H14045394   7.465   7.440   2.763 -2.2259  0.4718 -0.0994
  188MOL   H14145395   7.495   7.213   2.645 -0.6464 -0.4992  0.9008
  188MOL   H14245396   7.389   7.265   2.520 -1.0619  2.8697  0.2359
  188MOL   H14345397   7.305   7.228   2.818 -0.3586  1.7027 -0.5600
  188MOL   H14445398   7.199   7.279   2.693  1.4944  2.2327 -1.0310
  188MOL   H14545399   7.276   7.114   2.689  1.0437 -0.5097  1.5642
  188MOL   C14645400   7.315   7.508   2.625  0.9463  0.4800 -0.4022
  188MOL   C14745401   7.228   7.548   2.742 -0.0307 -0.0776  0.4224
  188MOL   C14845402   7.080   7.570   2.699  0.3027 -0.4324  0.0071
  188MOL   C14945403   7.065   7.695   2.611 -0.0083 -0.6009 -0.6490
  188MOL   H15045404   7.262   7.480   2.534 -0.3627 -0.8177  0.7380
  188MOL   H15145405   7.354   7.605   2.592  1.6487  0.2722 -0.1915
  188MOL   H15245406   7.220   7.461   2.808 -1.7311 -1.0943 -1.0724
  188MOL   H15345407   7.033   7.567   2.798  0.3108  1.2499  0.0729
  188MOL   H15445408   7.035   7.483   2.651 -3.9794  2.0452 -0.6497
  188MOL   H15545409   6.959   0.017   2.612  0.1543  0.0205  0.2164
  188MOL   H15645410   7.114   0.082   2.640 -0.0348 -0.9232  0.4485
  188MOL   H15745411   7.097   7.660   2.513  1.7232 -1.1049  0.0912
  188MOL   C15845412   7.285   7.667   2.825  0.1254 -0.3009 -0.3625
  188MOL   C15945413   7.205   7.702   2.961 -0.0718  0.2837  0.3557
  188MOL   C16045414   7.275   0.127   3.007  0.4947  0.2170 -0.2276
  188MOL   C16145415   7.196   0.205   3.111  0.0497  0.7921 -0.1574
  188MOL   H16245416   7.305   0.042   2.755 -0.0655  1.4826  1.6157
  188MOL   H16345417   7.384   7.635   2.857  0.6212  1.3716 -0.2210
  188MOL   H16445418   7.100   0.015   2.939 -0.7262 -2.1598  1.1616
  188MOL   H16545419   7.291   0.191   2.921  0.8297 -0.4420 -0.6581
  188MOL   H16645420   7.375   0.112   3.047  0.3760 -0.1585 -0.0617
  188MOL   H16745421   7.174   0.145   3.199 -1.5360  0.8995 -0.4727
  188MOL   H16845422   7.258   0.287   3.146  0.2548  0.6510 -0.1868
  188MOL   H16945423   7.098   0.229   3.070  0.7142  2.4206 -0.8278
  188MOL   C17045424   7.224   7.596   3.075 -0.8223 -0.7462 -0.1204
  188MOL   C17145425   7.094   7.513   3.095  0.2129  0.0246  0.2889
  188MOL   C17245426   6.976   7.595   3.154 -0.1463 -0.3492 -0.0459
  188MOL   C17345427   6.834   7.556   3.103  0.2145 -0.3132  0.0232
  188MOL   H17445428   7.265   7.616   3.174 -1.8005 -2.6469  0.6981
  188MOL   H17545429   7.301   7.527   3.040 -0.3832 -1.3404  1.9375
  188MOL   H17645430   7.063   7.490   2.993  0.0135  1.0430  0.1182
  188MOL   H17745431   6.969   7.703   3.140 -0.1846 -0.4443 -0.7974
  188MOL   H17845432   6.966   7.574   3.260 -1.8098 -0.6219 -0.2279
  188MOL   H17945433   6.834   7.566   2.994 -1.7335 -0.4682 -0.0066
  188MOL   H18045434   6.810   7.452   3.126 -0.0312 -0.2400  0.0936
  188MOL   H18145435   6.741   7.605   3.129 -0.0487 -1.2875  0.9466
  188MOL   C18245436   7.135   7.384   3.183 -0.1317 -0.3803 -0.2243
  188MOL   C18345437   7.201   7.266   3.111 -0.1425  0.9824  0.7176
  188MOL   C18445438   7.095   7.165   3.067 -0.1876 -0.2439 -0.5168
  188MOL   C18545439   6.983   7.213   2.971 -0.4054 -0.1885  0.4781
  188MOL   H18645440   7.056   7.342   3.245  1.3676 -2.3291  0.4192
  188MOL   H18745441   7.203   7.414   3.262 -0.8400 -1.8080  0.9498
  188MOL   H18845442   7.257   7.306   3.026  2.5646 -1.0962  1.4501
  188MOL   H18945443   7.053   7.117   3.155  1.0251  1.5141  1.0852
  188MOL   H19045444   7.130   7.077   3.014 -1.0367 -1.1026  0.3469
  188MOL   H19145445   7.017   7.231   2.869  0.6782 -1.3375  0.6257
  188MOL   H19245446   6.914   7.130   2.964 -0.8052  0.1570  0.2814
  188MOL   H19345447   6.933   7.304   3.004 -0.1795  0.2196 -0.2757
  188MOL   C19445448   7.302   7.191   3.204 -0.4819  0.3874 -0.0708
  188MOL   C19545449   7.404   7.097   3.136  0.2388  0.0046 -0.0004
  188MOL   C19645450   7.439   6.981   3.230 -0.5244  0.1382 -0.5039
  188MOL   C19745451   7.527   7.015   3.354 -0.6992 -0.3707  0.1682
  188MOL   H19845452   7.236   7.136   3.271 -0.8098 -1.0617 -1.5634
  188MOL   H19945453   7.352   7.272   3.257  2.7414  0.0360 -2.3691
  188MOL   H20045454   7.345   7.053   3.056 -1.1433  0.7804  0.5742
  188MOL   H20145455   7.504   6.902   3.191  0.2097 -0.5125  1.9296
  188MOL   H20245456   7.348   6.926   3.255  0.2319 -0.1690  1.6817
  188MOL   H20345457   7.490   7.112   3.387 -1.0546 -0.8303  1.1471
  188MOL   H20445458   7.526   6.936   3.429 -0.2963  0.0429  0.6133
  188MOL   H20545459   7.630   7.030   3.319  0.1514  2.4402  3.5394
  188MOL   C20645460   7.521   7.169   3.063 -0.5946 -0.9638  0.0953
  188MOL   C20745461   7.627   7.083   2.999  0.3020  0.4870  0.5334
  188MOL   C20845462   0.054   7.156   2.963 -0.5563 -0.3855 -0.6523
  188MOL   C20945463   0.136   7.170   3.092 -0.7245  0.5644  0.7649
  188MOL   H21045464   7.572   7.222   3.143 -1.2195  0.5394 -0.4888
  188MOL   H21145465   7.492   7.249   2.995 -0.3454 -0.2353  0.8262
  188MOL   H21245466   7.652   7.008   3.074  0.6496 -0.0557 -0.1231
  188MOL   H21345467   0.030   7.250   2.913 -0.6019 -0.3815 -0.6233
  188MOL   H21445468   0.116   7.101   2.892  0.8929  1.6403 -0.9794
  188MOL   H21545469   0.153   7.079   3.149  2.3123  0.0940 -0.8144
  188MOL   H21645470   0.233   7.218   3.080  0.3893 -2.0532 -1.0133
  188MOL   H21745471   0.087   7.233   3.167 -1.7746  1.1802 -0.4241
  188MOL   C21845472   7.571   7.024   2.872 -0.3247 -0.3280  0.1063
  188MOL   C21945473   7.588   6.880   2.852  0.4425 -0.6073 -0.0617
  188MOL   C22045474   0.018   6.835   2.788  0.1692 -0.0134 -0.7748
  188MOL   C22145475   0.041   6.685   2.810  0.2831  0.3098 -0.6061
  188MOL   H22245476   7.611   7.080   2.788  0.8066  1.6941  1.9292
  188MOL   H22345477   7.466   7.052   2.871  0.1942  1.8042  1.5077
  188MOL   H22445478   7.593   6.831   2.949 -1.1698  2.4791  1.6404
  188MOL   H22545479   0.101   6.884   2.838  0.0869  0.4784 -1.1221
  188MOL   H22645480   0.027   6.851   2.681 -1.8926 -0.0910 -0.9859
  188MOL   H22745481   0.074   6.656   2.910 -0.2750 -0.0890 -0.5393
  188MOL   H22845482   7.676   6.610   2.777  0.1087  0.7746 -1.2912
  188MOL   H22945483   0.122   6.655   2.744 -1.0365 -1.5009 -1.4125
  188MOL   C23045484   7.463   6.810   2.793 -0.0437  0.0073  0.6832
  188MOL   C23145485   7.435   6.861   2.650 -0.5803 -0.2926 -0.0416
  188MOL   C23245486   7.381   6.742   2.565 -0.2068  0.3243  0.6079
  188MOL   C23345487   7.360   6.792   2.433 -0.4126  0.4093  0.9579
  188MOL   H23445488   7.370   6.824   2.847 -0.6059  0.4715 -0.3734
  188MOL   H23545489   7.477   6.702   2.793  1.8110  0.2310  0.3199
  188MOL   H23645490   7.364   6.944   2.649  0.1495  0.4658  3.6630
  188MOL   H23745491   7.299   6.684   2.607  1.5807  0.3661  4.2975
  188MOL   H23845492   7.457   6.665   2.556  0.6014  1.3251 -1.3770
  188MOL   H23945493   7.301   6.882   2.416  1.0216  1.1488 -0.2568
  188MOL   H24045494   7.455   6.808   2.382 -2.1887  0.9108 -2.3131
  188MOL   H24145495   7.314   6.711   2.378 -0.6508  0.3473  1.2495
  188MOL   H24245496   7.532   6.895   2.614  0.5666 -1.8955  1.4331
  189MOL     C145497   3.938   6.268   3.678  0.4991  0.2831 -0.2308
  189MOL     C245498   4.045   6.256   3.576  0.3452  0.9908 -0.2421
  189MOL     C345499   4.150   6.369   3.591 -0.4537  0.8379 -0.9658
  189MOL     C445500   4.239   6.346   3.713  0.0795  0.0088  0.7182
  189MOL     H545501   3.854   6.199   3.673  0.4163  0.1557  2.2033
  189MOL     H645502   3.979   6.249   3.777 -0.1668  0.7476  0.1386
  189MOL     H745503   4.103   6.164   3.576  0.4205  1.0394  0.0542
  189MOL     H845504   4.102   6.467   3.596  1.4983  1.7731 -0.3592
  189MOL     H945505   4.199   6.369   3.493 -1.3373 -1.0399 -1.4226
  189MOL    H1045506   4.303   6.259   3.698 -0.0758  0.3316 -2.0172
  189MOL    H1145507   4.309   6.429   3.727 -0.1279  0.3868 -0.4325
  189MOL    H1245508   4.183   6.346   3.807 -0.3540  0.5100  0.4600
  189MOL    H1345509   3.899   6.370   3.682  1.5939  0.6727  0.8068
  189MOL    C1445510   3.985   6.245   3.434  0.3597 -0.1270 -0.2717
  189MOL    C1545511   3.928   6.106   3.399 -0.1316  0.4088  0.0317
  189MOL    C1645512   4.033   5.992   3.393  0.2796 -0.2942 -0.0051
  189MOL    C1745513   4.166   6.025   3.321  0.1064  0.8443 -0.2709
  189MOL    H1845514   4.053   6.273   3.354  1.6544 -1.3317  0.3910
  189MOL    H1945515   3.905   6.319   3.437  0.1055 -0.4024 -0.3258
  189MOL    H2045516   3.864   6.075   3.481 -0.6120  1.6668  0.1348
  189MOL    H2145517   3.992   5.907   3.338  2.1323 -1.4183  0.3121
  189MOL    H2245518   4.052   5.951   3.492  0.7387 -0.3450 -0.1117
  189MOL    H2345519   4.219   6.102   3.377  0.3831 -0.3423  1.1184
  189MOL    H2445520   4.230   5.937   3.321  1.3970  1.7662 -1.4157
  189MOL    H2545521   4.146   6.061   3.220 -1.1677  1.7660  0.3030
  189MOL    C2645522   3.833   6.095   3.279 -0.7374 -0.8149  0.0028
  189MOL    C2745523   3.708   6.183   3.289  0.3356 -0.5823  0.4439
  189MOL    C2845524   3.604   6.126   3.389  0.3074  0.3411 -0.7166
  189MOL    C2945525   3.502   6.237   3.444  0.2637 -0.1336  0.4764
  189MOL    H3045526   3.791   5.997   3.258  0.4294 -1.2238 -0.5219
  189MOL    H3145527   3.884   6.111   3.184  0.3084 -0.4640  0.6145
  189MOL    H3245528   3.734   6.277   3.337  1.6091 -0.2089 -0.9281
  189MOL    H3345529   3.662   6.086   3.472 -0.2012  0.8717 -0.0996
  189MOL    H3445530   3.550   6.042   3.345 -2.5221  0.0174  3.0749
  189MOL    H3545531   3.474   6.311   3.368 -1.9520 -1.1975  0.2274
  189MOL    H3645532   3.424   6.192   3.504  0.7222  0.2882  1.3977
  189MOL    H3745533   3.559   6.299   3.513  0.5410 -1.5584  1.5303
  189MOL    C3845534   3.649   6.201   3.152 -0.0078  0.0822 -0.5116
  189MOL    C3945535   3.718   6.302   3.064  0.1611  0.0574  0.8388
  189MOL    C4045536   3.671   6.449   3.093 -0.1647  0.0941 -0.2503
  189MOL    C4145537   3.528   6.482   3.038 -0.1019  0.3564 -1.1697
  189MOL    H4245538   3.543   6.224   3.162  0.0778  0.3785 -0.2634
  189MOL    H4345539   3.650   6.108   3.096 -1.1297 -0.8983  1.0495
  189MOL    H4445540   3.824   6.310   3.084  0.5970 -1.1844 -0.8310
  189MOL    H4545541   3.739   6.509   3.033 -0.9180  0.0760 -1.1361
  189MOL    H4645542   3.681   6.473   3.199 -1.5964  0.6947 -0.2321
  189MOL    H4745543   3.457   6.410   3.078  1.4955 -1.6060 -1.7566
  189MOL    H4845544   3.507   6.579   3.082 -0.8547 -1.1251  1.8425
  189MOL    H4945545   3.525   6.481   2.929  2.3414 -0.1935 -1.2616
  189MOL    C5045546   3.710   6.264   2.906  0.2305  0.5949  0.1694
  189MOL    C5145547   3.819   6.156   2.867 -0.1677 -0.3985 -0.2274
  189MOL    C5245548   3.952   6.234   2.836  0.4197 -0.0636 -0.1380
  189MOL    C5345549   4.078   6.157   2.870 -0.2007  0.6589  0.1311
  189MOL    H5445550   3.717   6.361   2.858  0.8421  1.4042  1.8522
  189MOL    H5545551   3.606   6.244   2.884  0.8093  0.2322 -2.4346
  189MOL    H5645552   3.838   6.094   2.955  2.0361 -0.3827 -0.6698
  189MOL    H5745553   3.963   6.319   2.904  1.7006  1.6399 -2.4157
  189MOL    H5845554   3.960   6.265   2.732  0.4406 -0.0724 -0.1395
  189MOL    H5945555   4.109   6.102   2.781 -2.2022 -3.2729  1.7038
  189MOL    H6045556   4.158   6.227   2.890 -0.7509  1.4289 -0.3168
  189MOL    H6145557   4.064   6.086   2.951  0.9190 -1.4638 -1.4656
  189MOL    C6245558   3.782   6.069   2.742  0.7949  0.4427 -0.1706
  189MOL    C6345559   3.684   5.953   2.775 -0.2376 -0.4165  0.0870
  189MOL    C6445560   3.758   5.840   2.842  0.1799 -0.4420 -0.0557
  189MOL    C6545561   3.655   5.746   2.910  1.4058 -0.5872 -0.0971
  189MOL    H6645562   3.868   6.021   2.697  0.8525  0.4643 -0.0838
  189MOL    H6745563   3.744   6.138   2.667  0.6229 -0.5614 -1.0116
  189MOL    H6845564   3.618   5.990   2.854  0.3475 -0.3650  0.5528
  189MOL    H6945565   3.827   5.881   2.916  1.3662 -0.6240 -1.0482
  189MOL    H7045566   3.812   5.773   2.775  0.4736  1.2300 -1.5264
  189MOL    H7145567   3.717   5.671   2.959  1.0243 -1.3206 -0.7308
  189MOL    H7245568   3.594   5.797   2.985 -0.1944 -1.7570 -0.5758
  189MOL    H7345569   3.597   5.689   2.837  0.6723  1.1943 -0.9478
  189MOL    C7445570   3.597   5.914   2.655 -0.3824 -0.0734  0.1507
  189MOL    C7545571   3.445   5.939   2.683  0.2923  0.5949 -0.0952
  189MOL    C7645572   3.356   5.878   2.569 -0.3692  0.2633 -0.5798
  189MOL    C7745573   3.372   5.946   2.435  0.0113 -0.5180  0.1484
  189MOL    H7845574   3.621   5.812   2.626  0.9035  1.0566 -2.8451
  189MOL    H7945575   3.632   5.982   2.577  0.0236  0.4057  0.7434
  189MOL    H8045576   3.425   5.886   2.776  0.8863  0.0686 -0.2617
  189MOL    H8145577   3.259   5.880   2.619 -0.5384  0.0722 -0.9058
  189MOL    H8245578   3.371   5.773   2.545  0.3385  0.0637  0.6731
  189MOL    H8345579   3.330   5.888   2.353 -2.5624  0.9888  0.3726
  189MOL    H8445580   3.321   6.042   2.436  1.0970  0.0721  2.0045
  189MOL    H8545581   3.479   5.959   2.415 -0.0842 -0.1864 -0.1460
  189MOL    C8645582   3.415   6.091   2.693 -0.5734 -0.4156 -0.2897
  189MOL    C8745583   3.281   6.115   2.777  0.3861  0.1491  0.0470
  189MOL    C8845584   3.217   6.253   2.740 -0.3803  0.7227 -0.4752
  189MOL    C8945585   3.122   6.245   2.623  0.2764  0.4815 -0.9109
  189MOL    H9045586   3.401   6.145   2.599 -3.2799 -1.6755 -0.6616
  189MOL    H9145587   3.487   6.155   2.744  0.3064 -1.9781  0.4901
  189MOL    H9245588   3.212   6.036   2.748  1.5037 -0.6204 -0.5756
  189MOL    H9345589   3.288   6.334   2.724 -0.5984  0.7043 -1.5873
  189MOL    H9445590   3.146   6.278   2.819 -2.2704 -2.3361 -1.1287
  189MOL    H9545591   3.167   6.200   2.535  1.1307  1.6610 -1.0907
  189MOL    H9645592   3.029   6.196   2.651  1.4520 -0.5614  1.2277
  189MOL    H9745593   3.090   6.346   2.597  2.2590  2.0978  2.5831
  189MOL    C9845594   3.321   6.111   2.930  0.0266 -0.0760 -0.5577
  189MOL    C9945595   3.204   6.079   3.026 -0.5823 -0.1819 -0.2853
  189MOL   C10045596   3.238   6.113   3.179  0.2916 -0.3606  0.5850
  189MOL   C10145597   3.214   6.260   3.199 -0.4732 -0.0196  0.3150
  189MOL   H10245598   3.346   6.216   2.944  0.9600 -0.6251  2.2319
  189MOL   H10345599   3.407   6.046   2.945  1.1340  0.8794 -2.5087
  189MOL   H10445600   3.113   6.136   3.012 -0.7112 -0.4540 -0.5644
  189MOL   H10545601   3.343   6.094   3.200  0.0765 -1.1577  0.9596
  189MOL   H10645602   3.192   6.054   3.258  1.5889 -0.1598  1.4923
  189MOL   H10745603   3.239   6.290   3.300  2.1538 -0.1035 -0.2852
  189MOL   H10845604   3.273   6.317   3.127 -0.2391 -1.9948 -1.0907
  189MOL   H10945605   3.112   6.298   3.187  0.0258  1.4567  0.6221
  189MOL   C11045606   3.157   5.933   3.019  0.3554 -0.5425 -0.5048
  189MOL   C11145607   3.008   5.902   3.064  0.4034  0.4227 -0.3671
  189MOL   C11245608   2.973   5.755   3.075 -0.1507 -0.0452  0.1469
  189MOL   C11345609   3.071   5.689   3.171  0.0940  0.1000  0.1405
  189MOL   H11445610   3.231   5.876   3.075 -0.2033  0.3590  1.1892
  189MOL   H11545611   3.174   5.894   2.919  1.0678 -1.7539  0.0654
  189MOL   H11645612   2.992   5.937   3.166  1.9211 -0.2936  0.1221
  189MOL   H11745613   2.972   5.711   2.975  1.2511 -1.1414  0.6037
  189MOL   H11845614   2.875   5.760   3.123  0.6951  0.9611  1.8060
  189MOL   H11945615   3.169   5.672   3.126  0.0090  2.4767 -0.9923
  189MOL   H12045616   3.107   5.753   3.251  0.8165  0.3665 -0.3903
  189MOL   H12145617   3.036   5.600   3.224  1.0116 -1.5577 -1.9581
  189MOL   C12245618   2.903   5.966   2.972 -0.0214  0.0466 -0.1213
  189MOL   C12345619   2.756   5.986   3.029 -0.2712 -0.2192  0.4856
  189MOL   C12445620   2.646   5.900   2.956 -0.2630  0.8289 -0.6836
  189MOL   C12545621   2.638   5.904   2.804 -0.0201  0.6158  0.3478
  189MOL   H12645622   2.894   5.901   2.885  2.1920 -0.0987 -0.2589
  189MOL   H12745623   2.939   6.060   2.930 -0.8642 -0.0357 -1.0637
  189MOL   H12845624   2.755   5.962   3.135 -1.3165  0.4009  0.6188
  189MOL   H12945625   2.552   5.933   3.000 -1.0775 -0.4685 -1.4109
  189MOL   H13045626   2.656   5.795   2.986 -1.4084  1.0174  0.4262
  189MOL   H13145627   2.636   6.010   2.778 -0.1587  1.0273  2.0151
  189MOL   H13245628   2.725   5.858   2.758 -0.2028  2.8257 -2.3126
  189MOL   H13345629   2.555   5.853   2.755  0.3225  0.2152  0.1874
  189MOL   C13445630   2.711   6.132   3.026  0.0104 -0.6477 -0.0544
  189MOL   C13545631   2.798   6.244   3.080 -0.0658 -0.5706  0.7443
  189MOL   C13645632   2.828   6.231   3.228  0.5723 -0.1130  0.4542
  189MOL   C13745633   2.712   6.272   3.324  0.3375 -0.1806  0.1568
  189MOL   H13845634   2.611   6.140   3.070  0.7442  1.0396  1.3668
  189MOL   H13945635   2.689   6.155   2.922 -1.8748 -1.8169  0.0601
  189MOL   H14045636   2.891   6.239   3.024 -1.3296  0.2871 -1.4893
  189MOL   H14145637   2.926   6.277   3.244 -0.0143  1.0008  0.9117
  189MOL   H14245638   2.848   6.125   3.241 -1.3321 -0.3261  1.8206
  189MOL   H14345639   2.622   6.216   3.297  0.0304 -0.3038  1.3671
  189MOL   H14445640   2.731   6.244   3.428  0.8346 -0.1510  0.0725
  189MOL   H14545641   2.683   6.377   3.326  0.7208 -0.0846  1.9648
  189MOL   C14645642   2.734   6.377   3.045  0.0778 -0.0756 -0.3076
  189MOL   C14745643   2.801   6.511   3.080  0.4404  0.0201  0.1722
  189MOL   C14845644   2.704   6.629   3.069 -0.3275  0.0891 -0.6097
  189MOL   C14945645   2.639   6.657   2.931  0.2877 -0.8984 -0.7021
  189MOL   H15045646   2.638   6.380   3.097  0.0362  0.5629 -0.4203
  189MOL   H15145647   2.717   6.383   2.938  1.0703 -1.1013 -0.5368
  189MOL   H15245648   2.842   6.498   3.181 -0.2660 -0.0390  0.4523
  189MOL   H15345649   2.746   6.715   3.122  0.3102 -0.6506  0.1112
  189MOL   H15445650   2.620   6.604   3.134  2.4018  0.1198  3.1042
  189MOL   H15545651   2.571   6.742   2.944  0.4083 -0.8467 -0.4037
  189MOL   H15645652   2.714   6.680   2.856  2.0074 -0.3084  1.1389
  189MOL   H15745653   2.586   6.571   2.892  0.8377 -0.8303 -1.6069
  189MOL   C15845654   2.928   6.532   2.993  0.3773 -0.8894  0.3169
  189MOL   C15945655   3.016   6.656   3.047  0.1630 -0.3236 -0.0468
  189MOL   C16045656   3.133   6.696   2.948 -0.1637 -0.5526 -0.2678
  189MOL   C16145657   3.246   6.589   2.944 -0.0431  0.0469 -0.6366
  189MOL   H16245658   2.896   6.546   2.890 -0.3637 -0.5973  0.5778
  189MOL   H16345659   2.989   6.442   2.997  0.0885 -1.1072 -0.1448
  189MOL   H16445660   2.948   6.741   3.043  0.0784 -0.3750  0.2694
  189MOL   H16545661   3.174   6.791   2.982 -3.5679  0.8498  0.1551
  189MOL   H16645662   3.099   6.714   2.846  0.9937  0.7406 -0.4428
  189MOL   H16745663   3.201   6.497   2.904 -1.4870  0.0153  1.0049
  189MOL   H16845664   3.331   6.623   2.885 -0.0972  1.2719 -0.0093
  189MOL   H16945665   3.288   6.576   3.043 -1.2444  0.7515 -0.0204
  189MOL   C17045666   3.064   6.636   3.188 -0.4378  0.4778  0.6400
  189MOL   C17145667   3.173   6.734   3.254  0.5256 -0.3616 -0.0845
  189MOL   C17245668   3.228   6.685   3.389 -0.1316 -0.2318 -0.1051
  189MOL   C17345669   3.346   6.584   3.377  0.5632 -0.1293 -0.1702
  189MOL   H17445670   3.117   6.541   3.197  0.5551  1.0041  0.4501
  189MOL   H17545671   2.983   6.614   3.258 -0.7274  0.6441  0.3587
  189MOL   H17645672   3.257   6.752   3.187  2.4509 -3.1172  1.4786
  189MOL   H17745673   3.155   6.631   3.449  2.5298 -2.5565  1.1399
  189MOL   H17845674   3.261   6.763   3.458  0.6717  0.0322 -0.7813
  189MOL   H17945675   3.373   6.526   3.465  1.0900 -0.2442 -0.4079
  189MOL   H18045676   3.319   6.504   3.307  2.8803 -1.7941  0.7924
  189MOL   H18145677   3.442   6.634   3.368 -0.2026  1.4902  0.5722
  189MOL   C18245678   3.107   6.874   3.284  0.0644  0.5869  0.2024
  189MOL   C18345679   3.195   7.004   3.311  0.2293  0.0329 -0.4685
  189MOL   C18445680   3.156   7.060   3.456  0.4805  0.0667  0.6706
  189MOL   C18545681   3.283   7.092   3.533  0.5358  0.0491 -0.1904
  189MOL   H18645682   3.036   6.853   3.363  0.1289  0.6167  0.2680
  189MOL   H18745683   3.049   6.888   3.192  1.0719 -0.5304 -0.6208
  189MOL   H18845684   3.301   6.979   3.313  0.0301 -0.7943  0.6193
  189MOL   H18945685   3.095   6.992   3.516  0.5322  0.6069  1.3402
  189MOL   H19045686   3.096   7.151   3.444  0.2598 -0.2566 -0.7038
  189MOL   H19145687   3.324   7.174   3.473  0.2906 -0.2069 -0.7056
  189MOL   H19245688   3.278   7.122   3.637  0.3884 -0.4743 -0.0490
  189MOL   H19345689   3.348   7.005   3.525 -0.0681 -0.2503 -1.9370
  189MOL   C19445690   3.178   7.120   3.215 -0.4761 -0.2512 -0.3243
  189MOL   C19545691   3.227   7.088   3.066 -0.2320  0.3575  0.1801
  189MOL   C19645692   3.376   7.052   3.057 -1.1425 -0.0180  0.5736
  189MOL   C19745693   3.466   7.175   3.099 -0.1902  0.2896 -0.0888
  189MOL   H19845694   3.237   7.200   3.258  1.1580 -2.0999  0.9722
  189MOL   H19945695   3.070   7.136   3.207 -0.6461 -1.2907 -0.1589
  189MOL   H20045696   3.165   7.002   3.040  0.4630 -0.7524  2.0984
  189MOL   H20145697   3.407   7.016   2.959  0.4530  0.2873  0.9538
  189MOL   H20245698   3.391   6.962   3.117  1.4258  1.6100  2.4608
  189MOL   H20345699   3.566   7.134   3.114  0.7489  1.8931 -1.7837
  189MOL   H20445700   3.455   7.259   3.031  4.9846  2.8459  1.9252
  189MOL   H20545701   3.435   7.218   3.194 -0.8778 -1.8136  0.6795
  189MOL   C20645702   3.187   7.203   2.969  1.0656  0.4333  0.2717
  189MOL   C20745703   3.054   7.177   2.889  0.5095 -0.1591  0.2272
  189MOL   C20845704   3.090   7.081   2.774  0.2201  0.1108 -0.4621
  189MOL   C20945705   2.967   6.996   2.730 -0.3964 -0.4200 -0.6612
  189MOL   H21045706   3.261   7.223   2.893  0.6882 -0.7598 -0.4207
  189MOL   H21145707   3.173   7.299   3.018  1.4567  0.0656  1.1227
  189MOL   H21245708   2.987   7.137   2.965 -1.1414 -0.4260 -1.3565
  189MOL   H21345709   3.172   7.016   2.804  1.4636  1.9534  0.1951
  189MOL   H21445710   3.129   7.139   2.691  2.7848 -1.6703 -0.5529
  189MOL   H21545711   2.940   6.924   2.807 -1.9826 -0.2858 -1.0736
  189MOL   H21645712   2.882   7.058   2.701  0.4681  1.5525  0.9035
  189MOL   H21745713   2.993   6.938   2.642  0.5130 -0.8274 -0.1273
  189MOL   C21845714   2.998   7.303   2.826 -0.1019 -0.5487  0.1961
  189MOL   C21945715   2.895   7.386   2.906 -0.5452  0.5134  0.5494
  189MOL   C22045716   2.752   7.326   2.917  0.1785 -0.5895  0.4171
  189MOL   C22145717   2.740   7.216   3.022 -0.0143  0.4116 -0.6239
  189MOL   H22245718   2.952   7.282   2.729 -0.3200 -0.8537  0.3655
  189MOL   H22345719   3.084   7.368   2.810 -1.4494  1.7666  1.9931
  189MOL   H22445720   2.940   7.393   3.006 -0.4322  1.1250  0.4594
  189MOL   H22545721   2.717   7.288   2.821  1.1694 -0.5376  0.0249
  189MOL   H22645722   2.684   7.407   2.942 -1.2221 -2.0982  1.6054
  189MOL   H22745723   2.783   7.119   3.000  0.7069 -0.6491  4.7094
  189MOL   H22845724   2.781   7.251   3.117 -3.7412  1.5140  0.6834
  189MOL   H22945725   2.635   7.200   3.046 -0.0610 -0.2452 -1.2650
  189MOL   C23045726   2.880   7.535   2.843  0.4183  0.6647 -0.8239
  189MOL   C23145727   2.843   7.646   2.939  0.7849 -0.3191 -0.2214
  189MOL   C23245728   2.795   0.078   2.872 -0.6072  0.2948  0.5849
  189MOL   C23345729   2.764   0.195   2.973  0.8629  0.3598 -0.2350
  189MOL   H23445730   2.813   7.534   2.758  1.5357  0.5148 -1.7211
  189MOL   H23545731   2.975   7.558   2.794  1.3478  0.3270  0.7537
  189MOL   H23645732   2.758   7.627   3.005  0.5117  1.0549 -0.1654
  189MOL   H23745733   2.705   0.083   2.811  0.4987 -1.7685 -1.2924
  189MOL   H23845734   2.876   0.103   2.804 -0.6123  1.2517  0.9256
  189MOL   H23945735   2.708   0.265   2.911  1.7095 -1.3499 -2.9969
  189MOL   H24045736   2.688   0.158   3.042 -0.0951  0.9661 -0.9473
  189MOL   H24145737   2.848   0.238   3.026 -0.4865  1.6481  0.8907
  189MOL   H24245738   2.922   7.669   3.010  0.5426  1.9676 -0.6672
  190MOL     C145739   5.653   3.453   6.389 -0.0846  0.1172  0.5799
  190MOL     C245740   5.804   3.432   6.407 -0.5070  0.4989  0.1920
  190MOL     C345741   5.846   3.294   6.352  0.1018  0.2786 -0.5946
  190MOL     C445742   5.830   3.291   6.197  0.0565  0.2512  0.6062
  190MOL     H545743   5.629   3.548   6.438  0.1391 -0.4258  1.7710
  190MOL     H645744   5.630   3.460   6.283  3.3114  0.0185 -0.2434
  190MOL     H745745   5.857   3.505   6.345  0.1195 -1.7511 -1.9900
  190MOL     H845746   5.780   3.227   6.406 -0.3656  0.3616 -1.0578
  190MOL     H945747   5.950   3.277   6.378  0.6079  3.3881 -0.3382
  190MOL    H1045748   5.728   3.301   6.160  0.1349 -2.6938 -0.5402
  190MOL    H1145749   5.863   3.383   6.149 -0.6671  0.8560  1.2664
  190MOL    H1245750   5.868   3.200   6.149 -0.5413  1.0236 -1.3761
  190MOL    H1345751   5.602   3.368   6.435  0.5013 -0.1275  0.7904
  190MOL    C1445752   5.835   3.460   6.556 -0.1118  0.4824  0.0080
  190MOL    C1545753   5.986   3.480   6.590 -0.3215 -0.0019  0.7615
  190MOL    C1645754   6.019   3.459   6.734 -0.9542  0.7118 -0.2704
  190MOL    C1745755   6.047   3.310   6.767  0.0739  0.3582 -0.0727
  190MOL    H1845756   5.780   3.398   6.627 -1.6836  2.1515  0.2890
  190MOL    H1945757   5.795   3.558   6.580 -1.1136 -0.3106  1.7015
  190MOL    H2045758   6.039   3.407   6.528 -1.3936 -0.2679  0.1365
  190MOL    H2145759   5.933   3.493   6.791 -2.2797 -2.1021 -0.5006
  190MOL    H2245760   6.106   3.517   6.765  0.5200 -1.0199 -1.0308
  190MOL    H2345761   6.076   3.276   6.866  0.2826 -0.5315 -0.4417
  190MOL    H2445762   5.959   3.258   6.730 -0.5300  0.4774  1.1955
  190MOL    H2545763   6.139   3.275   6.720 -0.2986 -1.5682  0.6269
  190MOL    C2645764   6.031   3.622   6.544 -0.2143  0.6588 -0.0657
  190MOL    C2745765   6.166   3.637   6.467 -0.1637 -0.4487 -0.1444
  190MOL    C2845766   6.194   3.791   6.444 -0.1912  0.4988  0.0766
  190MOL    C2945767   6.236   3.868   6.570  0.6464 -0.5560 -0.0202
  190MOL    H3045768   6.018   3.693   6.625  0.0705  2.9275 -1.9503
  190MOL    H3145769   5.957   3.658   6.472  1.4296 -0.9639 -2.6338
  190MOL    H3245770   6.241   3.589   6.530 -0.1108  0.2080  0.2980
  190MOL    H3345771   6.113   3.841   6.391  0.1835 -1.9729 -3.0291
  190MOL    H3445772   6.273   3.808   6.370 -1.1866 -0.0808 -1.1422
  190MOL    H3545773   6.228   3.975   6.551 -1.9593 -0.4748  1.3426
  190MOL    H3645774   6.180   3.842   6.660  0.5128  1.7672  0.5989
  190MOL    H3745775   6.334   3.831   6.602 -1.0169 -1.0716  4.9806
  190MOL    C3845776   6.160   3.566   6.335 -0.1845  0.1306 -0.2192
  190MOL    C3945777   6.294   3.541   6.256  0.2607  0.5522 -0.4023
  190MOL    C4045778   6.258   3.478   6.120  0.2911  0.9804  0.4027
  190MOL    C4145779   6.213   3.334   6.129 -0.5722  0.6389  0.0394
  190MOL    H4245780   6.085   3.620   6.278 -1.0292 -0.7153  0.0798
  190MOL    H4345781   6.130   3.461   6.344  2.7694 -0.9171 -1.8552
  190MOL    H4445782   6.336   3.638   6.228  1.6729 -0.2460 -1.1305
  190MOL    H4545783   6.339   3.487   6.047  0.0029  1.6835  0.1590
  190MOL    H4645784   6.175   3.533   6.075 -0.1115  0.9542  1.1016
  190MOL    H4745785   6.140   3.313   6.207  0.3131 -2.4285  0.1084
  190MOL    H4845786   6.176   3.292   6.036 -1.0471 -2.8549  1.7253
  190MOL    H4945787   6.295   3.265   6.153 -2.3897 -2.2072 -1.6583
  190MOL    C5045788   6.407   3.464   6.335 -0.0289 -1.1994  0.0947
  190MOL    C5145789   6.557   3.477   6.279  0.4765  0.3619 -0.3418
  190MOL    C5245790   6.598   3.622   6.268  0.0860 -0.2109  0.6614
  190MOL    C5345791   6.582   3.706   6.399 -0.3308 -0.1393 -0.4656
  190MOL    H5445792   6.388   3.358   6.345 -1.1477 -1.2554 -2.4442
  190MOL    H5545793   6.413   3.505   6.436  2.7659 -1.4423  0.0810
  190MOL    H5645794   6.611   3.427   6.360  1.3458 -0.3765 -1.3605
  190MOL    H5745795   6.543   3.669   6.186  0.1489 -1.1644  0.0610
  190MOL    H5845796   6.701   3.632   6.234 -0.0970  1.0128  0.4488
  190MOL    H5945797   6.479   3.717   6.433 -1.0579 -1.4775 -2.2159
  190MOL    H6045798   6.643   3.666   6.481  1.2715  4.1651  0.6052
  190MOL    H6145799   6.621   3.808   6.397 -0.8705  0.1282  1.4345
  190MOL    C6245800   6.584   3.406   6.144  0.2863 -0.0278  0.1139
  190MOL    C6345801   6.717   3.345   6.111 -0.2543 -0.5918 -0.2456
  190MOL    C6445802   6.751   3.238   6.219 -0.0071 -0.4229  0.3071
  190MOL    C6545803   6.638   3.132   6.252  0.0223 -0.0810  0.5697
  190MOL    H6645804   6.570   3.482   6.067 -0.0433 -0.3113 -0.1142
  190MOL    H6745805   6.504   3.334   6.121 -0.4765  1.3445 -1.6256
  190MOL    H6845806   6.710   3.298   6.013  0.2977  1.7887 -1.4513
  190MOL    H6945807   6.769   3.282   6.317  1.3364 -0.8732  0.2664
  190MOL    H7045808   6.849   3.200   6.190  0.5990  0.8527  0.6381
  190MOL    H7145809   6.617   3.073   6.163  2.6136  0.3797 -0.3885
  190MOL    H7245810   6.682   3.058   6.320 -1.8859 -0.2647  1.6444
  190MOL    H7345811   6.547   3.166   6.302 -0.1115  0.5800 -0.1290
  190MOL    C7445812   6.826   3.452   6.100 -0.5420 -0.8702  0.5333
  190MOL    C7545813   6.949   3.414   6.011 -0.2268 -0.4513  0.8073
  190MOL    C7645814   7.074   3.410   6.096 -0.9697  0.2939  0.8178
  190MOL    C7745815   7.186   3.330   6.031  0.1127 -0.3935  0.4262
  190MOL    H7845816   6.853   3.487   6.200 -1.1662  0.3333  0.2890
  190MOL    H7945817   6.797   3.551   6.065 -0.5128 -1.1200 -0.2003
  190MOL    H8045818   6.930   3.312   5.978  0.7990 -0.4623  0.2455
  190MOL    H8145819   7.063   3.362   6.193 -3.3528  0.1526  0.5184
  190MOL    H8245820   7.124   3.505   6.114 -0.1830 -0.1019  0.7403
  190MOL    H8345821   7.279   3.353   6.084  0.6152 -0.4173 -0.4275
  190MOL    H8445822   7.166   3.224   6.045  0.7046 -0.4713  0.7246
  190MOL    H8545823   7.187   3.359   5.925 -1.1205  0.7290  0.7121
  190MOL    C8645824   6.960   3.495   5.882 -0.5424  0.4816 -0.7352
  190MOL    C8745825   6.843   3.469   5.778  0.1389  0.5975 -0.2969
  190MOL    C8845826   6.866   3.342   5.690 -0.0336  0.5461  0.6918
  190MOL    C8945827   6.751   3.305   5.596 -0.0572 -0.1288 -0.0116
  190MOL    H9045828   7.050   3.466   5.829 -2.0946 -1.6015 -2.3451
  190MOL    H9145829   6.957   3.601   5.906 -1.5722  0.9797 -2.9595
  190MOL    H9245830   6.755   3.466   5.842  2.2181  1.2280  2.7060
  190MOL    H9345831   6.876   3.253   5.751  1.6851 -0.5228 -1.1024
  190MOL    H9445832   6.960   3.362   5.637 -0.0373  1.7782  1.1164
  190MOL    H9545833   6.660   3.281   5.650  0.2559  1.1383  1.0954
  190MOL    H9645834   6.722   3.391   5.537 -1.7699  2.4916  4.4312
  190MOL    H9745835   6.791   3.235   5.522 -0.8185 -0.5722 -0.0049
  190MOL    C9845836   6.818   3.600   5.698 -0.0268 -0.1421  0.0994
  190MOL    C9945837   6.720   3.700   5.768  0.1052 -0.2997  0.3982
  190MOL   C10045838   6.572   3.649   5.755  0.2206 -0.3273  0.0357
  190MOL   C10145839   6.464   3.700   5.854 -0.0464  0.0921  0.1802
  190MOL   H10245840   6.793   3.576   5.594 -0.3967 -0.9369  0.3673
  190MOL   H10345841   6.918   3.641   5.682 -0.4606  1.2252  0.7582
  190MOL   H10445842   6.753   3.707   5.872  0.5137 -0.6052  0.2889
  190MOL   H10545843   6.576   3.540   5.757 -1.8194 -0.4266 -0.3654
  190MOL   H10645844   6.536   3.663   5.653  0.7355 -2.1277 -0.4203
  190MOL   H10745845   6.500   3.692   5.957  3.4583  1.7282 -0.8394
  190MOL   H10845846   6.457   3.808   5.841  0.8003 -0.1103 -2.2417
  190MOL   H10945847   6.365   3.659   5.834  0.6482 -0.8697 -1.3266
  190MOL   C11045848   6.742   3.847   5.706  0.6137  0.3789  0.5189
  190MOL   C11145849   6.813   3.943   5.799  0.2941 -0.0966  0.6628
  190MOL   C11245850   6.737   3.978   5.928  0.6865 -0.4953 -0.2968
  190MOL   C11345851   6.625   4.083   5.909 -0.1427  0.0744 -0.0754
  190MOL   H11445852   6.646   3.896   5.685 -0.6008 -2.7992 -1.7957
  190MOL   H11545853   6.787   3.839   5.608 -1.1607 -0.0310 -0.2951
  190MOL   H11645854   6.897   3.881   5.831  1.2195  0.5423 -0.4997
  190MOL   H11745855   6.810   4.030   5.990 -0.6522 -2.0835  2.6691
  190MOL   H11845856   6.710   3.889   5.984  1.7869  0.3752  1.6700
  190MOL   H11945857   6.552   4.054   5.834  1.6198 -1.7523 -1.1076
  190MOL   H12045858   6.566   4.094   6.000 -0.5630  0.3827 -0.3835
  190MOL   H12145859   6.667   4.178   5.877 -2.3418  0.7650 -1.0155
  190MOL   C12245860   6.868   4.067   5.716 -0.0611 -0.5082 -0.4267
  190MOL   C12345861   6.979   4.145   5.787  0.1911 -0.0423 -0.2375
  190MOL   C12445862   6.992   4.285   5.731  0.2602 -0.2312  0.2033
  190MOL   C12545863   6.889   4.390   5.782 -0.2808 -0.3094  0.0968
  190MOL   H12645864   6.786   4.133   5.687  1.7677  2.1007  0.1245
  190MOL   H12745865   6.905   4.029   5.621  1.8455 -0.5150  0.2980
  190MOL   H12845866   6.955   4.162   5.892  0.3711 -1.1913  0.0012
  190MOL   H12945867   6.984   4.275   5.623  1.2157  0.0218  0.1065
  190MOL   H13045868   7.084   4.338   5.756  0.1923  0.2401 -0.5262
  190MOL   H13145869   6.906   4.488   5.738 -2.2272 -0.9230 -2.1641
  190MOL   H13245870   6.797   4.345   5.745 -1.2654  1.9055 -0.2143
  190MOL   H13345871   6.882   4.394   5.890  0.5216  1.0607  0.1107
  190MOL   C13445872   7.111   4.065   5.781 -0.8496  0.2925  0.3501
  190MOL   C13545873   7.221   4.124   5.864 -0.1025 -0.4595  0.1239
  190MOL   C13645874   7.332   4.201   5.781  0.3464  0.6109 -0.5874
  190MOL   C13745875   7.424   4.122   5.687  0.0184  0.4638  0.3719
  190MOL   H13845876   7.156   4.057   5.682  0.3998 -0.8667  0.9938
  190MOL   H13945877   7.091   3.965   5.821 -2.8264  1.0894  1.4100
  190MOL   H14045878   7.181   4.196   5.935  0.8164 -1.0637  1.2663
  190MOL   H14145879   7.406   4.226   5.858  1.1240  0.6393 -1.3367
  190MOL   H14245880   7.303   4.296   5.736 -0.0760  0.4147 -0.7304
  190MOL   H14345881   7.501   4.064   5.737 -0.7435  0.3638  1.4516
  190MOL   H14445882   7.375   4.057   5.614 -0.5450 -1.4832  2.4513
  190MOL   H14545883   7.459   4.201   5.620  0.2697  0.9870  1.1064
  190MOL   C14645884   7.290   4.015   5.956 -0.1010  0.3394  0.3249
  190MOL   C14745885   7.225   3.981   6.090 -0.3500  0.0427  0.2360
  190MOL   C14845886   7.101   3.889   6.082 -0.1866 -0.4404 -0.2300
  190MOL   C14945887   7.064   3.801   6.200  0.4950 -0.5215  0.1896
  190MOL   H15045888   7.389   4.052   5.981  0.7274 -0.6681 -1.3083
  190MOL   H15145889   7.306   3.925   5.896  2.5900  0.7174  0.3956
  190MOL   H15245890   7.293   3.912   6.140 -1.0951 -0.0958  1.0684
  190MOL   H15345891   7.121   3.814   6.006  0.4735 -1.4151  0.8988
  190MOL   H15445892   7.016   3.945   6.042  0.8378 -0.3681 -2.3449
  190MOL   H15545893   7.048   3.856   6.292 -1.3261 -0.3227 -0.2242
  190MOL   H15645894   6.978   3.736   6.181  0.2943 -0.8031  1.9914
  190MOL   H15745895   7.144   3.733   6.227 -1.7121 -2.3448  2.3363
  190MOL   C15845896   7.211   4.092   6.198 -0.0225  0.0743  0.2923
  190MOL   C15945897   7.338   4.178   6.216 -0.2832  0.1185  0.1794
  190MOL   C16045898   7.456   4.100   6.263 -0.0167 -0.5023 -0.5595
  190MOL   C16145899   7.452   4.050   6.406  0.3861 -0.0943  0.3189
  190MOL   H16245900   7.170   4.044   6.288 -2.0678  3.9282  1.5551
  190MOL   H16345901   7.132   4.159   6.162 -0.7694 -0.3151  1.1699
  190MOL   H16445902   7.367   4.222   6.120 -0.7522  1.2497  0.5392
  190MOL   H16545903   7.540   4.169   6.271  1.1423 -2.0573  1.4159
  190MOL   H16645904   7.487   4.026   6.190  0.4362 -1.9694  1.0662
  190MOL   H16745905   7.543   3.994   6.426  0.1275 -0.5446  0.2276
  190MOL   H16845906   7.463   4.134   6.475 -0.3751  1.0745 -0.9594
  190MOL   H16945907   7.368   3.987   6.437 -0.7584  1.0774 -0.3291
  190MOL   C17045908   7.310   4.298   6.319  0.7746  0.4209 -0.3038
  190MOL   C17145909   7.221   4.415   6.261 -0.4830  0.1036 -0.7080
  190MOL   C17245910   7.284   4.485   6.140 -0.1795 -0.1793 -0.1736
  190MOL   C17345911   7.434   4.511   6.155  0.3764 -0.2183 -0.2675
  190MOL   H17445912   7.398   4.337   6.371  1.5313 -0.1135 -1.1662
  190MOL   H17545913   7.248   4.261   6.400 -1.4863  1.7959 -1.3398
  190MOL   H17645914   7.126   4.370   6.232  0.0354 -2.0270  0.7689
  190MOL   H17745915   7.234   4.581   6.130  0.4450  0.0686 -0.9886
  190MOL   H17845916   7.266   4.425   6.050 -0.8123  0.0272 -0.1861
  190MOL   H17945917   7.476   4.543   6.060 -0.9466 -0.2180 -0.8651
  190MOL   H18045918   7.451   4.585   6.234 -2.9127 -0.9345  1.2420
  190MOL   H18145919   7.490   4.421   6.181 -0.2457 -0.3276  0.7317
  190MOL   C18245920   7.184   4.514   6.372 -0.4398  0.3670  0.1530
  190MOL   C18345921   7.083   4.459   6.480  0.2941 -0.0632 -0.3966
  190MOL   C18445922   6.943   4.407   6.424  0.1950 -0.9305  0.6395
  190MOL   C18545923   6.869   4.502   6.323  0.2187 -0.3210  0.2936
  190MOL   H18645924   7.143   4.607   6.333  0.1841  1.4333  1.9891
  190MOL   H18745925   7.273   4.551   6.424  0.0600 -1.8600  0.9414
  190MOL   H18845926   7.130   4.380   6.539 -0.0955 -0.2385 -0.3191
  190MOL   H18945927   6.879   4.377   6.506 -0.5154 -0.0929  0.3942
  190MOL   H19045928   6.966   4.314   6.372 -0.2752 -0.5087 -0.3316
  190MOL   H19145929   6.928   4.497   6.231 -1.8322  2.9384 -1.3470
  190MOL   H19245930   6.771   4.467   6.290  1.0535 -0.7175 -1.8390
  190MOL   H19345931   6.854   4.602   6.364 -0.3580 -0.1832 -0.2360
  190MOL   C19445932   7.046   4.577   6.576  0.3026 -0.8487  0.3699
  190MOL   C19545933   7.169   4.636   6.653 -0.3737 -0.3621  0.1797
  190MOL   C19645934   7.246   4.530   6.733 -0.2027  0.2357  0.2386
  190MOL   C19745935   7.167   4.458   6.846 -0.5898  0.6444 -0.1639
  190MOL   H19845936   6.970   4.544   6.648 -0.2238 -0.2232  0.1044
  190MOL   H19945937   7.006   4.660   6.519  1.3522 -0.3406  0.3703
  190MOL   H20045938   7.230   4.678   6.574 -0.9973 -1.0148 -0.6703
  190MOL   H20145939   7.341   4.573   6.766  0.4350 -0.4184 -0.7137
  190MOL   H20245940   7.278   4.461   6.655 -1.0715  1.3579 -1.1199
  190MOL   H20345941   7.230   4.386   6.899  0.7649 -0.4138 -3.1287
  190MOL   H20445942   7.139   4.527   6.926  1.1330  0.6725  0.4365
  190MOL   H20545943   7.080   4.396   6.822 -2.6641  2.3667  2.5766
  190MOL   C20645944   7.128   4.753   6.752  0.2807 -0.0634  0.6041
  190MOL   C20745945   7.236   4.845   6.803 -0.0792 -0.4184 -0.0605
  190MOL   C20845946   7.191   4.910   6.938  0.1185 -0.5903 -0.0936
  190MOL   C20945947   7.142   4.815   7.047 -0.1948 -0.1554  0.0862
  190MOL   H21045948   7.064   4.714   6.832 -0.5699 -0.2800 -0.1659
  190MOL   H21145949   7.061   4.812   6.690 -1.1296 -0.8735  1.3240
  190MOL   H21245950   7.313   4.768   6.816  1.0048  0.5283 -0.8461
  190MOL   H21345951   7.112   4.980   6.909  0.9508  0.4685  0.1532
  190MOL   H21445952   7.272   4.970   6.981  0.9094 -3.1569  2.1283
  190MOL   H21545953   7.134   4.870   7.140  0.0467 -2.7470  1.6804
  190MOL   H21645954   7.041   4.773   7.046  0.5013 -1.8666  0.2138
  190MOL   H21745955   7.207   4.729   7.063 -2.8213 -2.3589 -0.7205
  190MOL   C21845956   7.272   4.954   6.695  0.1886  0.8470 -0.7502
  190MOL   C21945957   7.411   5.016   6.713 -0.0905 -0.7371 -0.4955
  190MOL   C22045958   7.416   5.172   6.679  0.5900 -0.5019 -0.0566
  190MOL   C22145959   7.318   5.256   6.763 -0.6970  0.6302 -0.1504
  190MOL   H22245960   7.203   5.036   6.718  2.4326  2.3479  0.8532
  190MOL   H22345961   7.253   4.920   6.594  2.3621  0.3292 -1.0071
  190MOL   H22445962   7.442   5.001   6.817  0.6559  1.7559 -0.3137
  190MOL   H22545963   7.396   5.189   6.574 -2.3602 -2.1885  0.1748
  190MOL   H22645964   7.515   5.213   6.697 -0.5339  2.4441 -0.4620
  190MOL   H22745965   7.221   5.252   6.712 -0.6834  0.2035 -0.1417
  190MOL   H22845966   7.319   5.211   6.862 -0.0625 -2.2741 -1.4289
  190MOL   H22945967   7.351   5.359   6.771 -0.4358  0.4137  1.6446
  190MOL   C23045968   7.517   4.943   6.633 -0.6352 -1.0879 -0.3538
  190MOL   C23145969   7.665   4.994   6.656  0.6643 -0.0809  0.6495
  190MOL   C23245970   0.068   4.897   6.605  0.2102  0.2552  0.1804
  190MOL   C23345971   0.206   4.948   6.618 -0.6770 -0.3184 -0.0969
  190MOL   H23445972   7.485   4.969   6.532 -0.8768  0.7118  0.1792
  190MOL   H23545973   7.514   4.834   6.634  0.6234 -1.1267 -0.5771
  190MOL   H23645974   7.676   5.087   6.601 -0.1358 -0.3809 -0.0224
  190MOL   H23745975   0.040   4.872   6.503 -0.4242  1.0457  0.1523
  190MOL   H23845976   0.054   4.803   6.657  1.8803  0.7307  1.5296
  190MOL   H23945977   0.264   4.902   6.537  1.8598  0.1502  1.4201
  190MOL   H24045978   0.202   5.053   6.590 -1.0576 -0.9723 -2.6206
  190MOL   H24145979   0.249   4.933   6.717  1.5270  0.6801 -0.8581
  190MOL   H24245980   7.680   5.011   6.763  1.4743  0.0886  0.5065
  191MOL     C145981   4.793   6.790   5.677  0.4872 -0.1204 -0.2052
  191MOL     C245982   4.856   6.894   5.581 -0.4411  0.9009 -0.3928
  191MOL     C345983   4.753   6.955   5.488  0.6304  0.4091 -0.1726
  191MOL     C445984   4.797   7.058   5.386 -0.0874 -0.5583 -0.0624
  191MOL     H545985   4.716   6.835   5.739 -1.1358  0.4435 -2.5651
  191MOL     H645986   4.744   6.710   5.621  2.1743 -3.0677  2.3879
  191MOL     H745987   4.898   6.976   5.639  1.2150 -0.2535  0.0826
  191MOL     H845988   4.679   7.000   5.554  1.4028  0.0007  0.9886
  191MOL     H945989   4.704   6.883   5.423 -0.8792  0.8334  0.4812
  191MOL    H1045990   4.707   7.102   5.344 -1.4753 -2.9710  0.3276
  191MOL    H1145991   4.856   7.134   5.439  3.2234 -1.9971 -1.5693
  191MOL    H1245992   4.847   7.014   5.300  1.7720  2.2513 -0.4930
  191MOL    H1345993   4.863   6.744   5.747  0.9471  1.0759  0.1230
  191MOL    C1445994   4.979   6.829   5.512 -0.0827  0.6331 -0.0404
  191MOL    C1545995   5.086   6.927   5.443  0.2677  0.7291  0.2970
  191MOL    C1645996   5.121   6.876   5.306  0.1426 -0.9621  0.4895
  191MOL    C1745997   5.182   6.736   5.314  0.1953  0.2463  0.3120
  191MOL    H1845998   4.932   6.755   5.447  0.1417 -0.2106  0.7537
  191MOL    H1945999   5.039   6.752   5.559 -0.1970  0.8466  0.4591
  191MOL    H2046000   5.042   7.023   5.416 -0.3853  0.1955 -0.5886
  191MOL    H2146001   5.184   6.949   5.256  0.1734 -0.5304  1.1465
  191MOL    H2246002   5.034   6.879   5.241 -0.7949 -2.9512  1.5988
  191MOL    H2346003   5.113   6.661   5.351 -0.3385 -0.6165 -2.3128
  191MOL    H2446004   5.202   6.699   5.214  1.8747 -0.3425  0.8572
  191MOL    H2546005   5.280   6.733   5.361 -0.2898 -0.4760  1.2966
  191MOL    C2646006   5.201   6.974   5.526  0.6088  0.2558  0.0502
  191MOL    C2746007   5.190   7.106   5.600  0.3159  0.1901 -0.0084
  191MOL    C2846008   5.165   7.223   5.498  0.3901 -0.5373 -0.9875
  191MOL    C2946009   5.268   7.233   5.385  0.1971  0.3731  0.2720
  191MOL    H3046010   5.295   6.977   5.471  1.0268 -1.2665  0.6315
  191MOL    H3146011   5.217   6.890   5.594  0.2525  0.4511  0.3792
  191MOL    H3246012   5.104   7.088   5.664  0.6974  0.2633  0.5260
  191MOL    H3346013   5.172   7.317   5.551  0.5058 -1.6681  1.0364
  191MOL    H3446014   5.063   7.227   5.458 -1.1150  0.9251  2.8054
  191MOL    H3546015   5.236   7.311   5.315 -1.5056  0.2979  0.9560
  191MOL    H3646016   5.367   7.250   5.427  0.9430  2.2101 -2.0917
  191MOL    H3746017   5.265   7.140   5.327  1.3625  0.5808 -0.1357
  191MOL    C3846018   5.318   7.131   5.688  0.2470 -0.2490 -0.1603
  191MOL    C3946019   5.318   7.218   5.816 -0.1646  0.5001 -0.9325
  191MOL    C4046020   5.179   7.234   5.881  0.0150  0.4465  0.2722
  191MOL    C4146021   5.130   7.110   5.963  0.2296 -0.8046 -0.6000
  191MOL    H4246022   5.409   7.143   5.629  0.9226 -0.5307  0.8193
  191MOL    H4346023   5.315   7.034   5.738 -1.7904 -1.1092 -1.9040
  191MOL    H4446024   5.379   7.161   5.887 -1.3600  0.3257 -0.0338
  191MOL    H4546025   5.120   7.280   5.802 -0.7192  1.0187  1.1494
  191MOL    H4646026   5.181   7.314   5.955  0.9081  0.9738 -0.3165
  191MOL    H4746027   5.207   7.055   6.017  0.5518 -0.0120 -0.2426
  191MOL    H4846028   5.048   7.144   6.027 -0.0284  0.5360 -1.6108
  191MOL    H4946029   5.087   7.033   5.899  2.1902 -0.4351 -2.4182
  191MOL    C5046030   5.376   7.356   5.792  0.1861  0.1776  0.4541
  191MOL    C5146031   5.421   7.447   5.912 -0.1234 -0.0876  0.2490
  191MOL    C5246032   5.488   7.574   5.855 -0.2148  0.0571  0.5662
  191MOL    C5346033   5.498   7.692   5.947 -0.2795  0.2560 -0.0020
  191MOL    H5446034   5.298   7.408   5.736 -0.1249 -0.7930 -0.0274
  191MOL    H5546035   5.455   7.333   5.721 -0.4253 -1.7836  0.3685
  191MOL    H5646036   5.338   7.472   5.977 -1.2649 -1.0272 -0.8123
  191MOL    H5746037   5.421   7.600   5.773 -0.3172  0.2733  0.7172
  191MOL    H5846038   5.582   7.555   5.804 -0.4952  1.2942 -0.4224
  191MOL    H5946039   5.515   0.076   5.888 -0.2710  1.7947  2.3084
  191MOL    H6046040   5.404   0.007   5.997  0.1733  0.9900  0.5458
  191MOL    H6146041   5.591   7.694   6.004 -1.3176  0.8931  1.6979
  191MOL    C6246042   5.519   7.360   5.993 -0.3483  0.0568 -0.2552
  191MOL    C6346043   5.471   7.317   6.127  0.2249  1.1506 -0.2000
  191MOL    C6446044   5.511   7.412   6.246 -0.5023  0.2338  0.1864
  191MOL    C6546045   5.658   7.402   6.292 -0.1820  0.0029 -0.1259
  191MOL    H6646046   5.617   7.407   5.990  0.7050 -2.0463  0.2760
  191MOL    H6746047   5.552   7.276   5.931  1.7942 -0.0676  1.0077
  191MOL    H6846048   5.362   7.317   6.133  0.3443  2.1351  2.6815
  191MOL    H6946049   5.450   7.384   6.332 -1.8103  0.3341 -0.6835
  191MOL    H7046050   5.487   7.516   6.223 -1.2761  0.0186 -0.0090
  191MOL    H7146051   5.681   7.299   6.321 -0.1210 -0.8274 -2.9986
  191MOL    H7246052   5.725   7.429   6.210 -1.4657  1.5870 -0.6590
  191MOL    H7346053   5.676   7.470   6.375  0.3433  0.3532 -0.5255
  191MOL    C7446054   5.508   7.170   6.152  0.3207  0.2078  0.0434
  191MOL    C7546055   5.468   7.116   6.296  0.0573  0.0137  0.5100
  191MOL    C7646056   5.517   6.965   6.301  0.0509  0.7081  0.1436
  191MOL    C7746057   5.426   6.854   6.240 -0.0321 -0.0856  0.6940
  191MOL    H7846058   5.612   7.145   6.131  0.0010  0.9882 -2.6789
  191MOL    H7946059   5.454   7.105   6.082 -2.4531  1.6811  0.7459
  191MOL    H8046060   5.528   7.168   6.370  2.8666  1.3823 -2.5515
  191MOL    H8146061   5.534   6.934   6.404  2.5504 -0.8493 -0.6825
  191MOL    H8246062   5.614   6.959   6.251 -0.3840  0.1298 -0.6555
  191MOL    H8346063   5.349   6.837   6.316 -1.2779  0.4500 -0.4349
  191MOL    H8446064   5.381   6.875   6.143  3.5927  0.2004 -1.0067
  191MOL    H8546065   5.478   6.760   6.224  0.5663  0.8752 -3.4649
  191MOL    C8646066   5.316   7.121   6.331  0.4030 -0.2438 -0.2371
  191MOL    C8746067   5.294   7.093   6.483 -0.7115  0.2986 -0.3221
  191MOL    C8846068   5.145   7.066   6.506  0.9748  0.2607  0.1889
  191MOL    C8946069   5.124   6.919   6.501 -0.4995 -0.0205 -0.3360
  191MOL    H9046070   5.271   7.047   6.265  1.9285 -0.2793 -1.2800
  191MOL    H9146071   5.270   7.211   6.292  1.6434  1.0018  1.1153
  191MOL    H9246072   5.362   7.020   6.528 -0.4865  0.7648  0.0984
  191MOL    H9346073   5.085   7.119   6.432  3.3325  1.3534 -1.0128
  191MOL    H9446074   5.112   7.083   6.609 -1.7170 -1.2745 -0.4023
  191MOL    H9546075   5.022   6.896   6.468 -1.3050 -0.2977  2.2508
  191MOL    H9646076   5.173   6.870   6.417  1.6443 -0.2611  1.0129
  191MOL    H9746077   5.144   6.863   6.592  1.1904  2.2456  0.7296
  191MOL    C9846078   5.329   7.215   6.564  0.1533  0.2750  0.9455
  191MOL    C9946079   5.341   7.200   6.718 -0.1194  0.2006  0.3288
  191MOL   C10046080   5.281   7.314   6.794 -0.4635  0.0150 -0.1633
  191MOL   C10146081   5.130   7.331   6.778  0.0932  0.3332 -0.6140
  191MOL   H10246082   5.255   7.294   6.545 -0.2292 -1.0526 -3.7207
  191MOL   H10346083   5.423   7.258   6.528  1.0963 -1.2095  1.5976
  191MOL   H10446084   5.276   7.115   6.737  1.0508 -0.7601  0.0534
  191MOL   H10546085   5.344   7.395   6.758 -1.6256  0.6629 -0.7492
  191MOL   H10646086   5.298   7.316   6.902  1.1010  0.1302 -0.3890
  191MOL   H10746087   5.085   7.232   6.790  2.7428 -0.9633 -1.1220
  191MOL   H10846088   5.101   7.397   6.860 -1.8661 -0.0983 -0.9319
  191MOL   H10946089   5.081   7.381   6.694 -3.1901 -1.7910 -0.0393
  191MOL   C11046090   5.484   7.180   6.770 -0.4469 -0.0619 -0.2921
  191MOL   C11146091   5.561   7.062   6.707  0.1616 -0.5696 -0.2483
  191MOL   C11246092   5.501   6.930   6.757  0.0389  0.5246 -0.3885
  191MOL   C11346093   5.551   6.798   6.689  0.1041  0.8724  0.1104
  191MOL   H11446094   5.494   7.169   6.878 -0.6759 -2.2797 -0.4678
  191MOL   H11546095   5.542   7.269   6.747 -0.2972  0.0308  0.4297
  191MOL   H11646096   5.550   7.059   6.599 -1.2305 -1.8120 -0.0880
  191MOL   H11746097   5.393   6.929   6.742 -0.1671  0.5615  1.0810
  191MOL   H11846098   5.514   6.919   6.864  2.1640 -0.7554 -0.7446
  191MOL   H11946099   5.656   6.798   6.660 -0.1237  1.4507 -0.7301
  191MOL   H12046100   5.538   6.712   6.754  0.2228  0.8588  0.1167
  191MOL   H12146101   5.494   6.773   6.599  0.2682  1.1242 -0.0631
  191MOL   C12246102   5.713   7.069   6.744 -0.5446  0.4806  0.3773
  191MOL   C12346103   5.795   7.178   6.678  0.2771  0.0151  0.2850
  191MOL   C12446104   5.897   7.133   6.578 -0.1904 -0.0267 -0.2010
  191MOL   C12546105   5.841   7.070   6.459  0.6594  0.1201  0.9721
  191MOL   H12646106   5.771   6.978   6.728  3.4789  3.1259 -0.7170
  191MOL   H12746107   5.724   7.057   6.852  3.1270 -0.9759 -0.0570
  191MOL   H12846108   5.724   7.239   6.621 -1.1305 -1.3236  0.5859
  191MOL   H12946109   5.958   7.051   6.618  0.4837 -0.3074 -1.7541
  191MOL   H13046110   5.953   7.225   6.560 -0.1573 -0.0033  0.0065
  191MOL   H13146111   5.764   7.132   6.413  1.4985  1.4229  1.3136
  191MOL   H13246112   5.926   7.053   6.393 -1.3437  0.8283 -1.8596
  191MOL   H13346113   5.799   6.972   6.484  0.2980 -0.1231 -0.5440
  191MOL   C13446114   5.849   7.269   6.796 -0.0320 -0.2638 -0.5944
  191MOL   C13546115   5.932   7.398   6.757 -0.3558 -0.1629 -0.8098
  191MOL   C13646116   5.875   7.487   6.640  0.2901 -0.4791 -0.1974
  191MOL   C13746117   5.737   7.549   6.672 -0.0721  0.2693  0.8823
  191MOL   H13846118   5.902   7.201   6.863  0.5956  0.3953 -0.4162
  191MOL   H13946119   5.763   7.289   6.859  0.1113 -1.0672 -0.1371
  191MOL   H14046120   5.926   7.465   6.843  1.6573  0.1803 -0.9143
  191MOL   H14146121   5.857   7.430   6.549 -0.3149  1.9648 -1.6503
  191MOL   H14246122   5.936   7.571   6.606  1.5668  0.0928  3.2690
  191MOL   H14346123   5.670   7.550   6.586  0.8883 -0.2420  0.1197
  191MOL   H14446124   5.687   7.480   6.740  0.1125 -0.7385  0.0102
  191MOL   H14546125   5.746   7.649   6.713  0.4192  1.6628 -2.4684
  191MOL   C14646126   6.087   7.380   6.731  0.7235 -0.3416  0.3200
  191MOL   C14746127   6.183   7.494   6.773 -0.0080  0.5506 -0.2497
  191MOL   C14846128   6.285   7.504   6.660  0.6043  1.0715 -0.3502
  191MOL   C14946129   6.395   7.603   6.689  0.3546  0.0095  0.0396
  191MOL   H15046130   6.112   7.361   6.627  0.2133 -0.1287  0.1563
  191MOL   H15146131   6.117   7.278   6.754 -1.7328 -0.7230  2.0227
  191MOL   H15246132   6.125   7.586   6.779  0.0315  0.8559 -3.5854
  191MOL   H15346133   6.240   7.545   6.570 -0.8109 -0.2759 -0.2856
  191MOL   H15446134   6.326   7.405   6.638 -0.3650 -0.1024  2.8130
  191MOL   H15546135   6.471   7.618   6.613  1.1698 -1.7537  0.4757
  191MOL   H15646136   6.342   7.698   6.699 -1.6000 -0.8528 -1.7537
  191MOL   H15746137   6.456   7.577   6.776 -0.1399 -1.2992  0.0126
  191MOL   C15846138   6.246   7.492   6.918 -0.1820  0.9276 -0.1507
  191MOL   C15946139   6.147   7.473   7.037 -0.4501 -0.1632 -0.5850
  191MOL   C16046140   6.072   7.605   7.071 -0.2576 -0.0215 -0.4277
  191MOL   C16146141   5.933   7.574   7.144 -0.3184  0.0730 -0.1825
  191MOL   H16246142   6.292   7.586   6.947 -2.5857  1.3973  2.4081
  191MOL   H16346143   6.312   7.405   6.920 -0.3910  0.5932 -4.1621
  191MOL   H16446144   6.066   7.407   7.007 -2.0792  1.2404  0.6651
  191MOL   H16546145   6.056   7.660   6.978  1.3260 -0.8766 -1.2244
  191MOL   H16646146   6.138   7.673   7.126 -1.0601 -0.0037  0.5357
  191MOL   H16746147   5.873   7.497   7.096  0.3949  0.5348 -1.8524
  191MOL   H16846148   5.954   7.540   7.245  0.3336 -0.7640 -0.5985
  191MOL   H16946149   5.862   7.657   7.139 -1.4029 -0.7914  0.7254
  191MOL   C17046150   6.209   7.398   7.158  0.3396 -0.4449 -0.2386
  191MOL   C17146151   6.272   7.474   7.282  1.0290  0.1571  0.2670
  191MOL   C17246152   6.388   7.569   7.237 -0.1084  0.4525 -0.5033
  191MOL   C17346153   6.430   7.682   7.339 -0.1189  0.4682 -0.2737
  191MOL   H17446154   6.277   7.317   7.133  2.1871  1.5126 -1.7134
  191MOL   H17546155   6.123   7.343   7.197 -0.4665  0.2905 -0.9286
  191MOL   H17646156   6.186   7.531   7.318 -1.5741 -1.3535 -3.2359
  191MOL   H17746157   6.374   7.620   7.142  0.9442 -2.4871 -2.3201
  191MOL   H17846158   6.474   7.503   7.225 -0.9988 -0.9397  0.5618
  191MOL   H17946159   6.351   0.052   7.336 -0.2928  0.2820 -0.3739
  191MOL   H18046160   6.438   7.643   7.440  0.4851  1.4754  0.0789
  191MOL   H18146161   6.514   0.036   7.304 -1.6816  2.0448 -1.4523
  191MOL   C18246162   6.324   7.368   7.384 -0.5147  0.1100 -0.1273
  191MOL   C18346163   6.231   7.253   7.427 -0.1437  0.2480  0.2642
  191MOL   C18446164   6.092   7.300   7.475  0.2257 -0.7001 -0.4136
  191MOL   C18546165   6.073   7.406   7.587 -1.0245  0.2678  0.4898
  191MOL   H18646166   6.347   7.432   7.470 -1.8803  0.9448 -0.3657
  191MOL   H18746167   6.413   7.327   7.337  0.4936  3.4109 -1.2274
  191MOL   H18846168   6.219   7.186   7.341  0.6116 -0.5929  0.7945
  191MOL   H18946169   6.035   7.214   7.509  0.3507 -0.2273  1.0522
  191MOL   H19046170   6.042   7.341   7.388 -0.3439  0.6054  0.5157
  191MOL   H19146171   6.111   7.504   7.556  0.6141 -0.3351  0.5379
  191MOL   H19246172   5.967   7.411   7.612 -0.7104  1.0139  1.7174
  191MOL   H19346173   6.123   7.374   7.679 -1.8262 -0.0109  0.8369
  191MOL   C19446174   6.298   7.157   7.530 -0.3071 -0.3288  0.5300
  191MOL   C19546175   6.394   7.063   7.467  0.3656  0.3116 -0.2252
  191MOL   C19646176   6.325   6.927   7.423 -0.0868  0.1642 -0.0231
  191MOL   C19746177   6.202   6.936   7.335 -0.3307  0.5352 -0.2668
  191MOL   H19846178   6.231   7.084   7.577 -1.4925  0.5303  0.2047
  191MOL   H19946179   6.336   7.213   7.614 -0.3958  0.8498 -0.2075
  191MOL   H20046180   6.430   7.107   7.375 -0.0046  1.9899  0.4104
  191MOL   H20146181   6.290   6.881   7.515  2.4425  0.0138  0.8866
  191MOL   H20246182   6.397   6.856   7.384  0.2158 -0.4158  1.5593
  191MOL   H20346183   6.213   6.994   7.244 -0.2089  1.4834  0.3376
  191MOL   H20446184   6.171   6.837   7.303 -2.0425  0.4523  1.5712
  191MOL   H20546185   6.117   6.973   7.392  0.7863  1.1387  1.0597
  191MOL   C20646186   6.519   7.047   7.559 -0.1636 -0.0988 -0.1762
  191MOL   C20746187   6.638   6.998   7.478  0.0581  0.2443 -0.4524
  191MOL   C20846188   6.749   6.939   7.575  0.6494  0.1955  0.2960
  191MOL   C20946189   6.706   6.827   7.673  0.2356 -0.5551  0.1971
  191MOL   H21046190   6.496   6.984   7.645  1.2597  0.9750  1.0127
  191MOL   H21146191   6.540   7.146   7.599  0.5185  0.8163 -2.6839
  191MOL   H21246192   6.612   6.914   7.414 -2.8433 -0.4273  1.5220
  191MOL   H21346193   6.805   7.018   7.626  1.1599  0.1849 -0.2460
  191MOL   H21446194   6.825   6.886   7.518  0.0140  1.4248 -1.7460
  191MOL   H21546195   6.651   6.741   7.633  1.0972 -0.2245 -1.7427
  191MOL   H21646196   6.793   6.779   0.010 -0.8733 -2.9419 -0.1546
  191MOL   H21746197   6.664   6.881   0.052  1.6753  1.6924 -0.4783
  191MOL   C21846198   6.700   7.106   7.385  0.6946 -0.2969 -0.0640
  191MOL   C21946199   6.738   7.063   7.242  0.4160  0.0552 -0.7216
  191MOL   C22046200   6.619   7.038   7.146  0.5018  0.5379  0.3791
  191MOL   C22146201   6.563   7.175   7.089 -0.0051  0.0334  0.1919
  191MOL   H22246202   6.799   7.126   7.425  0.3330  0.7235  0.3196
  191MOL   H22346203   6.646   7.200   7.383 -0.9608 -1.2034  1.0359
  191MOL   H22446204   6.782   7.153   7.199  0.2645  0.8594  0.7957
  191MOL   H22546205   6.542   6.976   7.190  1.0733 -0.6930 -0.3120
  191MOL   H22646206   6.653   6.970   7.068  2.5244  2.1847 -0.2314
  191MOL   H22746207   6.552   7.255   7.162 -0.5557  0.4977 -0.3936
  191MOL   H22846208   6.617   7.209   7.002  0.7226 -0.8961  0.2676
  191MOL   H22946209   6.464   7.147   7.053 -1.2511  0.9950  2.7451
  191MOL   C23046210   6.841   6.945   7.232  0.5658 -0.2464 -0.2243
  191MOL   C23146211   6.980   6.983   7.285  0.0869 -0.4629  0.0848
  191MOL   C23246212   7.058   6.853   7.326  0.2533 -0.7697  0.4341
  191MOL   C23346213   7.197   6.892   7.389  0.3044 -0.1000 -0.0145
  191MOL   H23446214   6.837   6.902   7.132  0.1009  2.0792 -1.2492
  191MOL   H23546215   6.794   6.866   7.291 -0.9056  1.0027  0.3143
  191MOL   H23646216   7.032   7.027   7.199 -1.1972  0.0090 -0.4653
  191MOL   H23746217   7.070   6.796   7.234  0.3848 -0.1956  0.0929
  191MOL   H23846218   6.998   6.790   7.392 -0.1741 -0.4160  0.3835
  191MOL   H23946219   7.258   6.804   7.411 -2.3897 -1.4759  2.2396
  191MOL   H24046220   7.258   6.951   7.321 -1.3983  2.0752  0.3002
  191MOL   H24146221   7.193   6.947   7.483  3.4888  1.9472 -0.9810
  191MOL   H24246222   6.979   7.057   7.365  2.9576 -0.8966  0.5939
  192MOL     C146223   1.361   6.902   0.903 -0.0651  0.6200 -0.9498
  192MOL     C246224   1.357   6.749   0.881  0.8192  0.6281  0.5666
  192MOL     C346225   1.357   6.661   1.004  0.3320 -0.2225  0.0572
  192MOL     C446226   1.240   6.707   1.102 -0.1719 -0.0246  0.0097
  192MOL     H546227   1.380   6.954   0.809 -0.0079 -0.1487 -1.3702
  192MOL     H646228   1.271   6.943   0.949  0.2469  0.3342 -0.0673
  192MOL     H746229   1.261   6.719   0.837  1.4628 -2.2349  1.0597
  192MOL     H846230   1.450   6.661   1.062  0.8580  1.4282 -0.7297
  192MOL     H946231   1.330   6.559   0.978 -2.1371 -0.2678  2.5207
  192MOL    H1046232   1.146   6.716   1.048 -0.5984  0.0476  0.7749
  192MOL    H1146233   1.222   6.644   1.188  0.5605 -1.0997 -0.5984
  192MOL    H1246234   1.264   6.803   1.147 -0.7179  1.2937 -2.4130
  192MOL    H1346235   1.446   6.931   0.965 -0.4624  1.3247 -0.7223
  192MOL    C1446236   1.474   6.707   0.790  0.0867  0.4828  0.4001
  192MOL    C1546237   1.451   6.725   0.635 -0.1293 -0.8448  0.5972
  192MOL    C1646238   1.408   6.592   0.568 -0.3161 -0.0010 -0.5562
  192MOL    C1746239   1.266   6.541   0.604 -0.0679  0.1274  0.1987
  192MOL    H1846240   1.492   6.601   0.810 -0.4259  0.4642  0.7587
  192MOL    H1946241   1.565   6.753   0.828  0.2620 -0.9723  1.7824
  192MOL    H2046242   1.371   6.798   0.615  1.1304  0.1435 -0.9882
  192MOL    H2146243   1.482   6.515   0.584  1.0853  1.3561 -0.3967
  192MOL    H2246244   1.415   6.617   0.462 -0.3068  2.3006 -0.0406
  192MOL    H2346245   1.193   6.621   0.592  1.4216  1.3274 -1.1280
  192MOL    H2446246   1.236   6.451   0.551  1.6824 -0.7125  0.6051
  192MOL    H2546247   1.270   6.511   0.709 -0.1640 -1.9177 -0.3607
  192MOL    C2646248   1.576   6.789   0.568 -1.2422 -0.3504 -0.4904
  192MOL    C2746249   1.577   6.941   0.549  0.1615 -0.1230  0.0329
  192MOL    C2846250   1.476   6.982   0.438  0.7854 -0.6476 -0.6994
  192MOL    C2946251   1.416   7.121   0.467  0.5834 -0.0757 -0.5152
  192MOL    H3046252   1.608   6.755   0.470  1.5266 -1.0140  0.6037
  192MOL    H3146253   1.665   6.771   0.628 -0.4328 -1.3520 -1.9805
  192MOL    H3246254   1.530   6.982   0.638 -2.6236  0.2802 -1.5746
  192MOL    H3346255   1.398   6.907   0.423  0.1417 -0.1754  0.2517
  192MOL    H3446256   1.531   6.977   0.344  0.8959  2.0707 -0.8131
  192MOL    H3546257   1.360   7.117   0.561  1.2286  1.3574 -0.0529
  192MOL    H3646258   1.489   7.202   0.458 -0.8604  1.5372  1.5586
  192MOL    H3746259   1.343   7.141   0.388  1.5503  1.0159 -1.1626
  192MOL    C3846260   1.723   6.994   0.535  0.1941  0.3511  0.2491
  192MOL    C3946261   1.779   7.023   0.673 -0.0963 -0.2097  0.3958
  192MOL    C4046262   1.723   7.148   0.740 -0.6748 -0.0886  0.1780
  192MOL    C4146263   1.714   7.273   0.650  0.7010 -0.2640 -0.3298
  192MOL    H4246264   1.710   7.085   0.475 -1.1397 -1.0220 -1.5992
  192MOL    H4346265   1.782   6.921   0.479  0.4381  0.1221  0.8054
  192MOL    H4446266   1.746   6.951   0.748 -2.3954  0.1831 -0.2096
  192MOL    H4546267   1.791   7.181   0.819 -1.3006 -0.3438  0.8340
  192MOL    H4646268   1.626   7.121   0.784 -0.1113 -0.1454  1.4177
  192MOL    H4746269   1.699   7.361   0.713 -1.5385 -0.6220 -0.2957
  192MOL    H4846270   1.791   7.279   0.574  0.6847 -0.7728 -0.3906
  192MOL    H4946271   1.624   7.284   0.588 -0.4309  0.3172  1.3846
  192MOL    C5046272   1.937   7.040   0.695  0.7136 -0.3099 -0.0814
  192MOL    C5146273   2.024   6.923   0.632  0.3335 -0.4604 -0.0519
  192MOL    C5246274   1.990   6.786   0.701  0.4232 -0.2286 -0.4250
  192MOL    C5346275   2.019   6.790   0.851  0.1047  0.5789 -0.2687
  192MOL    H5446276   1.974   7.049   0.797 -0.1055 -0.1735  0.2043
  192MOL    H5546277   1.955   7.133   0.640 -1.8047 -1.3965 -2.8835
  192MOL    H5646278   1.995   6.905   0.528 -0.7344  1.3127 -0.0866
  192MOL    H5746279   2.036   6.701   0.651 -0.1579 -1.4293  1.0551
  192MOL    H5846280   1.885   6.769   0.679  0.3402  0.0849 -0.2818
  192MOL    H5946281   1.943   6.855   0.894  0.0775 -0.0340  0.6329
  192MOL    H6046282   1.991   6.695   0.896 -1.9316  0.6506 -1.3512
  192MOL    H6146283   2.119   6.820   0.883  0.0873  1.9456 -1.4751
  192MOL    C6246284   2.165   6.959   0.644 -0.6227 -0.1723 -0.0322
  192MOL    C6346285   2.267   6.850   0.601 -0.7645  0.6606  0.0507
  192MOL    C6446286   2.416   6.895   0.630 -0.1627 -0.9543 -0.3945
  192MOL    C6546287   2.451   6.903   0.785 -0.0076 -0.1567 -0.0266
  192MOL    H6646288   2.182   6.983   0.749  1.2694 -1.6101  0.0224
  192MOL    H6746289   2.181   7.054   0.593 -1.3345 -0.1555 -0.2323
  192MOL    H6846290   2.248   6.758   0.656  0.4081  0.3634 -0.0358
  192MOL    H6946291   2.436   6.988   0.576 -0.1641 -0.9791 -0.4386
  192MOL    H7046292   2.484   6.818   0.592 -0.6238 -1.1782 -0.7647
  192MOL    H7146293   2.387   6.975   0.836  2.7980  1.5861  1.1986
  192MOL    H7246294   2.432   6.813   0.842  0.1093 -1.7593 -2.4397
  192MOL    H7346295   2.556   6.926   0.806  0.1499  1.2407 -2.1654
  192MOL    C7446296   2.247   6.813   0.455  0.7494  0.2074  0.3242
  192MOL    C7546297   2.335   6.699   0.398 -0.0854  0.0446 -0.5670
  192MOL    C7646298   2.288   6.666   0.252  0.5522 -0.0600 -0.2316
  192MOL    C7746299   2.270   6.789   0.158 -0.3457  0.9659 -0.1879
  192MOL    H7846300   2.256   6.904   0.396  1.2269  0.3529  0.6177
  192MOL    H7946301   2.146   6.784   0.427  0.7077  0.4642  0.2014
  192MOL    H8046302   2.433   6.747   0.388  0.9359 -1.2273  2.8423
  192MOL    H8146303   2.186   6.629   0.247 -0.2798  2.1500 -0.1245
  192MOL    H8246304   2.348   6.588   0.204 -0.2464 -1.1049  0.4483
  192MOL    H8346305   2.354   6.856   0.176 -0.1824  0.0598  2.7506
  192MOL    H8446306   2.277   6.751   0.056  0.9455 -0.0840  0.2816
  192MOL    H8546307   2.188   6.854   0.189  1.2388  2.4615  1.0089
  192MOL    C8646308   2.359   6.581   0.494 -0.4303 -0.3664 -0.3867
  192MOL    C8746309   2.240   6.505   0.552  0.5903  0.1400 -0.9370
  192MOL    C8846310   2.264   6.468   0.708  0.7313 -0.0073 -0.5540
  192MOL    C8946311   2.352   6.346   0.731  0.6953  0.6543  0.7006
  192MOL    H9046312   2.412   6.618   0.582 -0.8984  0.0012 -0.2556
  192MOL    H9146313   2.439   6.520   0.453  0.0379  0.5176 -0.8006
  192MOL    H9246314   2.155   6.573   0.545  1.4383  1.2338 -0.7142
  192MOL    H9346315   2.160   6.450   0.734  0.9807 -0.2716  0.2857
  192MOL    H9446316   2.307   6.556   0.755  2.2326  0.1883 -2.2672
  192MOL    H9546317   2.321   6.269   0.660  2.4513  0.1422  0.4473
  192MOL    H9646318   2.455   6.351   0.694  0.6708 -0.0165  0.5295
  192MOL    H9746319   2.352   6.308   0.833  0.2757  1.4717  1.0083
  192MOL    C9846320   2.193   6.392   0.460 -0.3234 -0.0460 -0.4457
  192MOL    C9946321   2.078   6.304   0.520 -0.3596 -0.3911 -0.2593
  192MOL   C10046322   2.085   6.164   0.446  0.6506  0.4282 -0.3607
  192MOL   C10146323   2.114   6.059   0.555 -0.2642 -0.3379 -0.1014
  192MOL   H10246324   2.274   6.323   0.437 -0.0566 -0.3834  1.4339
  192MOL   H10346325   2.177   6.431   0.360  0.2253 -0.0237 -0.5257
  192MOL   H10446326   2.078   6.290   0.628 -0.3524  0.8656 -0.0845
  192MOL   H10546327   2.160   6.155   0.368  2.7621  0.0918  1.6663
  192MOL   H10646328   1.990   6.142   0.397 -0.6871  1.1211  1.8156
  192MOL   H10746329   2.213   6.074   0.599  0.0686 -0.7006 -0.7249
  192MOL   H10846330   2.040   6.060   0.636  0.5801  0.6364  0.6780
  192MOL   H10946331   2.108   5.958   0.514  0.3046 -0.2505 -0.3942
  192MOL   C11046332   1.945   6.376   0.487 -0.2559 -0.5305 -0.2077
  192MOL   C11146333   1.827   6.322   0.576  0.0743  0.5581  0.6543
  192MOL   C11246334   1.699   6.352   0.495  0.2511  0.1254  0.0232
  192MOL   C11346335   1.680   6.276   0.366  0.4541  0.6118 -0.1974
  192MOL   H11446336   1.922   6.394   0.382  2.9994 -0.6880 -1.0097
  192MOL   H11546337   1.964   6.474   0.531 -1.7499  0.4159 -1.6193
  192MOL   H11646338   1.837   6.214   0.582 -0.5823  0.4654  0.2063
  192MOL   H11746339   1.687   6.460   0.485  0.8552  0.3253  1.3375
  192MOL   H11846340   1.617   6.325   0.561  0.1818  0.3211  0.0158
  192MOL   H11946341   1.576   6.294   0.339 -0.2911  1.0937  2.8706
  192MOL   H12046342   1.741   6.324   0.289  1.1868 -0.0275 -0.0212
  192MOL   H12146343   1.695   6.169   0.381  0.4223  0.4748 -1.0782
  192MOL   C12246344   1.840   6.378   0.720  0.1590 -0.6008 -0.1459
  192MOL   C12346345   1.752   6.308   0.826 -0.1193  0.1532 -0.5444
  192MOL   C12446346   1.729   6.398   0.947  0.4045  0.0312  0.2580
  192MOL   C12546347   1.596   6.377   1.018  0.2363 -0.8997 -0.3410
  192MOL   H12646348   1.802   6.479   0.712 -2.0831 -1.4458 -0.4326
  192MOL   H12746349   1.939   6.383   0.766  0.3014 -1.9313 -0.2658
  192MOL   H12846350   1.653   6.298   0.781 -0.2536  1.5733 -0.5922
  192MOL   H12946351   1.727   6.497   0.900  0.7954 -0.8268 -1.6215
  192MOL   H13046352   1.812   6.394   1.017  0.3837  1.4553  0.3964
  192MOL   H13146353   1.603   6.304   1.098  0.7974 -0.4238  0.0536
  192MOL   H13246354   1.556   6.470   1.060 -2.1019 -2.4487  0.9608
  192MOL   H13346355   1.521   6.338   0.950  0.0494 -0.3886 -0.4316
  192MOL   C13446356   1.817   6.173   0.863  0.3942 -0.7462 -0.4780
  192MOL   C13546357   1.753   6.045   0.809 -0.1313  0.2936  0.4181
  192MOL   C13646358   1.611   6.022   0.869  0.3684  0.1513  0.1432
  192MOL   C13746359   1.612   5.962   1.015 -0.2400  0.1735 -0.2012
  192MOL   H13846360   1.822   6.165   0.972  0.0561 -1.7573 -0.5339
  192MOL   H13946361   1.924   6.182   0.845  0.5622 -2.6072 -0.4392
  192MOL   H14046362   1.737   6.072   0.704  1.1644 -1.8096 -0.3635
  192MOL   H14146363   1.566   5.954   0.797 -0.6073  0.3793  0.5170
  192MOL   H14246364   1.558   6.117   0.873 -0.0598 -0.0840  0.0840
  192MOL   H14346365   1.665   6.040   1.069  0.2772 -0.5172  0.2955
  192MOL   H14446366   1.512   5.950   1.057 -0.5542 -1.7884 -1.4631
  192MOL   H14546367   1.661   5.865   1.011  1.1971  0.8685 -0.0245
  192MOL   C14646368   1.843   5.920   0.814  0.2719 -0.3497  0.7746
  192MOL   C14746369   1.793   5.794   0.725 -0.3511  0.2465 -0.5427
  192MOL   C14846370   1.885   5.675   0.773  0.0950  0.0765 -0.7682
  192MOL   C14946371   2.032   5.671   0.715 -0.4691 -0.1432  0.0773
  192MOL   H15046372   1.846   5.891   0.919 -1.4312 -4.2187 -0.1463
  192MOL   H15146373   1.943   5.950   0.782  0.3258 -0.2214  1.0584
  192MOL   H15246374   1.698   5.762   0.766 -0.4595  1.7508  0.4368
  192MOL   H15346375   1.832   5.581   0.756 -0.2468  0.3251 -1.1028
  192MOL   H15446376   1.887   5.673   0.882 -3.7132 -0.3936 -0.6505
  192MOL   H15546377   2.081   5.764   0.744 -2.5678  1.7759 -2.2721
  192MOL   H15646378   2.072   5.576   0.749  0.7096 -0.7376 -2.8484
  192MOL   H15746379   2.029   5.680   0.607 -2.6906  0.6778  0.1633
  192MOL   C15846380   1.788   5.803   0.577 -0.3168  0.6719 -0.6271
  192MOL   C15946381   1.657   5.848   0.510  0.6972 -0.2382  0.4033
  192MOL   C16046382   1.521   5.759   0.533  0.0577 -0.3735 -0.1067
  192MOL   C16146383   1.534   5.604   0.546 -0.0560 -0.2976 -0.0187
  192MOL   H16246384   1.790   5.699   0.546  1.1999  0.4915  0.0228
  192MOL   H16346385   1.876   5.845   0.527 -0.6664  1.1164 -0.8715
  192MOL   H16446386   1.624   5.931   0.571 -0.3938 -2.5477  3.0747
  192MOL   H16546387   1.456   5.766   0.445 -0.0635  0.6144  0.0596
  192MOL   H16646388   1.464   5.791   0.621 -0.6059 -2.3865  0.2152
  192MOL   H16746389   1.433   5.567   0.557 -0.6424  1.5607  1.0938
  192MOL   H16846390   1.569   5.558   0.454  0.6683 -1.2973  0.7463
  192MOL   H16946391   1.589   5.578   0.636 -2.1229  1.1522  1.7276
  192MOL   C17046392   1.665   5.888   0.360  0.2045 -0.1403 -0.3283
  192MOL   C17146393   1.659   5.772   0.248 -0.2187  0.0929 -0.7730
  192MOL   C17246394   1.801   5.695   0.236 -0.0111 -0.1221  0.4578
  192MOL   C17346395   1.917   5.781   0.184 -0.1356  0.1969 -0.3492
  192MOL   H17446396   1.759   5.939   0.337 -1.0433  1.5677 -1.7899
  192MOL   H17546397   1.581   5.956   0.347  1.1993  1.2274  0.2351
  192MOL   H17646398   1.582   5.700   0.277 -0.7330 -0.1636 -2.7102
  192MOL   H17746399   1.787   5.614   0.165  1.1053  1.9886 -2.2652
  192MOL   H17846400   1.820   5.657   0.336 -1.8644 -2.5146 -0.0434
  192MOL   H17946401   2.008   5.757   0.239  1.2353 -1.0852 -3.0692
  192MOL   H18046402   1.929   5.772   0.076 -2.5238  2.0728 -0.8356
  192MOL   H18146403   1.893   5.886   0.198 -0.7234  0.0883 -0.5083
  192MOL   C18246404   1.619   5.840   0.114 -0.0625 -0.0213  0.9244
  192MOL   C18346405   1.556   5.741   0.010 -0.3574 -0.4277  0.4740
  192MOL   C18446406   1.596   5.786   7.566 -0.3254  0.1647 -0.7983
  192MOL   C18546407   1.752   5.776   7.533 -0.4210  0.0748  0.0442
  192MOL   H18646408   1.712   5.884   0.079 -1.9093  2.2772 -1.2600
  192MOL   H18746409   1.553   5.923   0.137 -0.1562 -0.5049  2.4668
  192MOL   H18846410   1.603   5.644   0.026 -2.3261 -1.2265  1.5420
  192MOL   H18946411   1.549   5.885   7.561 -0.5081  0.2823  2.5984
  192MOL   H19046412   1.536   5.725   7.499 -0.1908 -1.7224  0.7534
  192MOL   H19146413   1.821   5.815   7.606 -1.2827 -2.8782  2.5518
  192MOL   H19246414   1.781   5.671   7.531  0.8995  0.4183  0.7914
  192MOL   H19346415   1.777   5.813   7.433 -0.7009  3.1191  1.0571
  192MOL   C19446416   1.404   5.739   0.016 -0.0350  0.2844 -1.4142
  192MOL   C19546417   1.341   5.605   7.674 -0.0967  0.3187 -0.0237
  192MOL   C19646418   1.201   5.623   7.612  0.2855  0.9139 -0.6503
  192MOL   C19746419   1.190   5.721   7.490  0.5625 -0.6523  0.9013
  192MOL   H19846420   1.360   5.830   7.680 -0.1485  1.5651  1.3808
  192MOL   H19946421   1.371   5.754   0.119  1.9026  1.1408 -0.8872
  192MOL   H20046422   1.394   5.561   7.589 -1.6212 -0.8098 -0.3919
  192MOL   H20146423   1.139   5.650   7.698 -0.2050 -2.2984  0.0705
  192MOL   H20246424   1.175   5.519   7.591 -3.4975  1.1412  2.2012
  192MOL   H20346425   1.285   5.725   7.436 -0.2373 -2.6523 -0.7108
  192MOL   H20446426   1.120   5.689   7.414  0.6742 -4.1590  2.2054
  192MOL   H20546427   1.156   5.821   7.520 -1.2301 -0.2831 -2.1942
  192MOL   C20646428   1.354   5.509   0.083 -0.1575  0.6071  1.2958
  192MOL   C20746429   1.370   5.353   0.057  0.3649 -0.1428  0.6935
  192MOL   C20846430   1.375   5.274   0.190 -0.2916 -0.5185  0.1868
  192MOL   C20946431   1.262   5.300   0.284 -0.1765 -0.0296  0.0018
  192MOL   H21046432   1.273   5.525   0.155 -0.0869 -0.2945  1.5827
  192MOL   H21146433   1.443   5.525   0.144  1.7127 -3.4666 -0.1498
  192MOL   H21246434   1.280   5.326   0.002  2.3297  1.2442 -3.3914
  192MOL   H21346435   1.467   5.287   0.248  2.1401 -1.7643 -3.2468
  192MOL   H21446436   1.370   5.170   0.157 -3.0352 -0.6284  0.8426
  192MOL   H21546437   1.249   5.231   0.366 -0.6574 -2.0697 -1.7541
  192MOL   H21646438   1.267   5.404   0.317 -2.8695  1.2510 -3.2126
  192MOL   H21746439   1.173   5.295   0.220 -1.0098  0.3646  1.1163
  192MOL   C21846440   1.492   5.313   7.674 -0.5195  0.3902 -0.0303
  192MOL   C21946441   1.467   5.310   7.514 -0.0056  0.2898 -0.9724
  192MOL   C22046442   1.414   5.179   7.463 -0.5188 -0.4961 -0.4298
  192MOL   C22146443   1.522   5.067   7.447 -0.2008 -0.1446 -0.0073
  192MOL   H22246444   1.537   5.222   0.008 -1.7917 -0.1601  0.1803
  192MOL   H22346445   1.561   5.396   7.687 -0.9087  1.0234 -1.7593
  192MOL   H22446446   1.393   5.384   7.487  1.1141  1.9163  0.3007
  192MOL   H22546447   1.357   5.178   7.370 -0.7660  0.5828 -0.2947
  192MOL   H22646448   1.331   5.170   7.533 -0.0940  0.1449  0.1728
  192MOL   H22746449   1.594   5.054   7.528  0.3015 -1.5112 -0.6496
  192MOL   H22846450   1.476   4.969   7.432 -3.8098  1.7759 -2.1317
  192MOL   H22946451   1.592   5.096   7.369 -0.7273  0.1972 -0.3586
  192MOL   C23046452   1.593   5.351   7.436  0.2687  0.6852  0.3880
  192MOL   C23146453   1.585   5.372   7.286  0.7467  0.7152 -0.2961
  192MOL   C23246454   1.701   5.435   7.226 -0.3350 -0.2494 -0.7249
  192MOL   C23346455   1.709   5.399   7.078 -0.5310 -0.6413 -0.0641
  192MOL   H23446456   1.673   5.279   7.452  0.1658  0.2824 -0.9012
  192MOL   H23546457   1.628   5.446   7.477  0.9062  0.4217  0.4471
  192MOL   H23646458   1.552   5.288   7.225 -2.5569  1.4269  0.4082
  192MOL   H23746459   1.787   5.386   7.272  0.8075  2.1800 -0.1864
  192MOL   H23846460   1.705   5.542   7.244 -0.0896 -0.6364  1.6477
  192MOL   H23946461   1.624   5.432   7.018 -0.0079 -2.1225 -1.6423
  192MOL   H24046462   1.794   5.456   7.042  0.0796 -2.5995 -1.7967
  192MOL   H24146463   1.726   5.292   7.065  3.3532 -0.1550  0.5200
  192MOL   H24246464   1.506   5.444   7.264 -1.1241 -1.7239 -1.7258
  193MOL     C146465   7.334   4.109   6.761 -0.2553 -0.7377 -0.6271
  193MOL     C246466   7.226   4.022   6.831  0.4969 -0.5074 -0.2463
  193MOL     C346467   7.102   4.019   6.738  0.6280 -0.0516  0.2852
  193MOL     C446468   6.985   3.935   6.782 -0.6583 -1.4587 -0.1046
  193MOL     H546469   7.436   4.100   6.797 -0.3338 -0.1630 -0.2479
  193MOL     H646470   7.335   4.079   6.656  0.1383 -1.6428 -0.3646
  193MOL     H746471   7.271   3.922   6.828  3.2036  0.6330  0.6738
  193MOL     H846472   7.138   3.968   6.649 -3.5200 -1.0704 -0.8963
  193MOL     H946473   7.075   4.118   6.702  1.5479 -0.8761 -2.8429
  193MOL    H1046474   6.935   3.885   6.698 -0.1913  1.1177 -1.9924
  193MOL    H1146475   7.017   3.855   6.848 -1.9137 -1.6883  0.2322
  193MOL    H1246476   6.913   3.992   6.841  0.5285 -0.5029  0.4284
  193MOL    H1346477   7.317   4.217   6.757  0.7083 -0.6050 -1.2734
  193MOL    C1446478   7.199   4.062   6.978 -0.3932  0.3515 -0.4201
  193MOL    C1546479   7.307   4.060   7.085  0.3827 -0.5708 -0.2387
  193MOL    C1646480   7.387   3.934   7.092 -0.1295 -0.0340 -0.0212
  193MOL    C1746481   7.322   3.813   7.166  0.2137  0.3412  0.0380
  193MOL    H1846482   7.119   3.996   7.014  0.5712 -1.4165 -1.4395
  193MOL    H1946483   7.158   4.163   6.979  0.8001  0.8863  3.3109
  193MOL    H2046484   7.377   4.136   7.048 -0.4069  0.9490  1.3296
  193MOL    H2146485   7.477   3.958   7.149  1.0583 -1.3926 -1.2993
  193MOL    H2246486   7.438   3.895   7.004  0.2250  1.4627 -0.5071
  193MOL    H2346487   7.305   3.832   7.272 -1.6068 -1.7008  0.1505
  193MOL    H2446488   7.228   3.775   7.126 -1.8552  1.3719  3.6730
  193MOL    H2546489   7.386   3.727   7.184 -0.2764 -0.6628 -2.8721
  193MOL    C2646490   7.258   4.108   7.220  0.1507 -0.7146 -0.7223
  193MOL    C2746491   7.249   4.260   7.247  0.2573  0.2089  0.1218
  193MOL    C2846492   7.395   4.331   7.243  0.4603 -0.0779 -0.7098
  193MOL    C2946493   7.391   4.464   7.163  0.8042  0.3490 -0.7874
  193MOL    H3046494   7.336   4.069   7.286 -1.5676 -1.8769  0.6746
  193MOL    H3146495   7.167   4.059   7.255 -0.0592 -1.9702 -2.9433
  193MOL    H3246496   7.189   4.306   7.169  0.7981  1.3863  0.3856
  193MOL    H3346497   7.469   4.270   7.193  0.0524 -0.1531 -1.2234
  193MOL    H3446498   7.444   4.350   7.339 -1.7437  1.1902  0.2320
  193MOL    H3546499   7.319   4.535   7.203  2.5180  0.5941  1.9829
  193MOL    H3646500   7.482   4.521   7.177 -0.0093  1.0334  1.9695
  193MOL    H3746501   7.379   4.441   7.057 -2.4094 -0.3033 -0.3571
  193MOL    C3846502   7.179   4.284   7.388  0.1572 -0.5960 -0.1609
  193MOL    C3946503   7.136   4.433   7.418 -0.8012 -0.3322  0.1084
  193MOL    C4046504   7.194   4.501   7.549 -0.2605 -0.4551 -0.3024
  193MOL    C4146505   7.351   4.515   7.555  0.3259  0.5779 -0.2501
  193MOL    H4246506   7.238   4.258   7.476  2.2018  0.8706 -1.0616
  193MOL    H4346507   7.093   4.218   7.402 -1.2112  0.4825 -3.0097
  193MOL    H4446508   7.161   4.490   7.328 -0.0367  0.2775  0.7107
  193MOL    H4546509   7.164   4.440   7.634  2.5407  0.9833  1.8257
  193MOL    H4646510   7.149   4.600   7.560  1.0003  0.0784  0.1112
  193MOL    H4746511   7.376   4.597   7.622  2.0341  0.4307 -0.6816
  193MOL    H4846512   7.394   4.421   7.591  0.9966  1.6937  1.9565
  193MOL    H4946513   7.375   4.541   7.452 -0.4978 -4.1913 -1.8193
  193MOL    C5046514   6.983   4.440   7.434  0.3283  0.2932  0.1832
  193MOL    C5146515   6.906   4.403   7.307  0.4381  1.1318 -0.7096
  193MOL    C5246516   6.905   4.523   7.209 -0.0935 -0.2024  0.6566
  193MOL    C5346517   6.870   4.487   7.068 -0.1657  0.5921  0.1671
  193MOL    H5446518   6.954   4.542   7.456  0.1341  0.2617  0.0780
  193MOL    H5546519   6.948   4.379   7.517 -1.7065  0.9245 -0.1893
  193MOL    H5646520   6.951   4.315   7.261 -3.4186 -1.2675 -0.1973
  193MOL    H5746521   7.007   4.559   7.194  0.3262 -1.5596  0.1434
  193MOL    H5846522   6.834   4.597   7.246  1.3991  0.4182  2.3063
  193MOL    H5946523   6.901   4.386   7.040  0.3923  0.8190 -0.0469
  193MOL    H6046524   6.768   4.507   7.037  0.2492 -1.1423 -2.5604
  193MOL    H6146525   6.931   4.549   7.002 -0.9209  1.9978  0.7813
  193MOL    C6246526   6.755   4.362   7.347 -0.0745 -0.1164 -0.5992
  193MOL    C6346527   6.739   4.233   7.426  0.4589  1.0442 -0.5447
  193MOL    C6446528   6.782   4.101   7.350 -0.3219  0.2620 -1.0079
  193MOL    C6546529   6.700   4.067   7.224  0.4323 -0.6694 -0.2480
  193MOL    H6646530   6.704   4.346   7.252 -2.2450 -0.6073  0.5980
  193MOL    H6746531   6.695   4.434   7.402  0.6242 -0.1166  0.1655
  193MOL    H6846532   6.797   4.235   7.518 -2.0430 -1.5288  1.1665
  193MOL    H6946533   6.781   4.026   7.430 -1.2859  0.0336 -1.2222
  193MOL    H7046534   6.888   4.106   7.327 -0.1389  1.9744  0.0810
  193MOL    H7146535   6.594   4.043   7.225 -0.1907  1.6721 -3.4489
  193MOL    H7246536   6.709   4.148   7.151  0.8716  0.7949  1.4099
  193MOL    H7346537   6.752   3.991   7.165  0.5421  0.6230 -1.8577
  193MOL    C7446538   6.593   4.218   7.484  1.3362  0.5142  0.5891
  193MOL    C7546539   6.552   4.102   7.584 -0.5729 -0.4389 -0.4564
  193MOL    C7646540   6.402   4.061   7.561 -0.5843  0.4069  0.7957
  193MOL    C7746541   6.384   3.970   7.435 -0.3534 -0.7419 -0.1427
  193MOL    H7846542   6.534   4.205   7.393  0.5442 -1.9899  1.4223
  193MOL    H7946543   6.561   4.312   7.528 -0.3276  0.8999 -1.3953
  193MOL    H8046544   6.614   4.013   7.573 -0.7637 -0.8635  1.6005
  193MOL    H8146545   6.334   4.146   7.563  0.1076  1.0712 -1.7362
  193MOL    H8246546   6.369   3.989   7.635  1.4637 -2.4178 -0.9569
  193MOL    H8346547   6.382   4.034   7.346  1.8868 -0.6150 -0.1447
  193MOL    H8446548   6.470   3.906   7.416  2.1119  2.6625 -0.9785
  193MOL    H8546549   6.289   3.919   7.421 -2.0565  2.7372 -1.9901
  193MOL    C8646550   6.555   4.160   0.028 -0.3789 -0.1349  0.6015
  193MOL    C8746551   6.690   4.204   0.085 -0.2872  0.0070  0.4850
  193MOL    C8846552   6.803   4.094   0.088 -0.1208 -0.8823 -0.1769
  193MOL    C8946553   6.949   4.145   0.115 -0.2466  0.0625 -0.2154
  193MOL    H9046554   6.513   4.090   0.100 -0.5280 -0.2672  0.3888
  193MOL    H9146555   6.490   4.247   0.027  0.9225  0.8577 -1.5284
  193MOL    H9246556   6.717   4.285   0.017 -0.8041  2.9702  3.6340
  193MOL    H9346557   6.811   4.048   7.695  0.0236  1.0948 -1.1169
  193MOL    H9446558   6.776   4.011   0.153  0.1245  0.1090  1.2188
  193MOL    H9546559   6.978   4.214   0.036 -1.1468 -0.0140 -0.6160
  193MOL    H9646560   6.951   4.196   0.211 -1.9435 -0.5193  0.1608
  193MOL    H9746561   7.027   4.069   0.116  1.3048  1.6384  0.4522
  193MOL    C9846562   6.680   4.275   0.227  0.7842 -0.0432 -0.5401
  193MOL    C9946563   6.637   4.427   0.215 -0.2144  0.1048  0.0075
  193MOL   C10046564   6.742   4.524   0.159  0.0568 -0.3300  0.3157
  193MOL   C10146565   6.877   4.522   0.232 -0.3106  0.1369  0.0434
  193MOL   H10246566   6.764   4.254   0.293 -0.7464 -1.6565  0.9797
  193MOL   H10346567   6.601   4.227   0.285 -0.7035 -1.3909 -3.6166
  193MOL   H10446568   6.545   4.435   0.158 -0.1614  1.3672  0.0906
  193MOL   H10546569   6.706   4.626   0.172 -3.7781 -1.5440 -0.2619
  193MOL   H10646570   6.752   4.497   0.053  1.3102 -2.2162  0.8918
  193MOL   H10746571   6.859   4.529   0.339 -2.5608 -1.5312 -0.1904
  193MOL   H10846572   6.940   4.434   0.215  0.9057  0.6239  1.9909
  193MOL   H10946573   6.941   4.607   0.212  0.7726 -0.1153  2.2966
  193MOL   C11046574   6.604   4.478   0.352 -0.2652 -0.0851  0.2192
  193MOL   C11146575   6.461   4.439   0.411 -1.0588 -0.1011 -1.1955
  193MOL   C11246576   6.341   4.531   0.361 -0.3560  0.3701 -0.3003
  193MOL   C11346577   6.233   4.445   0.293  0.2269  0.4654  0.4520
  193MOL   H11446578   6.617   4.586   0.358  2.1070 -0.4056  1.4176
  193MOL   H11546579   6.689   4.446   0.412 -0.2558  1.4876  1.0855
  193MOL   H11646580   6.450   4.334   0.382  0.4771 -0.9190  1.0018
  193MOL   H11746581   6.370   4.607   0.288  2.0404 -1.1606 -1.0015
  193MOL   H11846582   6.291   4.581   0.444  0.2795  1.8946 -0.8172
  193MOL   H11946583   6.197   4.370   0.363  0.4406 -0.0734 -0.0067
  193MOL   H12046584   6.146   4.499   0.256 -0.3590 -0.5319  0.3749
  193MOL   H12146585   6.266   4.382   0.210 -0.2902 -0.3465  0.8643
  193MOL   C12246586   6.457   4.433   0.575  0.1894 -0.0117  0.7656
  193MOL   C12346587   6.396   4.306   0.637 -0.2098 -0.1849 -0.8397
  193MOL   C12446588   6.344   4.342   0.783 -0.3224 -0.4838 -0.1045
  193MOL   C12546589   6.437   4.408   0.882 -0.4511 -0.6202 -0.1941
  193MOL   H12646590   6.401   4.517   0.615 -1.6450  0.1643 -1.9854
  193MOL   H12746591   6.556   4.462   0.609  0.7400 -1.3050  0.2964
  193MOL   H12846592   6.302   4.292   0.584 -0.6814 -0.1374 -0.0182
  193MOL   H12946593   6.299   4.253   0.826 -2.6312  1.3646  1.4389
  193MOL   H13046594   6.261   4.413   0.778  0.4764  0.6147  1.7239
  193MOL   H13146595   6.379   4.439   0.969 -0.3991  0.5653 -0.5706
  193MOL   H13246596   6.489   4.327   0.934  1.0312  1.1593  1.1768
  193MOL   H13346597   6.513   4.475   0.842 -1.7247  1.9596  1.5787
  193MOL   C13446598   6.495   4.184   0.624 -0.1240 -0.0243  0.9397
  193MOL   C13546599   6.433   4.046   0.634  0.1073 -0.1819  0.4075
  193MOL   C13646600   6.540   3.930   0.628  0.6688  0.0049 -0.2560
  193MOL   C13746601   6.612   3.920   0.486 -0.5616  0.3991  0.0803
  193MOL   H13846602   6.581   4.182   0.691  1.1986  2.5528 -0.5878
  193MOL   H13946603   6.549   4.189   0.529 -2.0503 -2.3650 -0.3368
  193MOL   H14046604   6.405   4.039   0.739 -3.5189 -1.8225 -0.5888
  193MOL   H14146605   6.485   3.838   0.647 -0.0062  0.2894 -0.8207
  193MOL   H14246606   6.616   3.948   0.704 -0.2526 -0.0788  0.6975
  193MOL   H14346607   6.685   4.002   0.480 -0.6897  0.5219  0.1868
  193MOL   H14446608   6.673   3.833   0.462 -1.3084 -0.4884  1.3903
  193MOL   H14546609   6.543   3.916   0.402 -0.1022 -2.0451 -0.2011
  193MOL   C14646610   6.306   4.025   0.548 -0.5500  0.2160  0.2228
  193MOL   C14746611   6.170   4.021   0.615  0.5181 -0.3599 -0.3405
  193MOL   C14846612   6.154   3.919   0.732 -0.4129  0.8029  0.1569
  193MOL   C14946613   6.182   3.774   0.688 -0.2474 -0.0080  0.5116
  193MOL   H15046614   6.329   3.930   0.500 -0.5103 -0.4391  1.5167
  193MOL   H15146615   6.319   4.102   0.472 -0.8232  1.7804  1.7251
  193MOL   H15246616   6.155   4.118   0.661  3.1420  0.4002 -1.0312
  193MOL   H15346617   6.048   3.916   0.757  0.1918  0.1594  2.8224
  193MOL   H15446618   6.210   3.948   0.821 -0.0938 -2.0114  0.9105
  193MOL   H15546619   6.110   3.744   0.612  1.8838  0.5556 -1.8368
  193MOL   H15646620   6.281   3.753   0.646  0.2168  0.5228  1.3199
  193MOL   H15746621   6.164   3.705   0.770  2.3752  1.4147  2.3817
  193MOL   C15846622   6.053   3.993   0.513  0.0410  0.0793  0.9920
  193MOL   C15946623   6.008   4.114   0.426  0.1074 -0.0330  0.2536
  193MOL   C16046624   5.920   4.222   0.499 -0.1250 -0.2060 -0.8897
  193MOL   C16146625   5.968   4.310   0.618 -1.0213 -0.4627  0.1210
  193MOL   H16246626   5.964   3.970   0.571 -1.7370  1.3747 -1.1442
  193MOL   H16346627   6.092   3.909   0.455 -1.1473 -0.1498  0.5219
  193MOL   H16446628   6.106   4.157   0.403  0.9077 -1.0777  1.6217
  193MOL   H16546629   5.833   4.164   0.528  0.5638 -1.5889 -1.5320
  193MOL   H16646630   5.887   4.299   0.429 -0.4648  1.5876  1.1914
  193MOL   H16746631   6.068   4.352   0.613  0.2676 -3.2611  1.2014
  193MOL   H16846632   5.892   4.388   0.627 -0.6406 -0.0476 -0.2561
  193MOL   H16946633   5.958   4.254   0.711 -0.2036 -0.7387  0.0404
  193MOL   C17046634   5.943   4.073   0.294  0.7069  0.0499 -0.2296
  193MOL   C17146635   6.011   3.967   0.203  0.6458 -0.4932 -0.4827
  193MOL   C17246636   6.152   4.003   0.161 -0.4270 -0.1022 -0.2337
  193MOL   C17346637   6.174   4.122   0.082 -0.5209 -0.2175  0.2360
  193MOL   H17446638   5.917   4.160   0.235 -0.3705 -0.6244 -0.7674
  193MOL   H17546639   5.844   4.033   0.312 -0.0225  1.6704 -0.5676
  193MOL   H17646640   6.023   3.876   0.261 -0.9141 -0.6118 -0.3466
  193MOL   H17746641   6.202   3.919   0.112  0.3686  0.4178 -0.3200
  193MOL   H17846642   6.208   4.005   0.255  0.3397  3.4652 -0.7150
  193MOL   H17946643   6.114   4.205   0.119 -0.5046  0.6322 -1.6154
  193MOL   H18046644   6.280   4.144   0.091 -0.6878  1.2808 -1.1316
  193MOL   H18146645   6.160   4.100   7.682 -0.3305  2.1893 -0.3299
  193MOL   C18246646   5.927   3.930   0.078 -0.4900 -0.2213 -0.1500
  193MOL   C18346647   5.776   3.889   0.089  0.2489  0.4092  0.5398
  193MOL   C18446648   5.757   3.770   0.187 -0.3558 -0.5760  0.2967
  193MOL   C18546649   5.615   3.725   0.212 -0.2286  0.1211  0.6792
  193MOL   H18646650   5.979   3.848   0.028  0.5139 -0.5796  1.4285
  193MOL   H18746651   5.928   4.009   0.003  2.5809  0.2576  0.3279
  193MOL   H18846652   5.729   3.976   0.132  0.4800  0.6293  0.3488
  193MOL   H18946653   5.784   3.813   0.284  1.5379  0.0389 -0.4817
  193MOL   H19046654   5.822   3.687   0.161 -1.0882 -0.7175 -1.1087
  193MOL   H19146655   5.559   3.690   0.125 -0.0350 -0.2220  0.6916
  193MOL   H19246656   5.616   3.645   0.286 -2.1747  0.1049  0.7326
  193MOL   H19346657   5.559   3.807   0.257  0.5255  0.4432  1.0442
  193MOL   C19446658   5.725   3.856   7.653 -0.2389 -0.3228 -0.6422
  193MOL   C19546659   5.659   3.973   7.580 -0.0313 -0.3005 -0.3940
  193MOL   C19646660   5.511   3.999   7.620 -0.4613  0.2827  0.1138
  193MOL   C19746661   5.412   3.892   7.580 -0.4367 -0.4421  0.5950
  193MOL   H19846662   5.656   3.772   7.664 -0.2427 -0.0211  1.9441
  193MOL   H19946663   5.810   3.826   7.592  1.1263  0.6548  0.7497
  193MOL   H20046664   5.713   4.060   7.617 -0.7265  0.4486 -1.1052
  193MOL   H20146665   5.483   4.100   7.590  0.2078 -0.0128 -1.5625
  193MOL   H20246666   5.513   4.000   0.023  0.8135  3.0164  0.1328
  193MOL   H20346667   5.453   3.791   7.581 -0.9422 -0.6562  0.2178
  193MOL   H20446668   5.326   3.903   7.645 -0.1630  2.6840  0.4926
  193MOL   H20546669   5.368   3.911   7.481 -1.5292  0.2616  1.2044
  193MOL   C20646670   5.674   3.968   7.421 -0.0452 -0.2962  0.4221
  193MOL   C20746671   5.816   4.015   7.367 -0.0739  0.7562 -0.7587
  193MOL   C20846672   5.860   4.156   7.414  0.6693 -0.1536 -0.8514
  193MOL   C20946673   5.773   4.269   7.352  0.0082 -0.1803  0.2395
  193MOL   H21046674   5.603   4.039   7.378 -1.6892 -0.7754  2.2704
  193MOL   H21146675   5.637   3.870   7.391 -0.5762  0.1240 -0.3235
  193MOL   H21246676   5.890   3.946   7.407  0.0601 -0.5064 -3.1139
  193MOL   H21346677   5.959   4.177   7.373  1.2559 -0.0480  0.6238
  193MOL   H21446678   5.863   4.170   7.522 -0.7749 -1.1160 -0.6619
  193MOL   H21546679   5.768   4.259   7.244  1.5275 -2.2170  0.3246
  193MOL   H21646680   5.669   4.261   7.384 -0.1507  1.1278  0.0688
  193MOL   H21746681   5.803   4.368   7.386  0.3614  0.0023 -0.6006
  193MOL   C21846682   5.828   3.987   7.217 -0.6375 -0.4410 -0.5094
  193MOL   C21946683   5.878   3.852   7.168  0.5442  0.2792 -0.0110
  193MOL   C22046684   5.787   3.740   7.210 -0.0464  0.4941 -0.7363
  193MOL   C22146685   5.821   3.613   7.129  0.5374 -0.3873 -0.8949
  193MOL   H22246686   5.909   4.055   7.190  1.5876 -1.9354  2.1292
  193MOL   H22346687   5.738   4.012   7.161  0.3955  2.2834 -1.0342
  193MOL   H22446688   5.874   3.859   7.059  0.7924 -1.0742 -0.1157
  193MOL   H22546689   5.684   3.762   7.184 -0.4595  1.8680  1.8880
  193MOL   H22646690   5.799   3.728   7.317 -1.7010 -0.2646 -0.6330
  193MOL   H22746691   5.755   3.531   7.159 -0.1462  0.0417 -1.2219
  193MOL   H22846692   5.820   3.632   7.022 -0.5508 -0.5562 -0.9196
  193MOL   H22946693   5.922   3.571   7.132  0.2701 -0.9724  1.0814
  193MOL   C23046694   6.021   3.820   7.214 -0.0712  0.2489  0.6834
  193MOL   C23146695   6.130   3.912   7.149  0.4149 -0.2372 -0.1367
  193MOL   C23246696   6.121   3.936   6.997 -0.2388  0.4594  0.1481
  193MOL   C23346697   6.250   3.975   6.930 -0.9964  0.0345  0.1104
  193MOL   H23446698   6.055   3.724   7.175 -0.5298  0.2661  0.2477
  193MOL   H23546699   6.043   3.836   7.320 -1.2013 -0.1310  0.9803
  193MOL   H23646700   6.129   4.003   7.208 -1.3589 -0.6205  0.4329
  193MOL   H23746701   6.049   4.017   6.991 -0.6695 -0.0007 -0.9521
  193MOL   H23846702   6.092   3.846   6.943  1.8046 -0.2630  0.2184
  193MOL   H23946703   6.299   4.054   6.987  0.1507 -1.4720  1.2668
  193MOL   H24046704   6.323   3.895   6.913 -0.6887  0.6334 -1.4562
  193MOL   H24146705   6.240   4.011   6.828 -0.3240 -1.6262 -0.5737
  193MOL   H24246706   6.226   3.861   7.160  0.5229 -0.6557 -2.6498
  194MOL     C146707   2.490   1.898   4.440  0.0758  0.2883 -0.2143
  194MOL     C246708   2.491   2.015   4.538  0.5209  0.0347 -0.8014
  194MOL     C346709   2.343   2.054   4.584 -0.5398  0.4966 -0.1507
  194MOL     C446710   2.342   2.113   4.726 -0.4754  0.4238 -0.3648
  194MOL     H546711   2.593   1.885   4.409 -0.6558  2.0520 -3.6293
  194MOL     H646712   2.451   1.808   4.488 -1.5504 -0.0150 -2.0326
  194MOL     H746713   2.546   1.993   4.629  1.2228  1.3655 -0.8949
  194MOL     H846714   2.283   1.963   4.587 -0.6954  0.5788 -0.8401
  194MOL     H946715   2.303   2.126   4.513  2.1420  1.5035 -0.7045
  194MOL    H1046716   2.393   2.044   4.793 -0.3774  1.1010  0.2721
  194MOL    H1146717   2.398   2.207   4.728  3.0610 -1.6037  0.6501
  194MOL    H1246718   2.240   2.125   4.761 -0.5967 -0.0981 -0.5429
  194MOL    H1346719   2.430   1.941   4.360 -2.8627 -1.1040  1.1407
  194MOL    C1446720   2.553   2.143   4.471 -0.1678  0.4227  0.3180
  194MOL    C1546721   2.700   2.135   4.434  0.4894 -0.0194  0.3089
  194MOL    C1646722   2.795   2.092   4.554 -0.3510 -0.4450  0.3008
  194MOL    C1746723   2.792   2.186   4.664  1.4812  0.3879  0.8112
  194MOL    H1846724   2.543   2.232   4.533  1.6759  1.4445 -0.8127
  194MOL    H1946725   2.490   2.161   4.384 -0.8281 -2.4453  0.1394
  194MOL    H2046726   2.728   2.063   4.358 -0.0254  0.9905 -0.8530
  194MOL    H2146727   2.897   2.099   4.518 -0.2105 -1.1428  0.5547
  194MOL    H2246728   2.772   1.989   4.584 -1.4080 -0.3652 -0.2116
  194MOL    H2346729   2.870   2.150   4.732  1.1755 -3.0003 -0.5295
  194MOL    H2446730   2.810   2.289   4.633 -1.9306  1.2310  1.4645
  194MOL    H2546731   2.693   2.190   4.710  1.9244  2.3364  1.6668
  194MOL    C2646732   2.753   2.270   4.375  0.0617 -0.2249  0.5845
  194MOL    C2746733   2.686   2.306   4.240 -0.4227  0.0161  0.0306
  194MOL    C2846734   2.674   2.182   4.143  0.1585  0.1548 -0.2621
  194MOL    C2946735   2.816   2.135   4.097 -0.0518 -0.8476  0.3764
  194MOL    H3046736   2.861   2.265   4.361  0.2415  1.5320  1.3559
  194MOL    H3146737   2.755   2.353   4.445  0.6791 -0.4942  0.8869
  194MOL    H3246738   2.585   2.333   4.272 -0.5377  1.2333 -1.3193
  194MOL    H3346739   2.619   2.206   4.052 -1.9700 -1.0239  0.6799
  194MOL    H3446740   2.619   2.102   4.192 -0.2750  0.4802 -0.2062
  194MOL    H3546741   2.797   2.048   4.034  1.0310 -0.9690  0.2160
  194MOL    H3646742   2.856   2.208   4.026  1.1056 -1.9725 -0.1323
  194MOL    H3746743   2.876   2.099   4.180  0.5200  0.2107  0.4334
  194MOL    C3846744   2.746   2.436   4.181  0.3918 -0.1459 -0.0307
  194MOL    C3946745   2.640   2.527   4.101 -0.3131  0.0785  0.1957
  194MOL    C4046746   2.560   2.476   3.979  0.3582  0.0664  0.1706
  194MOL    C4146747   2.635   2.409   3.864 -0.3220 -0.1265 -0.9003
  194MOL    H4246748   2.823   2.407   4.110 -0.8344 -2.9613 -0.2872
  194MOL    H4346749   2.804   2.487   4.258 -1.3163 -1.5345  2.2444
  194MOL    H4446750   2.568   2.545   4.181  0.0244  2.0272  0.0833
  194MOL    H4546751   2.495   2.554   3.939  1.3321  0.7699 -0.0505
  194MOL    H4646752   2.493   2.397   4.012 -0.5866  0.6943 -0.2372
  194MOL    H4746753   2.665   2.495   3.805  0.6610 -0.1550 -0.4655
  194MOL    H4846754   2.711   2.342   3.905 -0.0889  1.8580  2.0754
  194MOL    H4946755   2.570   2.349   3.801 -0.1996  0.1849 -1.3262
  194MOL    C5046756   2.708   2.666   4.073 -0.5444  0.1310  0.4361
  194MOL    C5146757   2.619   2.783   4.014 -0.4336 -0.6435 -0.3358
  194MOL    C5246758   2.706   2.896   3.964 -0.1949  0.3572 -0.3116
  194MOL    C5346759   2.820   2.949   4.050  0.5167 -0.2053  0.0290
  194MOL    H5446760   2.781   2.639   3.996  0.1759 -0.3759  1.2753
  194MOL    H5546761   2.769   2.695   4.159 -0.4640  0.6238  0.2148
  194MOL    H5646762   2.557   2.745   3.933 -2.6981 -0.2881  1.1993
  194MOL    H5746763   2.643   2.979   3.932 -1.1270 -0.1278  0.2430
  194MOL    H5846764   2.753   2.855   3.875 -2.3630  0.5095 -1.5690
  194MOL    H5946765   2.861   3.039   4.002 -0.2449  0.0236 -0.2008
  194MOL    H6046766   2.775   2.980   4.144 -2.4305 -0.4103 -1.2654
  194MOL    H6146767   2.904   2.882   4.067 -1.3367 -2.1967  1.5457
  194MOL    C6246768   2.514   2.824   4.119 -0.4984 -0.0692  0.4628
  194MOL    C6346769   2.407   2.925   4.066  0.2686 -0.2178 -0.3144
  194MOL    C6446770   2.339   3.001   4.191  0.1211 -0.4740  0.5582
  194MOL    C6546771   2.424   3.109   4.256  0.1759  0.2954 -0.0248
  194MOL    H6646772   2.570   2.846   4.210  0.0575 -1.5466  0.4909
  194MOL    H6746773   2.443   2.745   4.144 -1.0745  0.0066 -0.9077
  194MOL    H6846774   2.458   3.011   4.023 -0.7801  2.8897  4.2615
  194MOL    H6946775   2.310   2.922   4.260 -0.5178  0.4670  1.3703
  194MOL    H7046776   2.250   3.052   4.155 -0.1834 -2.2441 -1.3328
  194MOL    H7146777   2.452   3.185   4.184 -1.4711  2.8528  1.9488
  194MOL    H7246778   2.370   3.170   4.328 -1.1462  0.8665 -1.4768
  194MOL    H7346779   2.516   3.069   4.301  1.2892  0.2562 -2.2794
  194MOL    C7446780   2.301   2.865   3.967 -0.3036  0.0575 -0.2221
  194MOL    C7546781   2.214   2.979   3.902  0.3347 -0.1427 -0.4250
  194MOL    C7646782   2.065   2.939   3.883  0.1499  0.3297  0.1112
  194MOL    C7746783   2.000   2.859   3.999 -0.0101  0.4019  0.2660
  194MOL    H7846784   2.250   2.782   4.016  0.3632 -0.4320 -0.3368
  194MOL    H7946785   2.356   2.814   3.888  0.7013 -1.5310  1.4597
  194MOL    H8046786   2.219   3.073   3.956 -1.7526 -0.4291  0.3216
  194MOL    H8146787   2.048   2.891   3.786  1.3328 -0.0109  0.0639
  194MOL    H8246788   2.015   3.036   3.885 -1.6914 -0.6100  0.8266
  194MOL    H8346789   2.023   2.755   3.975  1.1220  0.8317 -0.5702
  194MOL    H8446790   2.032   2.892   4.097  0.4146  1.2313 -0.1496
  194MOL    H8546791   1.891   2.864   3.999 -0.1790 -2.4846  0.4715
  194MOL    C8646792   2.255   3.008   3.756 -0.2572 -0.6087  0.0248
  194MOL    C8746793   2.401   3.056   3.740  0.3290  0.3353 -0.0382
  194MOL    C8846794   2.418   3.201   3.779 -0.2756 -0.7829  0.3605
  194MOL    C8946795   2.568   3.259   3.792  0.8464 -0.1193 -0.3418
  194MOL    H9046796   2.187   3.076   3.705 -0.0493  0.2006  0.7980
  194MOL    H9146797   2.239   2.919   3.695  0.1252 -1.6747  1.4317
  194MOL    H9246798   2.468   2.990   3.796  0.5502 -0.9194 -1.7381
  194MOL    H9346799   2.387   3.227   3.880 -0.6076  2.3256 -0.5108
  194MOL    H9446800   2.351   3.269   3.728 -0.5705 -1.5380 -0.2592
  194MOL    H9546801   2.568   3.368   3.796  1.3340 -0.0711 -1.3596
  194MOL    H9646802   2.603   3.226   3.889 -1.7712  0.3893  0.8146
  194MOL    H9746803   2.646   3.223   3.725  1.3058 -0.0333  0.1494
  194MOL    C9846804   2.444   3.033   3.592 -0.8269 -0.6984 -0.2686
  194MOL    C9946805   2.478   2.886   3.554  0.6706 -0.5934  0.6981
  194MOL   C10046806   2.626   2.861   3.589  0.4176  0.3584  0.2397
  194MOL   C10146807   2.683   2.728   3.533 -0.1253 -0.3980  0.3199
  194MOL   H10246808   2.533   3.096   3.581 -1.3998  0.1651 -0.0103
  194MOL   H10346809   2.364   3.084   3.538 -1.3915  0.6510  1.7866
  194MOL   H10446810   2.423   2.813   3.614  0.4485 -1.2112 -0.2389
  194MOL   H10546811   2.635   2.855   3.697 -3.2443 -2.5737  0.5022
  194MOL   H10646812   2.695   2.937   3.553  2.0767 -0.9915  0.5583
  194MOL   H10746813   2.784   2.704   3.565 -0.4241 -2.4638 -0.2358
  194MOL   H10846814   2.613   2.648   3.557 -1.7196  0.6964 -0.5822
  194MOL   H10946815   2.691   2.736   3.425 -0.3092 -0.3503  0.3086
  194MOL   C11046816   2.446   2.855   3.402  1.1235  0.4291 -0.3529
  194MOL   C11146817   2.301   2.899   3.339 -0.5839  0.6308  0.3897
  194MOL   C11246818   2.195   2.808   3.401  0.1296  0.6619 -0.0152
  194MOL   C11346819   2.058   2.883   3.407 -0.1598 -0.0084  0.2574
  194MOL   H11446820   2.471   2.750   3.387 -0.0594  0.1881 -0.6514
  194MOL   H11546821   2.515   2.921   3.349  1.1036  1.1430  0.4905
  194MOL   H11646822   2.274   3.000   3.370 -0.9372  0.7316 -0.2155
  194MOL   H11746823   2.218   2.772   3.501  1.2968 -2.1285 -1.2259
  194MOL   H11846824   2.174   2.717   3.343  0.3541 -0.8576  2.2055
  194MOL   H11946825   2.070   2.985   3.442  0.4466  0.3276 -0.9094
  194MOL   H12046826   2.020   2.894   3.305  3.3726  2.5119 -0.8764
  194MOL   H12146827   1.981   2.827   3.461 -0.5573 -0.0167 -0.3145
  194MOL   C12246828   2.286   2.895   3.182 -0.3265  0.1683 -0.0464
  194MOL   C12346829   2.396   2.977   3.100  0.2338 -0.1885  0.4644
  194MOL   C12446830   2.411   3.124   3.147 -0.0344 -0.4798 -1.0095
  194MOL   C12546831   2.515   3.203   3.068  0.2844 -0.4035  0.0262
  194MOL   H12646832   2.187   2.927   3.150 -0.0141  2.6492  1.3287
  194MOL   H12746833   2.305   2.790   3.161  0.9960  0.4173 -0.1154
  194MOL   H12846834   2.495   2.933   3.113 -0.0579 -0.7103  0.8795
  194MOL   H12946835   2.426   3.130   3.255 -1.5339 -0.3006 -0.7927
  194MOL   H13046836   2.312   3.169   3.136 -0.0640  0.2527  1.9447
  194MOL   H13146837   2.485   3.238   2.969  2.9705 -0.8586 -0.9980
  194MOL   H13246838   2.535   3.294   3.124  0.0083  0.3415 -1.0645
  194MOL   H13346839   2.601   3.135   3.064  1.4984  1.1269 -0.3961
  194MOL   C13446840   2.367   2.970   2.950  0.5223  0.0501  1.6323
  194MOL   C13546841   2.383   2.830   2.875 -0.0333  0.2106 -0.6789
  194MOL   C13646842   2.491   2.844   2.770  0.1660 -0.4169  0.5352
  194MOL   C13746843   2.549   2.720   2.710 -0.4065  0.1592  0.1666
  194MOL   H13846844   2.437   3.038   2.902 -0.4452 -0.5856 -0.7305
  194MOL   H13946845   2.265   3.007   2.941 -0.0080 -1.1874  2.3107
  194MOL   H14046846   2.424   2.755   2.943 -0.5365  0.3931 -0.1748
  194MOL   H14146847   2.573   2.912   2.792  0.4064 -0.3880 -0.3895
  194MOL   H14246848   2.439   2.902   2.693  0.8240  0.9766  1.1201
  194MOL   H14346849   2.477   2.669   2.646 -0.2361  2.3975 -1.8706
  194MOL   H14446850   2.637   2.735   2.647 -0.1449 -0.2356  0.4314
  194MOL   H14546851   2.596   2.662   2.790  2.9864  2.2816 -0.1965
  194MOL   C14646852   2.252   2.772   2.814  0.4545 -0.7623 -0.1441
  194MOL   C14746853   2.145   2.721   2.914  0.2989  0.9009 -0.0901
  194MOL   C14846854   2.191   2.584   2.981  0.3908 -0.2338  0.0288
  194MOL   C14946855   2.212   2.469   2.880  0.8278 -0.4853 -0.5205
  194MOL   H15046856   2.266   2.694   2.739  0.2926 -1.3305  0.4031
  194MOL   H15146857   2.202   2.852   2.759  0.9245  0.5560  1.3191
  194MOL   H15246858   2.131   2.789   2.998 -0.9146 -0.0949  0.5426
  194MOL   H15346859   2.113   2.551   3.050 -0.0701 -0.6764 -0.6877
  194MOL   H15446860   2.281   2.601   3.039  0.7491  0.3209 -0.6764
  194MOL   H15546861   2.307   2.465   2.825 -0.0215 -2.0086 -1.9341
  194MOL   H15646862   2.242   2.380   2.935  0.5434 -0.2908 -0.0478
  194MOL   H15746863   2.130   2.449   2.811 -0.3915  1.4526  0.3307
  194MOL   C15846864   2.001   2.705   2.852  0.3051 -0.6052  0.5133
  194MOL   C15946865   1.929   2.841   2.811 -0.8711 -0.2012  0.0837
  194MOL   C16046866   1.906   2.930   2.938  0.0059 -0.5987  0.0306
  194MOL   C16146867   1.831   2.860   3.054  0.4052 -0.4170 -0.4151
  194MOL   H16246868   1.938   2.643   2.917 -1.0262  0.4970  0.3026
  194MOL   H16346869   2.005   2.647   2.759  1.6677 -0.6475  0.5976
  194MOL   H16446870   1.997   2.894   2.745 -1.6236  2.3865  1.3041
  194MOL   H16546871   1.856   3.025   2.915 -1.7209 -2.2384 -3.3128
  194MOL   H16646872   1.998   2.972   2.979 -0.1832 -0.1246 -0.0218
  194MOL   H16746873   1.725   2.843   3.033 -0.4298  2.5242  1.0768
  194MOL   H16846874   1.872   2.760   3.066  1.5077 -0.0803 -1.3331
  194MOL   H16946875   1.843   2.927   3.140  0.9294  1.1280 -1.6765
  194MOL   C17046876   1.796   2.801   2.743  0.3870  0.2248 -0.0278
  194MOL   C17146877   1.733   2.916   2.665 -0.0722 -0.2922  0.2245
  194MOL   C17246878   1.585   2.883   2.621  0.4131  0.4390  0.2022
  194MOL   C17346879   1.564   2.754   2.538  0.2089 -0.1144  0.9309
  194MOL   H17446880   1.720   2.766   2.813  0.4228 -0.1741 -0.1851
  194MOL   H17546881   1.813   2.720   2.672  1.0394  0.3440 -0.0156
  194MOL   H17646882   1.745   3.009   2.720 -1.7265  0.1043 -0.0488
  194MOL   H17746883   1.537   2.960   2.561 -0.1231 -0.3724 -0.4079
  194MOL   H17846884   1.521   2.875   2.709 -1.6713  0.3454 -1.2994
  194MOL   H17946885   1.606   2.659   2.572  0.2306 -0.6209 -0.4745
  194MOL   H18046886   1.459   2.735   2.518  0.1862  1.7840 -0.8700
  194MOL   H18146887   1.613   2.766   2.441 -1.7917 -0.0644 -0.0926
  194MOL   C18246888   1.815   2.946   2.533  0.5740 -0.2932  0.2010
  194MOL   C18346889   1.867   3.091   2.523 -0.0427  0.4959 -0.3816
  194MOL   C18446890   1.753   3.198   2.504 -0.0808 -0.8511  0.9318
  194MOL   C18546891   1.693   3.215   2.369  0.8015  0.1546  0.6295
  194MOL   H18646892   1.763   2.915   2.442  0.3217  0.0221  0.2335
  194MOL   H18746893   1.892   2.869   2.540 -1.3911 -2.0266  4.7919
  194MOL   H18846894   1.907   3.116   2.621  2.1043  0.5460 -1.2392
  194MOL   H18946895   1.762   3.297   2.549 -3.1919 -0.6530  1.2186
  194MOL   H19046896   1.670   3.167   2.568 -1.0139  1.9361  1.1614
  194MOL   H19146897   1.759   3.255   2.293 -0.8664  1.6259 -0.0790
  194MOL   H19246898   1.654   3.118   2.337 -1.0506  0.9796  0.2833
  194MOL   H19346899   1.616   3.292   2.368 -1.9358 -2.4921 -0.0585
  194MOL   C19446900   1.980   3.103   2.419  0.2398  0.6532 -0.4935
  194MOL   C19546901   2.120   3.051   2.457 -0.0249 -0.6366 -0.2297
  194MOL   C19646902   2.193   3.170   2.523 -0.0832 -0.7187  0.2135
  194MOL   C19746903   2.144   3.214   2.664 -0.0980  0.5868 -0.5570
  194MOL   H19846904   1.994   3.207   2.390 -1.1490  1.0814  0.2766
  194MOL   H19946905   1.949   3.046   2.331  0.6867  0.9054 -0.8133
  194MOL   H20046906   2.119   2.969   2.530 -0.1233 -0.2635  0.1932
  194MOL   H20146907   2.196   3.255   2.455  1.2519 -0.4501  0.6101
  194MOL   H20246908   2.290   3.123   2.535 -1.1909 -2.8104  1.3610
  194MOL   H20346909   2.222   3.261   2.723  0.6174 -0.6071 -0.5333
  194MOL   H20446910   2.060   3.283   2.657  0.7022  1.6522  0.2472
  194MOL   H20546911   2.117   3.128   2.725 -1.6202  0.8310 -0.8670
  194MOL   C20646912   2.204   2.998   2.337 -0.1548  0.2378  0.8684
  194MOL   C20746913   2.163   2.861   2.279 -0.1475 -0.2266  0.0395
  194MOL   C20846914   2.284   2.753   2.303  1.1783  0.2121  0.4911
  194MOL   C20946915   2.308   2.714   2.445  0.3717  0.4238  0.3236
  194MOL   H21046916   2.306   2.995   2.376 -0.1806 -4.7447  0.8398
  194MOL   H21146917   2.195   3.073   2.259 -0.4784  0.3671  1.0283
  194MOL   H21246918   2.077   2.825   2.335 -1.2818  2.7117  0.2578
  194MOL   H21346919   2.378   2.789   2.259  0.5593  0.6879 -0.4730
  194MOL   H21446920   2.266   2.662   2.246  1.5449  0.4581 -0.0358
  194MOL   H21546921   2.360   2.803   2.479 -0.8059 -0.1178  3.6782
  194MOL   H21646922   2.225   2.710   2.515  2.0426 -1.6124  2.2933
  194MOL   H21746923   2.367   2.622   2.454 -2.7815 -1.6811  0.2794
  194MOL   C21846924   2.119   2.865   2.130 -0.1206  1.1746  0.6702
  194MOL   C21946925   2.027   2.754   2.080 -0.1985  0.1936 -0.5165
  194MOL   C22046926   2.043   2.736   1.929 -0.3920 -0.0684  0.0240
  194MOL   C22146927   1.971   2.613   1.869  0.0109  0.8109  0.2063
  194MOL   H22246928   2.211   2.857   2.072  0.3537 -5.5382  2.0224
  194MOL   H22346929   2.092   2.967   2.103 -0.7384  0.5550 -1.1398
  194MOL   H22446930   2.049   2.657   2.125 -0.8046  0.1668 -0.2727
  194MOL   H22546931   2.149   2.734   1.901 -0.9239 -0.9519 -1.9504
  194MOL   H22646932   2.007   2.823   1.876 -1.6383 -0.4107  0.2983
  194MOL   H22746933   2.007   2.593   1.768  1.9979  1.3988  0.7738
  194MOL   H22846934   1.988   2.525   1.930  0.8037  1.7310  1.3339
  194MOL   H22946935   1.865   2.636   1.862 -0.6514 -1.3431  2.6005
  194MOL   C23046936   1.884   2.779   2.121  0.4388 -0.4781  0.7081
  194MOL   C23146937   1.805   2.882   2.049  0.6403 -1.0451 -0.0865
  194MOL   C23246938   1.666   2.902   2.119  0.0117  0.1921 -0.0341
  194MOL   C23346939   1.577   3.002   2.046  0.0796 -0.7685 -0.8784
  194MOL   H23446940   1.875   2.792   2.229  0.5344  1.4928  0.4979
  194MOL   H23546941   1.847   2.678   2.107 -1.2721  0.3130 -0.5505
  194MOL   H23646942   1.853   2.979   2.060  0.9288 -1.0479 -1.2306
  194MOL   H23746943   1.677   2.947   2.218 -1.9330  1.4571 -0.3670
  194MOL   H23846944   1.620   2.804   2.113  1.6946 -0.4632 -3.4723
  194MOL   H23946945   1.558   2.960   1.947 -2.7013 -0.3413 -0.5716
  194MOL   H24046946   1.488   3.043   2.092  1.2977  0.6960  0.2177
  194MOL   H24146947   1.646   3.084   2.026  0.8519 -0.8530  1.3691
  194MOL   H24246948   1.798   2.866   1.942 -1.0429  2.1716 -0.5172
  195MOL     C146949   0.698   2.724   6.863 -0.3098 -0.3434  0.4399
  195MOL     C246950   0.767   2.750   6.998 -0.0201 -0.6806 -0.2637
  195MOL     C346951   0.916   2.792   6.967 -0.8527  0.1119  0.2610
  195MOL     C446952   0.934   2.930   6.891  0.1888  0.5684  0.0511
  195MOL     H546953   0.739   2.639   6.809  0.8762  0.7541 -0.4010
  195MOL     H646954   0.590   2.715   6.879 -0.1364  1.2517  2.7673
  195MOL     H746955   0.725   2.841   7.040 -2.4827 -1.6356 -0.5549
  195MOL     H846956   0.976   2.714   6.921  1.9346 -0.3200  4.3331
  195MOL     H946957   0.966   2.807   7.063 -2.1603  1.7963  0.7009
  195MOL    H1046958   1.021   2.985   6.926 -0.7388  2.1869 -0.1511
  195MOL    H1146959   0.925   2.920   6.783  0.1963  0.0121  0.1012
  195MOL    H1246960   0.853   2.991   6.930  0.0728 -0.5892  1.6789
  195MOL    H1346961   0.701   2.812   6.799  1.5575 -0.4640  0.3414
  195MOL    C1446962   0.758   2.628   7.096  0.3221  0.4032  0.4108
  195MOL    C1546963   0.655   2.638   7.213 -0.0797  0.4504  0.8531
  195MOL    C1646964   0.698   2.746   7.320  0.2369 -0.6231 -0.1631
  195MOL    C1746965   0.806   2.700   7.414 -0.4842 -0.1325  0.2341
  195MOL    H1846966   0.858   2.599   7.129  0.4790 -0.3358 -0.6967
  195MOL    H1946967   0.736   2.535   7.045 -0.5319 -0.0279  1.5489
  195MOL    H2046968   0.566   2.673   7.159  0.2871 -0.4189 -0.3265
  195MOL    H2146969   0.612   2.782   7.376 -0.2649 -3.5399  1.0112
  195MOL    H2246970   0.740   2.837   7.276 -0.1119 -0.6949 -0.6577
  195MOL    H2346971   0.902   2.709   7.362 -0.6946  0.9238  0.0343
  195MOL    H2446972   0.821   2.764   7.500  2.3959  0.4996 -0.6741
  195MOL    H2546973   0.779   2.602   7.453 -2.5266  0.5758  0.6238
  195MOL    C2646974   0.609   2.507   7.273 -0.5385 -0.0495  0.2784
  195MOL    C2746975   0.513   2.415   7.198  0.7250  0.0839 -0.0291
  195MOL    C2846976   0.375   2.475   7.164  0.2317 -0.6473 -0.8282
  195MOL    C2946977   0.300   2.512   7.300 -0.0802  0.4097  0.4058
  195MOL    H3046978   0.568   2.533   7.371 -1.0021  0.8698 -0.1584
  195MOL    H3146979   0.699   2.446   7.289 -1.6643 -1.5760  0.9074
  195MOL    H3246980   0.567   2.405   7.104 -0.5822 -2.3927 -0.5623
  195MOL    H3346981   0.323   2.402   7.102 -1.8139 -0.1505  0.2528
  195MOL    H3446982   0.390   2.566   7.106 -2.1098  1.2846  1.4993
  195MOL    H3546983   0.208   2.565   7.275 -0.1795 -0.1336 -0.4302
  195MOL    H3646984   0.269   2.425   7.358  4.6291 -0.4903  1.7377
  195MOL    H3746985   0.359   2.582   7.358  2.1419  1.1489 -2.6157
  195MOL    C3846986   0.503   2.284   7.273  0.0864  0.2791  0.2248
  195MOL    C3946987   0.615   2.182   7.243  0.3499  0.3071  0.1385
  195MOL    C4046988   0.607   2.128   7.092 -0.1336  0.3132  0.7926
  195MOL    C4146989   0.485   2.038   7.068 -0.8376 -0.2553  0.0692
  195MOL    H4246990   0.408   2.233   7.257  0.3854 -0.0608 -0.4853
  195MOL    H4346991   0.502   2.310   7.379  1.8155  0.0021  0.3350
  195MOL    H4446992   0.709   2.236   7.254  0.4494  0.0864  0.3959
  195MOL    H4546993   0.698   2.078   7.059  0.6110  0.0781  3.0609
  195MOL    H4646994   0.582   2.207   7.021 -0.4633 -0.7973 -0.3448
  195MOL    H4746995   0.465   1.963   7.145  0.5509  2.6674  3.4568
  195MOL    H4846996   0.397   2.102   7.060 -0.5705  0.0664 -0.2485
  195MOL    H4946997   0.506   1.978   6.980 -0.6989 -0.9268  0.5508
  195MOL    C5046998   0.613   2.070   7.341 -0.1849  0.0699 -0.1056
  195MOL    C5146999   0.720   2.084   7.457  0.2417 -1.1762 -0.2316
  195MOL    C5247000   0.705   2.219   7.539 -0.4802  0.2871 -0.8672
  195MOL    C5347001   0.756   2.212   7.684  0.1318 -0.1349 -0.1710
  195MOL    H5447002   0.633   1.970   7.303  1.6022  1.0009 -1.7215
  195MOL    H5547003   0.512   2.057   7.379 -0.5720 -0.5369 -1.3194
  195MOL    H5647004   0.701   1.996   7.519 -2.5016  0.6466  1.6384
  195MOL    H5747005   0.599   2.226   7.562 -0.9601  1.6467 -3.2261
  195MOL    H5847006   0.739   2.307   7.485 -1.3862  3.2260  3.1273
  195MOL    H5947007   0.748   2.310   0.024 -0.5002  1.1048 -2.8297
  195MOL    H6047008   0.692   2.143   0.032 -1.2563  1.0242 -0.3279
  195MOL    H6147009   0.854   2.165   7.691 -1.1183 -2.7148  0.5232
  195MOL    C6247010   0.872   2.074   7.401 -0.0618  0.3575 -0.0827
  195MOL    C6347011   0.892   1.937   7.321  0.2929  0.1234  0.5336
  195MOL    C6447012   0.896   1.810   7.410  0.0678  0.5900  0.2690
  195MOL    C6547013   0.966   1.827   7.548  0.2829 -0.3019 -1.0120
  195MOL    H6647014   0.954   2.105   7.466 -0.6311  0.2327  0.7081
  195MOL    H6747015   0.887   2.153   7.327  0.4461  2.1499  1.8934
  195MOL    H6847016   0.811   1.929   7.248 -1.7240 -1.1360  2.8456
  195MOL    H6947017   0.937   1.724   7.357  1.4881  1.4360 -0.0371
  195MOL    H7047018   0.794   1.784   7.439  0.6326  0.3212  2.0735
  195MOL    H7147019   0.979   1.727   7.590  1.9350  0.3497  0.0736
  195MOL    H7247020   1.059   1.882   7.537  0.4121 -0.1635  0.5821
  195MOL    H7347021   0.906   1.884   7.620 -0.6160 -0.2512 -1.7936
  195MOL    C7447022   1.035   1.947   7.251 -0.5085  0.4557 -0.5743
  195MOL    C7547023   1.046   1.852   7.129  0.0598 -0.5992 -0.4383
  195MOL    C7647024   1.192   1.804   7.101  0.7378 -0.1657  0.5351
  195MOL    C7747025   1.290   1.915   7.058 -0.4337  0.6748 -0.4476
  195MOL    H7847026   1.107   1.927   7.330  0.0525  1.5163 -0.8104
  195MOL    H7947027   1.055   2.047   7.213  2.5451  0.3345  0.6291
  195MOL    H8047028   0.988   1.763   7.153 -1.2955 -0.1091 -1.8716
  195MOL    H8147029   1.200   1.735   7.017 -0.7026 -0.0448  0.2836
  195MOL    H8247030   1.231   1.755   7.191  2.1061 -0.1908 -0.0714
  195MOL    H8347031   1.272   2.003   7.121 -1.8458  0.1598 -0.1107
  195MOL    H8447032   1.391   1.876   7.064 -0.3439  0.7591 -1.3421
  195MOL    H8547033   1.270   1.947   6.956 -0.1164  2.1975 -0.0453
  195MOL    C8647034   0.977   1.914   7.006 -0.5718 -0.3682  0.2026
  195MOL    C8747035   0.925   1.808   6.903  0.0950  0.1649  0.0277
  195MOL    C8847036   0.933   1.874   6.758  0.4178  0.7808 -0.8412
  195MOL    C8947037   1.079   1.888   6.712  0.0053 -0.1977 -0.6280
  195MOL    H9047038   1.041   1.992   6.965 -2.3576  0.7402 -0.5516
  195MOL    H9147039   0.895   1.977   7.041 -0.4025 -0.1735  0.2484
  195MOL    H9247040   0.989   1.719   6.905 -0.9062 -0.5576  2.3552
  195MOL    H9347041   0.870   1.961   6.740  0.9664  1.2322 -0.5911
  195MOL    H9447042   0.901   1.795   6.691 -0.1722  0.1760  0.1377
  195MOL    H9547043   1.116   1.981   6.756 -3.2547  0.4479  0.8994
  195MOL    H9647044   1.135   1.802   6.747 -1.2013 -0.6358  0.2557
  195MOL    H9747045   1.081   1.887   6.603 -0.7653 -1.7244 -0.6303
  195MOL    C9847046   0.787   1.772   6.948  0.2948 -0.3990  0.6984
  195MOL    C9947047   0.741   1.638   6.888  1.5220 -0.1624  0.4627
  195MOL   C10047048   0.589   1.650   6.876 -0.2868 -0.5083 -0.0203
  195MOL   C10147049   0.530   1.538   6.787 -0.0326  0.3412  0.5688
  195MOL   H10247050   0.730   1.857   6.913 -0.9691 -1.9759 -1.1965
  195MOL   H10347051   0.771   1.770   7.055 -1.4433 -1.4822  0.4447
  195MOL   H10447052   0.775   1.626   6.785 -1.5991  0.8467 -0.7556
  195MOL   H10547053   0.560   1.748   6.838 -1.5041 -1.2533 -1.0324
  195MOL   H10647054   0.548   1.646   6.977  0.0283 -1.2246  0.0821
  195MOL   H10747055   0.517   1.445   6.841  0.7977 -2.0317 -3.1185
  195MOL   H10847056   0.425   1.559   6.769  0.2732  0.4663 -1.1940
  195MOL   H10947057   0.579   1.521   6.691 -0.7068 -0.9517  0.4468
  195MOL   C11047058   0.776   1.506   6.963  0.0412 -0.1748 -0.4701
  195MOL   C11147059   0.925   1.457   6.945  0.0843 -0.5574 -0.5484
  195MOL   C11247060   0.959   1.417   6.800 -0.6489  0.0982  0.0889
  195MOL   C11347061   1.111   1.428   6.763  0.9988  0.2955 -0.4549
  195MOL   H11447062   0.723   1.422   6.919  0.9728 -0.5274 -0.9313
  195MOL   H11547063   0.742   1.524   7.066 -0.8078  0.1639 -0.8031
  195MOL   H11647064   0.996   1.532   6.979 -2.5396  0.8346  2.0417
  195MOL   H11747065   0.915   1.483   6.725  0.5575 -0.2923 -1.0057
  195MOL   H11847066   0.923   1.318   6.772 -0.5630  0.0392  0.1891
  195MOL   H11947067   1.150   1.526   6.790  0.8486  0.0197  0.8091
  195MOL   H12047068   1.167   1.351   6.816 -0.5138  0.6305  1.6776
  195MOL   H12147069   1.141   1.412   6.659  2.1147  1.0177 -0.2612
  195MOL   C12247070   0.946   1.325   7.028 -0.4248  0.3126  0.3277
  195MOL   C12347071   0.949   1.339   7.186  0.3517 -0.2278  0.6459
  195MOL   C12447072   1.050   1.432   7.252  0.6892  0.2762  0.0950
  195MOL   C12547073   1.195   1.395   7.220  0.0383  0.0526 -0.5864
  195MOL   H12647074   1.035   1.273   6.992 -0.2762  1.3961 -0.8908
  195MOL   H12747075   0.854   1.271   7.008 -0.0203 -0.1548 -0.2838
  195MOL   H12847076   0.853   1.382   7.211  1.2850  1.6169  1.1287
  195MOL   H12947077   1.037   1.421   7.359  1.0069  0.0499  0.1104
  195MOL   H13047078   1.019   1.535   7.233 -1.1859 -0.5593 -1.4661
  195MOL   H13147079   1.201   1.370   7.114 -1.2174 -0.0500 -0.6513
  195MOL   H13247080   1.264   1.479   7.233 -0.4626  0.6642 -1.7837
  195MOL   H13347081   1.227   1.309   7.278 -0.2601  0.6429  0.4744
  195MOL   C13447082   0.954   1.189   7.244 -0.1400  0.3960 -0.7004
  195MOL   C13547083   0.830   1.125   7.307 -0.3398 -0.0055 -0.4192
  195MOL   C13647084   0.724   1.120   7.198  0.1679 -0.0524  0.0248
  195MOL   C13747085   0.627   1.002   7.222 -0.3358  0.1884  0.3669
  195MOL   H13847086   1.028   1.172   7.322 -1.6952 -1.4676  0.4050
  195MOL   H13947087   1.001   1.122   7.171  0.9719  1.0292 -0.5846
  195MOL   H14047088   0.854   1.021   7.330  1.2421  1.1763  3.7380
  195MOL   H14147089   0.769   1.096   7.102  0.1098 -1.8366  0.4230
  195MOL   H14247090   0.677   1.219   7.196  1.4887  0.5630 -1.0690
  195MOL   H14347091   0.683   0.908   7.233 -2.8900 -1.1751  2.2288
  195MOL   H14447092   0.567   1.006   7.313 -2.1047  0.3278 -0.7976
  195MOL   H14547093   0.556   0.994   7.140  0.8664 -0.6447 -0.6113
  195MOL   C14647094   0.773   1.207   7.423  0.3124 -0.8583  0.3613
  195MOL   C14747095   0.846   1.194   7.554 -0.0411  0.0475  0.3694
  195MOL   C14847096   0.812   1.068   7.630 -0.6867 -0.1650 -0.2016
  195MOL   C14947097   0.903   0.947   7.601  0.1073 -0.0172  0.7145
  195MOL   H15047098   0.667   1.192   7.444  0.0540  1.7230  1.0842
  195MOL   H15147099   0.784   1.313   7.399 -0.4173 -0.8214  0.1806
  195MOL   H15247100   0.953   1.193   7.534 -0.2762  1.7084 -1.1898
  195MOL   H15347101   0.708   1.041   7.609 -0.5822  1.1219 -2.6170
  195MOL   H15447102   0.820   1.086   0.031  1.4323  0.2216 -0.4002
  195MOL   H15547103   0.874   0.852   7.645  2.8889 -0.7372  1.0833
  195MOL   H15647104   0.902   0.926   7.494  0.9214  1.5595  0.3774
  195MOL   H15747105   1.007   0.951   7.632  0.5284  3.4498 -0.8936
  195MOL   C15847106   0.819   1.327   7.632  0.1451 -0.1204 -0.6308
  195MOL   C15947107   0.869   1.334   0.078  0.3585 -0.4385  0.4746
  195MOL   C16047108   0.802   1.453   0.148  0.0617  0.0026  0.4250
  195MOL   C16147109   0.804   1.588   0.074 -0.0620  0.7752  0.1856
  195MOL   H16247110   0.717   1.364   7.619  1.3994  3.1806 -1.5209
  195MOL   H16347111   0.880   1.402   7.583 -0.6626  0.4942 -0.7008
  195MOL   H16447112   0.828   1.250   0.133  0.0611 -0.8149 -0.3072
  195MOL   H16547113   0.849   1.469   0.245  0.8680  2.0077 -0.2847
  195MOL   H16647114   0.702   1.415   0.172 -0.4926  1.0637 -0.1691
  195MOL   H16747115   0.776   1.595   7.675  1.7968  0.6325 -0.3345
  195MOL   H16847116   0.751   1.664   0.131 -2.3584 -0.0020 -0.8328
  195MOL   H16947117   0.909   1.616   0.062  0.8142 -2.6993 -0.6554
  195MOL   C17047118   1.019   1.357   0.094 -0.7949  0.1452 -0.4093
  195MOL   C17147119   1.104   1.225   0.101  0.3648  0.1422 -0.7650
  195MOL   C17247120   1.066   1.148   0.230  0.2523  0.1555  0.0703
  195MOL   C17347121   1.079   1.228   0.363 -0.0069  0.3080  0.8250
  195MOL   H17447122   1.040   1.429   0.172 -0.3311  0.5035 -0.8601
  195MOL   H17547123   1.051   1.407   0.003 -1.4526  1.2489 -0.0433
  195MOL   H17647124   1.094   1.154   0.018 -0.5496 -0.1196 -0.4353
  195MOL   H17747125   1.121   1.054   0.239  0.1162  0.3342  3.6830
  195MOL   H17847126   0.960   1.125   0.241  0.5126  0.0094  2.6921
  195MOL   H17947127   1.034   1.170   0.443 -0.8120  0.3524  0.4177
  195MOL   H18047128   1.185   1.232   0.387  0.5585 -1.2108 -1.2792
  195MOL   H18147129   1.021   1.320   0.371  0.9083  0.8799  0.8990
  195MOL   C18247130   1.255   1.251   0.099  0.4816  0.6560  0.0285
  195MOL   C18347131   1.316   1.296   7.666  0.1864 -1.0333  0.4223
  195MOL   C18447132   1.378   1.185   7.573 -0.2669 -0.2646  0.1617
  195MOL   C18547133   1.283   1.065   7.530  0.0986  0.2637 -0.0529
  195MOL   H18647134   1.313   1.171   0.145  0.1552 -0.4028 -1.3687
  195MOL   H18747135   1.282   1.328   0.171 -0.7783 -0.7402  2.0500
  195MOL   H18847136   1.236   1.345   7.611  2.3898  2.8854  0.5819
  195MOL   H18947137   1.473   1.148   7.612  1.5684  1.4037 -2.5001
  195MOL   H19047138   1.404   1.231   7.477  1.0140 -2.0328 -0.3622
  195MOL   H19147139   1.201   1.097   7.466 -0.0889 -0.6692 -0.2878
  195MOL   H19247140   1.336   0.989   7.472  0.0216  1.9206 -2.3916
  195MOL   H19347141   1.251   1.002   7.613  0.5520  1.1740  0.8138
  195MOL   C19447142   1.427   1.405   7.684  0.3510 -0.0300  0.0008
  195MOL   C19547143   1.378   1.545   0.035  0.8723 -0.2159  0.5923
  195MOL   C19647144   1.350   1.656   7.639  1.6595  0.4272 -0.1734
  195MOL   C19747145   1.236   1.625   7.541  0.2009  0.2479  0.4164
  195MOL   H19847146   1.489   1.413   7.594  3.0271  0.8737  1.8569
  195MOL   H19947147   1.500   1.364   0.048  0.8260 -1.6783 -1.4046
  195MOL   H20047148   1.285   1.519   0.085 -0.3228 -0.3871 -1.6340
  195MOL   H20147149   1.439   1.666   7.577  1.3121 -0.1260 -0.7754
  195MOL   H20247150   1.318   1.751   7.682  0.9342  0.1103 -0.0056
  195MOL   H20347151   1.145   1.613   7.599  0.9251  2.0767  2.0202
  195MOL   H20447152   1.227   1.709   7.473 -0.5343  0.4473  0.7571
  195MOL   H20547153   1.250   1.546   7.468  0.4143  0.3948  0.2959
  195MOL   C20647154   1.460   1.607   0.151 -0.2824 -0.8030  0.5198
  195MOL   C20747155   1.376   1.705   0.243  0.0297 -0.2215  0.0177
  195MOL   C20847156   1.457   1.832   0.294  0.2239  1.0500 -0.0047
  195MOL   C20947157   1.513   1.921   0.186  0.2023 -0.5309 -0.1719
  195MOL   H21047158   1.540   1.656   0.096 -2.3794 -0.2172 -2.0883
  195MOL   H21147159   1.506   1.526   0.209  2.6502  0.6467  0.3194
  195MOL   H21247160   1.295   1.759   0.195  2.8970  2.8900 -1.5323
  195MOL   H21347161   1.535   1.795   0.360 -0.6120  0.3674  0.6282
  195MOL   H21447162   1.389   1.889   0.357 -0.7834 -0.6981  0.5366
  195MOL   H21547163   1.439   1.973   0.124  0.2512 -0.6503 -0.3285
  195MOL   H21647164   1.549   2.013   0.233  2.4883 -1.0560 -0.8417
  195MOL   H21747165   1.592   1.881   0.123  1.4441  0.0893  0.9704
  195MOL   C21847166   1.315   1.626   0.367  0.3376  0.7732 -0.4720
  195MOL   C21947167   1.200   1.696   0.449  0.3538  0.2576 -0.5949
  195MOL   C22047168   1.217   1.637   0.592 -0.3179 -0.8141  0.7398
  195MOL   C22147169   1.321   1.708   0.683  0.2421 -0.3446  0.3447
  195MOL   H22247170   1.393   1.597   0.437  3.1317  0.9843 -3.4047
  195MOL   H22347171   1.279   1.526   0.344  0.2845  0.9061 -0.9572
  195MOL   H22447172   1.218   1.802   0.460 -0.7188  0.4049 -0.1184
  195MOL   H22547173   1.238   1.531   0.584  1.1209 -0.6375  1.9829
  195MOL   H22647174   1.123   1.652   0.645 -0.4670  1.0306  0.0109
  195MOL   H22747175   1.425   1.678   0.671  0.8134  1.7925 -0.2219
  195MOL   H22847176   1.324   1.807   0.639 -0.4904 -0.5324 -0.1409
  195MOL   H22947177   1.303   1.704   0.791  2.4410  1.0827  0.7932
  195MOL   C23047178   1.058   1.689   0.385 -0.1722  0.1599 -0.2145
  195MOL   C23147179   0.966   1.788   0.461 -0.2149  0.2568 -0.0022
  195MOL   C23247180   0.846   1.821   0.373  0.2597  0.9511 -0.1941
  195MOL   C23347181   0.887   1.921   0.262  0.1912 -0.0285  0.2845
  195MOL   H23447182   1.017   1.588   0.373 -0.3179  0.2007 -0.0619
  195MOL   H23547183   1.084   1.720   0.284  1.9106 -0.3576  0.1417
  195MOL   H23647184   0.931   1.745   0.555  1.6687 -0.0700  0.5843
  195MOL   H23747185   0.777   1.874   0.438 -1.2276 -0.3559 -0.7017
  195MOL   H23847186   0.796   1.730   0.341 -1.8186  1.1859  2.2991
  195MOL   H23947187   0.957   1.903   0.181  0.6713  0.8431  0.4927
  195MOL   H24047188   0.801   1.944   0.199 -0.5751 -0.7907  1.0408
  195MOL   H24147189   0.922   2.014   0.307 -0.5549  0.3152  0.1761
  195MOL   H24247190   1.025   1.876   0.486 -2.1985  1.6953 -0.2606
  196MOL     C147191   6.398   2.493   7.367 -0.2086  0.0031 -0.1657
  196MOL     C247192   6.549   2.477   7.396 -0.5965  0.1833 -0.2472
  196MOL     C347193   6.579   2.340   7.453 -0.1015  0.1384  0.1415
  196MOL     C447194   6.525   2.217   7.372 -0.1133 -0.3553  0.8899
  196MOL     H547195   6.345   2.457   7.455 -0.0217  0.2106  0.0314
  196MOL     H647196   6.367   2.596   7.350  0.3491  0.1998  0.0091
  196MOL     H747197   6.590   2.482   7.295  0.3292 -2.1694 -0.0166
  196MOL     H847198   6.534   2.337   7.553  1.1831 -0.0950  0.7286
  196MOL     H947199   6.688   2.332   7.459  0.2696  3.6542 -1.0153
  196MOL    H1047200   6.506   2.236   7.267  0.2913  0.7727  1.0164
  196MOL    H1147201   6.612   2.152   7.379  1.7761  1.6376 -3.0472
  196MOL    H1247202   6.441   2.163   7.416 -1.1966  0.7227  0.1637
  196MOL    H1347203   6.369   2.432   7.281 -0.9021  0.4861 -0.2840
  196MOL    C1447204   6.598   2.597   7.484 -0.2464  0.3668 -0.2132
  196MOL    C1547205   6.749   2.584   7.534  0.3183  0.0423 -0.5363
  196MOL    C1647206   6.782   2.684   7.644  0.6939  0.6099  0.2456
  196MOL    C1747207   6.681   2.687   0.051  0.2314 -0.5830 -0.6645
  196MOL    H1847208   6.530   2.592   7.569  1.7729 -0.6988  1.3886
  196MOL    H1947209   6.577   2.694   7.439 -1.2274  0.3593  0.2194
  196MOL    H2047210   6.760   2.483   7.574  0.7651 -0.0662 -0.9193
  196MOL    H2147211   6.787   2.786   7.605 -1.8204  1.7634  2.8019
  196MOL    H2247212   6.875   2.648   7.688 -1.2851 -2.3441  2.1886
  196MOL    H2347213   6.717   2.741   0.138 -1.6958 -0.3744  0.0223
  196MOL    H2447214   6.589   2.742   0.028  0.6578  0.3710 -0.1191
  196MOL    H2547215   6.654   2.588   0.086 -1.9469  0.4617  0.7848
  196MOL    C2647216   6.838   2.611   7.412  1.4679 -0.2799 -0.2657
  196MOL    C2747217   6.988   2.625   7.436  0.0966 -0.0700  0.3612
  196MOL    C2847218   7.063   2.662   7.303  0.6880  0.4472  0.1704
  196MOL    C2947219   7.092   2.815   7.288  0.4460 -0.3759  0.5278
  196MOL    H3047220   6.785   2.693   7.363 -0.0481 -1.3305 -0.4444
  196MOL    H3147221   6.834   2.530   7.339 -2.9340 -0.1585 -0.2922
  196MOL    H3247222   7.004   2.701   7.513 -1.1130  0.9433 -0.3731
  196MOL    H3347223   7.008   2.625   7.217 -0.3125  0.3942  0.8365
  196MOL    H3447224   7.162   2.617   7.302  1.3130  1.7865 -0.5594
  196MOL    H3547225   6.996   2.863   7.269  0.6712 -0.8420 -1.9233
  196MOL    H3647226   7.135   2.860   7.377  0.7564  0.0692  0.1589
  196MOL    H3747227   7.168   2.833   7.212 -1.4901  0.5878 -1.2327
  196MOL    C3847228   7.043   2.488   7.489  0.2638 -0.5445 -0.3505
  196MOL    C3947229   7.177   2.488   7.559  0.5403  0.2890  0.1280
  196MOL    C4047230   7.230   2.346   7.594  0.1042 -0.1897  0.0896
  196MOL    C4147231   7.269   2.263   7.470  0.3535  0.0514  1.0748
  196MOL    H4247232   7.036   2.416   7.408  1.3636 -1.0062 -0.0410
  196MOL    H4347233   6.973   2.441   7.558  1.2368 -0.3604  0.7808
  196MOL    H4447234   7.245   2.522   7.481  1.4140  0.6585  1.0282
  196MOL    H4547235   7.150   2.292   7.646 -0.7852  0.1083 -0.9422
  196MOL    H4647236   7.311   2.339   7.666 -0.5436 -0.1949  0.8324
  196MOL    H4747237   7.354   2.311   7.422 -0.3020  1.9478  1.7820
  196MOL    H4847238   7.304   2.162   7.491 -0.3655  0.1849  2.9514
  196MOL    H4947239   7.193   2.252   7.392  0.9536 -0.1738  0.5138
  196MOL    C5047240   7.179   2.580   7.679  0.2319  0.0876 -0.0241
  196MOL    C5147241   7.305   2.674   7.695  0.4293 -0.1286 -0.2799
  196MOL    C5247242   7.346   2.684   0.138 -0.1976 -1.0926  0.1972
  196MOL    C5347243   7.429   2.570   0.183 -0.0277  0.2939  1.1817
  196MOL    H5447244   7.183   2.516   0.061 -0.4406  1.6921  1.2068
  196MOL    H5547245   7.083   2.630   7.698 -0.3720 -1.3131  0.6762
  196MOL    H5647246   7.379   2.615   7.643  1.4305  0.3057  0.6303
  196MOL    H5747247   7.260   2.698   0.202 -0.0027  0.5948  0.0992
  196MOL    H5847248   7.396   2.780   0.150 -0.9921 -0.8401  1.6586
  196MOL    H5947249   7.385   2.476   0.153 -1.0597  0.7172  1.3502
  196MOL    H6047250   7.530   2.567   0.141 -0.0337  0.8227  1.1301
  196MOL    H6147251   7.430   2.572   0.292 -1.0154  0.4894  1.1886
  196MOL    C6247252   7.296   2.802   7.619  0.4250  0.0465 -0.0582
  196MOL    C6347253   7.430   2.872   7.591 -0.3057  0.7521 -0.0246
  196MOL    C6447254   7.423   3.025   7.605 -0.0108 -0.2398 -0.2931
  196MOL    C6547255   7.326   3.091   7.509  0.0073  0.2062  0.1021
  196MOL    H6647256   7.223   2.858   7.676 -0.3719 -0.0744 -0.9391
  196MOL    H6747257   7.262   2.769   7.521  0.5486 -0.3517  0.0304
  196MOL    H6847258   7.492   2.849   7.677 -1.4451 -0.1456  0.5735
  196MOL    H6947259   7.526   3.058   7.594  0.1148 -1.0294 -1.5627
  196MOL    H7047260   7.393   3.053   0.001 -0.8539  0.0505 -0.6131
  196MOL    H7147261   7.357   3.195   7.503 -0.8272  0.4878  0.5796
  196MOL    H7247262   7.340   3.057   7.406  3.1739 -0.1866  0.6098
  196MOL    H7347263   7.224   3.092   7.549  1.1075 -0.2755  3.0388
  196MOL    C7447264   7.509   2.827   7.464 -0.3113 -0.6911  0.5381
  196MOL    C7547265   7.554   2.680   7.461 -0.2545 -0.3115  0.1337
  196MOL    C7647266   7.660   2.651   7.575 -0.4391  0.2561 -0.3965
  196MOL    C7747267   7.674   2.504   7.601  0.9219  0.4426 -0.1262
  196MOL    H7847268   7.601   2.885   7.458 -1.4576  1.2596  1.4261
  196MOL    H7947269   7.444   2.846   7.378 -1.3500  0.5656  1.5807
  196MOL    H8047270   7.466   2.618   7.474  0.3753 -0.7719  2.3913
  196MOL    H8147271   7.635   2.706   7.666  0.7288  2.5389 -1.3914
  196MOL    H8247272   0.057   2.683   7.556 -0.4095  1.1837  1.2646
  196MOL    H8347273   0.042   2.494   7.680  0.4468  1.1314  0.4051
  196MOL    H8447274   7.582   2.462   7.639  0.9850  0.3396 -0.0891
  196MOL    H8547275   0.008   2.438   7.523 -1.2363 -0.4681 -0.4883
  196MOL    C8647276   7.630   2.644   7.329 -0.6750  0.2178  0.0402
  196MOL    C8747277   7.542   2.632   7.203 -0.3581  1.0933  0.3867
  196MOL    C8847278   7.463   2.491   7.208  0.4790 -0.4317  0.2083
  196MOL    C8947279   7.350   2.467   7.105 -0.6967  0.5594  0.5368
  196MOL    H9047280   7.679   2.548   7.347 -0.1179  0.4905  0.0179
  196MOL    H9147281   7.705   2.724   7.319  0.3384 -0.3978  2.3962
  196MOL    H9247282   7.470   2.714   7.205 -3.2080 -1.3124 -0.2155
  196MOL    H9347283   7.419   2.486   7.308  0.8954  1.7899  0.5130
  196MOL    H9447284   7.535   2.409   7.205  0.3213 -0.4960 -2.3495
  196MOL    H9547285   7.301   2.373   7.132 -0.7022  0.4347  0.0912
  196MOL    H9647286   7.280   2.550   7.113 -0.9373  0.2801  1.4118
  196MOL    H9747287   7.402   2.458   7.009  0.2393  2.0653  0.8839
  196MOL    C9847288   7.627   2.621   7.077 -0.0535 -0.4898  0.4426
  196MOL    C9947289   7.681   2.754   7.016 -0.2821 -0.1254 -0.2960
  196MOL   C10047290   7.574   2.838   6.955  1.1400 -0.5236 -0.0734
  196MOL   C10147291   7.516   2.784   6.817 -0.3930  0.4831 -0.3812
  196MOL   H10247292   7.569   2.571   6.999  2.0544 -0.7850 -0.9668
  196MOL   H10347293   0.011   2.562   7.095  2.0309  3.1090  2.4661
  196MOL   H10447294   0.013   2.809   7.102 -0.9804 -0.0360 -0.0467
  196MOL   H10547295   7.611   2.939   6.938 -2.2188  0.8167  0.1917
  196MOL   H10647296   7.485   2.841   7.017  0.0782 -1.2454 -1.5250
  196MOL   H10747297   7.449   2.700   6.834  1.4410 -1.3365 -1.9420
  196MOL   H10847298   7.464   2.868   6.771 -3.3038 -1.6713 -1.1593
  196MOL   H10947299   7.597   2.755   6.750 -0.4752  2.4036 -1.3643
  196MOL   C11047300   0.107   2.724   6.935  0.6637 -0.1208  0.1384
  196MOL   C11147301   0.187   2.847   6.884 -0.1324  0.1235 -0.0386
  196MOL   C11247302   0.271   2.802   6.764 -0.3598 -0.6276  0.5461
  196MOL   C11347303   0.356   2.894   6.682 -0.4768  0.3310  0.5052
  196MOL   H11447304   0.076   2.677   6.841 -0.2693  0.0563  0.3518
  196MOL   H11547305   0.173   2.653   6.985 -0.4421 -0.2580  1.4318
  196MOL   H11647306   0.119   2.926   6.851  0.9111  0.8134 -0.5776
  196MOL   H11747307   0.206   2.753   6.692  1.2791  1.1015 -2.2062
  196MOL   H11847308   0.331   2.721   6.806  1.0617  0.2240  0.1972
  196MOL   H11947309   0.395   2.838   6.597 -0.5707  0.5897  0.2907
  196MOL   H12047310   0.308   2.979   6.633 -0.3392  0.9610  1.4323
  196MOL   H12147311   0.444   2.927   6.737  0.9648 -1.8643 -0.4183
  196MOL   C12247312   0.271   2.910   6.998  0.2184  0.3115 -0.3412
  196MOL   C12347313   0.321   3.051   6.964 -0.2334  0.2313 -0.3818
  196MOL   C12447314   0.470   3.072   7.015  0.0552 -0.3878  0.6755
  196MOL   C12547315   0.501   3.044   7.160 -0.2865 -0.6446 -0.2824
  196MOL   H12647316   0.332   2.835   7.050  0.2175 -0.4255 -1.3895
  196MOL   H12747317   0.198   2.924   7.078 -0.7982  2.2387 -1.5873
  196MOL   H12847318   0.320   3.061   6.856  0.9078 -2.3800 -0.6845
  196MOL   H12947319   0.513   3.169   6.992  0.8117 -0.7303  0.6088
  196MOL   H13047320   0.539   2.999   6.972 -0.0902  0.6021 -1.2851
  196MOL   H13147321   0.477   2.946   7.200  1.9859 -1.0962  0.0127
  196MOL   H13247322   0.606   3.046   7.189 -0.6190  0.8462  0.8955
  196MOL   H13347323   0.451   3.118   7.223  0.4214 -0.4144  0.0121
  196MOL   C13447324   0.237   3.161   7.025 -0.2268 -0.7904 -0.9735
  196MOL   C13547325   0.100   3.210   6.955  0.9175  0.1423 -0.0768
  196MOL   C13647326   0.123   3.261   6.814  0.5186 -0.4275  0.4419
  196MOL   C13747327   0.011   3.233   6.717  0.3735  0.1812  1.2849
  196MOL   H13847328   0.305   3.246   7.030 -1.9050  0.5176  0.7071
  196MOL   H13947329   0.231   3.133   7.130  0.6664  0.4084 -0.5836
  196MOL   H14047330   0.048   3.115   6.948  0.6426  0.3352 -0.6378
  196MOL   H14147331   0.213   3.213   6.774  1.4852  0.1742  1.8417
  196MOL   H14247332   0.145   3.367   6.804  1.3539 -0.4867  1.4774
  196MOL   H14347333   7.702   3.126   6.699  0.2081  0.6077 -1.2973
  196MOL   H14447334   7.630   3.275   6.767 -0.2783  0.9111 -0.4282
  196MOL   H14547335   0.029   3.272   6.617  3.2051 -2.2900  0.7460
  196MOL   C14647336   0.032   3.312   7.054  0.5437  0.2750 -0.3894
  196MOL   C14747337   7.674   3.251   7.183 -0.1970 -0.8143 -0.4836
  196MOL   C14847338   7.569   3.136   7.163 -0.2083  0.3852  0.3818
  196MOL   C14947339   7.458   3.150   7.055 -0.4922 -0.1398 -0.1145
  196MOL   H15047340   7.661   3.353   6.988  1.5515  1.7261 -0.6651
  196MOL   H15147341   0.107   3.388   7.071  1.1561 -0.5367  0.5585
  196MOL   H15247342   0.043   3.193   7.237 -1.3455 -0.5973  1.3941
  196MOL   H15347343   7.519   3.115   7.257  1.1052 -1.5875  0.6551
  196MOL   H15447344   7.637   3.055   7.140  1.7809  1.6518  1.6592
  196MOL   H15547345   7.503   3.155   6.955 -0.7610 -0.0019 -0.2285
  196MOL   H15647346   7.400   3.058   7.056 -0.9987  0.1677 -1.2189
  196MOL   H15747347   7.393   3.237   7.060  2.7843  2.6606 -3.3030
  196MOL   C15847348   7.605   3.360   7.260  0.5259 -0.1335  0.3763
  196MOL   C15947349   7.700   3.473   7.320  0.2576  0.1274  1.1070
  196MOL   C16047350   0.123   3.418   7.393 -0.1765  0.2141  0.2605
  196MOL   C16147351   0.093   3.324   7.512 -0.0509  0.3146 -0.2077
  196MOL   H16247352   7.553   3.309   7.340 -3.1371  0.5595 -1.4811
  196MOL   H16347353   7.528   3.408   7.199  0.7457  0.4479  0.5515
  196MOL   H16447354   0.027   3.529   7.232  0.2146 -2.2395 -0.4527
  196MOL   H16547355   0.198   3.492   7.422  0.5900 -1.0356  1.5674
  196MOL   H16647356   0.175   3.362   7.315 -1.0440  0.5493 -0.5643
  196MOL   H16747357   0.021   3.245   7.493 -0.2188  0.9906 -2.4898
  196MOL   H16847358   0.181   3.277   7.556  0.3834  2.3076  1.1655
  196MOL   H16947359   0.040   3.381   7.588 -0.6665 -0.2344 -0.2280
  196MOL   C17047360   7.617   3.566   7.403 -0.3012  0.1877  0.4277
  196MOL   C17147361   7.685   3.693   7.466 -0.8127 -1.3017 -0.9886
  196MOL   C17247362   7.621   3.749   7.597 -0.4998 -0.1872 -0.4277
  196MOL   C17347363   7.664   3.671   0.012 -0.0373  0.4363 -0.0834
  196MOL   H17447364   7.576   3.507   7.486 -1.0407  0.0789 -0.0109
  196MOL   H17547365   7.526   3.596   7.352 -0.3172  0.7369  0.7719
  196MOL   H17647366   0.080   3.663   7.496 -0.7467  0.3925  0.6065
  196MOL   H17747367   7.513   3.735   7.591 -0.3922 -1.7090  0.9831
  196MOL   H17847368   7.654   3.852   7.609  2.0261 -1.1489  1.2414
  196MOL   H17947369   0.067   3.675   0.014  0.0558 -1.8158  1.0671
  196MOL   H18047370   7.623   3.718   0.101  1.9224  2.0764 -0.0023
  196MOL   H18147371   7.637   3.566   0.010 -2.7853  1.1202 -0.2360
  196MOL   C18247372   0.001   3.806   7.358  0.3159  0.3773  0.5397
  196MOL   C18347373   0.089   3.931   7.396  0.0742 -0.6376 -0.1802
  196MOL   C18447374   0.034   4.062   7.340  0.0812  0.2538  0.2781
  196MOL   C18547375   7.632   4.125   7.427  0.2460 -0.0203  0.5804
  196MOL   H18647376   7.611   3.846   7.327  1.1897  0.2434 -2.4611
  196MOL   H18747377   0.056   3.755   7.279 -1.6934  0.0983 -0.6854
  196MOL   H18847378   0.103   3.939   7.504 -1.2135 -2.4089  0.1428
  196MOL   H18947379   7.701   4.041   7.240 -0.0406 -0.5292  0.4928
  196MOL   H19047380   0.111   4.139   7.337 -0.9323  1.2667  0.0298
  196MOL   H19147381   7.663   4.130   7.531 -1.4207  3.0015  0.9976
  196MOL   H19247382   7.607   4.228   7.403  0.1594  0.5112  2.8690
  196MOL   H19347383   7.537   4.072   7.437  0.3647 -0.1741  0.9036
  196MOL   C19447384   0.241   3.914   7.336  0.9952 -0.2361 -0.8733
  196MOL   C19547385   0.344   3.796   7.378 -0.3728 -0.4557  0.6006
  196MOL   C19647386   0.399   3.813   7.518 -0.8506  0.5321 -0.1565
  196MOL   C19747387   0.471   3.692   7.583  0.2956 -0.0350  0.0587
  196MOL   H19847388   0.294   4.008   7.353  0.6129 -0.1367 -0.1917
  196MOL   H19947389   0.224   3.915   7.229  0.0321 -1.3175 -0.7436
  196MOL   H20047390   0.292   3.701   7.365 -0.6216 -0.2817  0.3150
  196MOL   H20147391   0.313   3.821   7.584 -0.0169  0.5632  0.9264
  196MOL   H20247392   0.461   3.903   7.516  0.1835 -0.1704  0.2981
  196MOL   H20347393   0.569   3.673   7.538  0.1360 -0.3019 -0.1815
  196MOL   H20447394   0.497   3.727   7.683  1.1620  0.7301 -0.4191
  196MOL   H20547395   0.400   3.610   7.569 -0.2097  0.6355 -1.4744
  196MOL   C20647396   0.449   3.786   7.263 -0.7277 -0.0906 -0.1918
  196MOL   C20747397   0.407   3.726   7.131  0.0873  0.2951 -0.7042
  196MOL   C20847398   0.346   3.581   7.136  0.4253  0.2415 -0.3221
  196MOL   C20947399   0.429   3.470   7.193  0.0930  0.0922  0.1853
  196MOL   H21047400   0.538   3.738   7.303 -0.5599 -0.4910 -1.0453
  196MOL   H21147401   0.486   3.884   7.233  3.7474 -1.8848 -0.8866
  196MOL   H21247402   0.323   3.779   7.087  0.2858  0.5825 -0.7344
  196MOL   H21347403   0.325   3.547   7.034  2.0493 -3.4812  0.5020
  196MOL   H21447404   0.255   3.594   7.194 -0.2552  0.2126 -1.3739
  196MOL   H21547405   0.370   3.381   7.212  1.8069 -1.4964 -1.6552
  196MOL   H21647406   0.515   3.436   7.135  1.3586 -0.1360  2.1646
  196MOL   H21747407   0.471   3.492   7.291 -1.5928 -0.9942  1.1674
  196MOL   C21847408   0.528   3.720   7.027  0.0715  0.0720 -0.4412
  196MOL   C21947409   0.584   3.856   6.974 -0.8854 -0.1368 -0.1926
  196MOL   C22047410   0.490   3.939   6.886  0.1419 -1.4773 -0.1150
  196MOL   C22147411   0.428   3.863   6.769  0.3046  0.4672  0.1669
  196MOL   H22247412   0.503   3.655   6.944 -1.1839  0.4850 -0.3971
  196MOL   H22347413   0.613   3.671   7.074  1.2647  1.1167 -1.4611
  196MOL   H22447414   0.617   3.909   7.063  1.5358  0.4050 -1.3613
  196MOL   H22547415   0.529   4.038   6.861 -0.1708 -1.0195  1.1598
  196MOL   H22647416   0.403   3.958   6.948 -0.7584 -0.2582 -1.7113
  196MOL   H22747417   0.375   3.773   6.801  1.7306  0.0574  1.4103
  196MOL   H22847418   0.360   3.924   6.710 -1.4482 -2.8221 -1.3990
  196MOL   H22947419   0.506   3.826   6.702  1.3487  0.8174  1.1658
  196MOL   C23047420   0.717   3.825   6.897 -0.3969 -0.0496 -0.3906
  196MOL   C23147421   0.787   3.955   6.851 -0.5387 -0.5431 -0.2781
  196MOL   C23247422   0.934   3.931   6.827  0.2810 -0.2500 -0.4058
  196MOL   C23347423   1.016   4.062   6.784  0.3002  0.3564  0.5579
  196MOL   H23447424   0.697   3.755   6.817  0.5934  0.7024 -1.3090
  196MOL   H23547425   0.794   3.780   6.960 -0.2482 -1.0070 -1.2548
  196MOL   H23647426   0.740   3.995   6.761  2.7666  0.6604 -1.5521
  196MOL   H23747427   0.960   3.855   6.754  0.6461 -0.5226  0.0068
  196MOL   H23847428   0.987   3.900   6.917  0.2700 -1.4345 -0.7957
  196MOL   H23947429   1.122   4.040   6.793  0.9593  2.6465 -1.2233
  196MOL   H24047430   0.995   4.087   6.680 -0.0806  2.1083  1.0404
  196MOL   H24147431   0.996   4.149   6.847  0.9966  0.5245  0.5489
  196MOL   H24247432   0.781   4.036   6.924 -0.5450 -1.7471  1.0701
  197MOL     C147433   4.547   6.032   4.373  0.2939 -0.0811  0.7976
  197MOL     C247434   4.475   6.066   4.234  0.1649 -0.1674 -0.6351
  197MOL     C347435   4.501   5.967   4.116 -0.3429 -0.1520 -0.4120
  197MOL     C447436   4.477   5.815   4.146  0.5697 -1.3174  0.6774
  197MOL     H547437   4.532   5.929   4.406 -2.8224  0.3073  0.6613
  197MOL     H647438   4.654   6.052   4.377  0.2478  0.2407  0.4838
  197MOL     H747439   4.368   6.062   4.253  0.8644 -2.0587  3.3509
  197MOL     H847440   4.603   5.994   4.089  0.0122  0.1412  1.1703
  197MOL     H947441   4.448   5.999   4.027  0.7288  1.1201 -0.6051
  197MOL    H1047442   4.551   5.772   4.213  0.0765 -2.8940  0.2108
  197MOL    H1147443   4.383   5.789   4.194 -0.9360  2.1270 -0.2019
  197MOL    H1247444   4.484   5.756   4.055  2.0590  1.1550 -0.8741
  197MOL    H1347445   4.501   6.093   4.450  1.0994 -0.1749  1.3598
  197MOL    C1447446   4.506   6.209   4.186  0.3267 -0.5723 -0.6834
  197MOL    C1547447   4.457   6.326   4.268  0.3837 -0.1771  0.0655
  197MOL    C1647448   4.307   6.361   4.242 -1.0296 -0.0750 -0.0481
  197MOL    C1747449   4.242   6.440   4.354  0.3864 -0.2747 -0.3196
  197MOL    H1847450   4.465   6.214   4.085 -1.4403  0.0577  0.0370
  197MOL    H1947451   4.614   6.202   4.174  0.2290 -0.9629 -1.3704
  197MOL    H2047452   4.475   6.305   4.373  1.1344 -1.6435 -0.3459
  197MOL    H2147453   4.254   6.267   4.228 -1.0196 -0.2229  0.9236
  197MOL    H2247454   4.311   6.420   4.150  3.2186 -2.8864 -1.7979
  197MOL    H2347455   4.231   6.383   4.447  1.7957  0.2011  0.1582
  197MOL    H2447456   4.292   6.536   4.367  0.0425 -0.2133  0.6133
  197MOL    H2547457   4.144   6.471   4.319 -0.2402 -0.1402  1.4616
  197MOL    C2647458   4.550   6.440   4.236  0.3301 -0.3786  0.1250
  197MOL    C2747459   4.683   6.428   4.314 -0.3664  0.0663  0.3397
  197MOL    C2847460   4.664   6.486   4.463  0.4363 -0.2332  0.0403
  197MOL    C2947461   4.773   6.429   4.553 -0.1204  0.0054  0.4623
  197MOL    H3047462   4.494   6.530   4.260 -0.4925 -0.8756  0.0893
  197MOL    H3147463   4.567   6.444   4.128  1.1702 -1.1615  0.2266
  197MOL    H3247464   4.720   6.326   4.321 -0.2975 -0.3269 -4.3642
  197MOL    H3347465   4.568   6.459   4.507 -0.3397  2.0240 -0.2114
  197MOL    H3447466   4.682   6.593   4.470  1.8935 -0.5447  1.2436
  197MOL    H3547467   4.751   6.326   4.582  0.6799 -0.3566 -0.1930
  197MOL    H3647468   4.873   6.425   4.509 -0.3402 -2.2729  0.1081
  197MOL    H3747469   4.768   6.483   4.648 -1.1770 -1.0892  1.0508
  197MOL    C3847470   4.801   6.512   4.254 -0.1229  0.2373 -0.2490
  197MOL    C3947471   4.866   6.461   4.125  0.3024 -0.5296  0.5678
  197MOL    C4047472   4.967   6.347   4.140  0.3940 -0.0525 -0.4594
  197MOL    C4147473   5.103   6.373   4.217  0.6555 -1.0719  0.1541
  197MOL    H4247474   4.882   6.532   4.324 -1.1708  0.8389  0.8311
  197MOL    H4347475   4.751   6.608   4.241  1.0094  0.8537 -0.0797
  197MOL    H4447476   4.788   6.413   4.067 -1.1365 -0.3925  2.3473
  197MOL    H4547477   4.990   6.292   4.049  0.6175 -2.9190  1.2833
  197MOL    H4647478   4.922   6.272   4.204  0.5117 -0.3469 -0.7169
  197MOL    H4747479   5.087   6.393   4.323 -1.9661  2.9252 -0.8854
  197MOL    H4847480   5.167   6.285   4.209 -0.2819 -1.7250 -0.1682
  197MOL    H4947481   5.152   6.464   4.182 -0.6932 -0.5799 -0.4708
  197MOL    C5047482   4.932   6.567   4.034  0.3540  0.6857 -0.1791
  197MOL    C5147483   4.852   6.694   3.995 -0.1497  0.8177 -0.0409
  197MOL    C5247484   4.713   6.666   3.931 -0.3227 -0.3526 -0.1317
  197MOL    C5347485   4.706   6.612   3.784 -0.5709  0.2242 -0.1252
  197MOL    H5447486   4.956   6.512   3.943 -0.9365  0.6847 -0.5342
  197MOL    H5547487   5.025   6.599   4.081  0.1991  0.3055  0.3849
  197MOL    H5647488   4.831   6.741   4.092  1.6603  0.1089  0.7123
  197MOL    H5747489   4.649   6.754   3.934  1.7725  1.2744 -1.1234
  197MOL    H5847490   4.657   6.597   3.993 -2.0631 -1.6759 -3.0387
  197MOL    H5947491   4.758   6.518   3.796  0.7608  1.0427  0.5955
  197MOL    H6047492   4.600   6.603   3.760 -0.6721 -0.6321  0.6381
  197MOL    H6147493   4.754   6.678   3.710  0.5614 -0.3474  0.0883
  197MOL    C6247494   4.932   6.791   3.906 -0.0004  0.0754 -0.4322
  197MOL    C6347495   5.037   6.884   3.989 -0.6682 -0.2209 -0.5301
  197MOL    C6447496   4.964   6.997   4.070 -0.1333 -0.5099 -0.1752
  197MOL    C6547497   5.048   7.063   4.174  0.0950 -0.5557 -0.5689
  197MOL    H6647498   4.869   6.856   3.845 -0.1897 -0.0156 -0.3319
  197MOL    H6747499   4.989   6.739   3.829  0.5725  0.6873 -0.4321
  197MOL    H6847500   5.085   6.822   4.065 -0.3622  0.8304  0.1495
  197MOL    H6947501   4.877   6.959   4.124  0.5885  0.3612  1.6469
  197MOL    H7047502   4.921   7.068   4.000 -0.7115  1.4765  2.1175
  197MOL    H7147503   5.118   7.134   4.130  1.9060 -1.6606  0.4276
  197MOL    H7247504   4.980   7.128   4.228  1.5611  1.0293 -0.5865
  197MOL    H7347505   5.087   6.993   4.248 -1.0350  1.0569  1.5710
  197MOL    C7447506   5.139   6.958   3.894 -0.1425 -0.4464  0.2204
  197MOL    C7547507   5.247   6.873   3.820  0.3232 -0.7720 -0.0076
  197MOL    C7647508   5.331   6.784   3.914  0.6551 -0.1653  0.5898
  197MOL    C7747509   5.409   6.867   4.019 -0.4401 -0.2037 -0.9204
  197MOL    H7847510   5.200   7.030   3.949  2.2835 -1.6384 -0.8561
  197MOL    H7947511   5.085   7.017   3.821 -0.0829 -0.2949  0.2995
  197MOL    H8047512   5.203   6.796   3.756 -0.4196  0.1324 -0.5870
  197MOL    H8147513   5.400   6.716   3.862 -0.4269 -0.8137 -0.0267
  197MOL    H8247514   5.266   6.713   3.965 -2.3043  1.7930 -0.3613
  197MOL    H8347515   5.480   6.928   3.965 -0.9163  0.0590 -1.2542
  197MOL    H8447516   5.346   6.937   4.074  1.4577  0.0799  0.9620
  197MOL    H8547517   5.453   6.810   4.101 -0.4932  0.8576 -0.1427
  197MOL    C8647518   5.318   6.962   3.718 -0.0597  0.4804  0.0059
  197MOL    C8747519   5.424   6.890   3.623  0.4922  0.3675 -0.0674
  197MOL    C8847520   5.526   6.979   3.561  0.2298  0.8137  0.0362
  197MOL    C8947521   5.615   7.059   3.659  0.0244  0.1107  0.3004
  197MOL    H9047522   5.365   7.039   3.780 -0.3291  1.0670 -0.5040
  197MOL    H9147523   5.237   7.008   3.661 -0.6630 -0.3464  0.1903
  197MOL    H9247524   5.476   6.821   3.689  2.2282  0.3338 -1.4243
  197MOL    H9347525   5.482   7.054   3.495 -1.7638 -1.0055 -0.7608
  197MOL    H9447526   5.597   6.930   3.495 -0.1734  1.3728 -0.8234
  197MOL    H9547527   5.568   7.147   3.704  1.1051  1.1364 -0.5571
  197MOL    H9647528   5.654   6.998   3.741 -0.5402 -0.6863 -0.0218
  197MOL    H9747529   5.705   7.095   3.610  0.9758 -0.3128  1.7157
  197MOL    C9847530   5.350   6.805   3.515  0.1256  0.9003 -0.0217
  197MOL    C9947531   5.428   6.688   3.455  0.4734  0.5894 -0.4931
  197MOL   C10047532   5.334   6.623   3.348  0.5875 -0.2531  0.8802
  197MOL   C10147533   5.325   6.691   3.206 -0.0308  0.2592 -0.0750
  197MOL   H10247534   5.326   6.871   3.432 -3.4471 -1.1479 -0.7636
  197MOL   H10347535   5.255   6.767   3.552  0.0401 -1.4386 -2.4100
  197MOL   H10447536   5.520   6.727   3.411  2.0801 -2.4361  0.0689
  197MOL   H10547537   5.236   6.608   3.395  0.5739 -0.9629  0.6322
  197MOL   H10647538   5.352   6.516   3.331  0.6531  0.0255 -0.8760
  197MOL   H10747539   5.270   6.784   3.198  0.7773  0.6885 -0.7018
  197MOL   H10847540   5.424   6.695   3.159  0.1658 -4.5641 -0.3302
  197MOL   H10947541   5.273   6.617   3.145  1.5338  0.3004 -1.4988
  197MOL   C11047542   5.475   6.580   3.555  0.4711 -0.8335 -0.1781
  197MOL   C11147543   5.558   6.460   3.500  0.0021 -0.4248  0.0460
  197MOL   C11247544   5.498   6.338   3.578 -0.8440  0.1248  0.3538
  197MOL   C11347545   5.418   6.246   3.494 -0.8404  0.1532 -0.3525
  197MOL   H11447546   5.380   6.560   3.603  0.1835  0.0282 -0.3908
  197MOL   H11547547   5.528   6.629   3.636  0.5270  0.7155 -1.1410
  197MOL   H11647548   5.545   6.450   3.392  0.6197 -4.9288  0.2659
  197MOL   H11747549   5.461   6.365   3.677 -2.0181 -1.5143  0.3702
  197MOL   H11847550   5.581   6.280   3.618 -1.0172  0.2456  0.8872
  197MOL   H11947551   5.467   6.206   3.406  0.0565 -0.5513  0.4468
  197MOL   H12047552   5.396   6.155   3.551 -1.8666  0.6199 -0.0036
  197MOL   H12147553   5.325   6.299   3.475  0.2014  3.0291  2.1464
  197MOL   C12247554   5.706   6.475   3.515 -0.5305  0.1084  0.0884
  197MOL   C12347555   5.779   6.568   3.407 -0.2195  0.1392  0.9665
  197MOL   C12447556   5.755   6.522   3.262  0.6797  0.7039  0.3603
  197MOL   C12547557   5.794   6.380   3.235  0.1136 -0.0057  0.5819
  197MOL   H12647558   5.757   6.379   3.518 -3.6327 -1.6855 -1.7627
  197MOL   H12747559   5.730   6.511   3.615 -1.0379  2.0968 -0.4588
  197MOL   H12847560   5.733   6.666   3.415 -0.4639  0.0803  0.3527
  197MOL   H12947561   5.810   6.590   3.196  0.0430  0.4642 -0.4164
  197MOL   H13047562   5.651   6.538   3.234  0.3286 -1.0157  0.6622
  197MOL   H13147563   5.756   6.353   3.136  2.3592 -0.7912 -0.1077
  197MOL   H13247564   5.902   6.361   3.231  0.1438  0.3614 -0.3514
  197MOL   H13347565   5.741   6.315   3.304 -0.6395 -0.7158 -0.6535
  197MOL   C13447566   5.930   6.571   3.449 -0.1804  0.2416  0.2517
  197MOL   C13547567   6.026   6.692   3.391 -0.3605  0.8170 -0.1671
  197MOL   C13647568   6.102   6.625   3.278  0.6202 -0.3436 -0.0456
  197MOL   C13747569   6.157   6.723   3.178 -0.3231  0.7444 -0.0051
  197MOL   H13847570   5.960   6.470   3.420 -1.0100  0.7166 -2.4665
  197MOL   H13947571   5.928   6.582   3.557 -1.4653  0.5059  0.2079
  197MOL   H14047572   5.961   6.769   3.348  0.6138  1.5913 -0.2627
  197MOL   H14147573   6.035   6.559   3.222 -0.3783 -0.3619  1.1595
  197MOL   H14247574   6.187   6.573   3.322  0.0092 -2.2109 -1.0197
  197MOL   H14347575   6.210   6.661   3.106 -1.9379 -1.6047  0.7789
  197MOL   H14447576   6.087   6.787   3.123 -3.6125  0.4653  3.6398
  197MOL   H14547577   6.230   6.793   3.220 -0.4635  0.6780  0.3483
  197MOL   C14647578   6.113   6.745   3.508 -0.3401 -0.0674 -0.7419
  197MOL   C14747579   6.050   6.859   3.600 -0.8684 -0.0864 -0.1777
  197MOL   C14847580   6.005   6.989   3.521 -0.4722 -0.5799  0.1413
  197MOL   C14947581   6.099   7.037   3.411 -0.4287 -0.1270  0.3081
  197MOL   H15047582   6.200   6.784   3.456 -1.0551  1.4486 -0.8407
  197MOL   H15147583   6.153   6.665   3.570 -0.4985  0.3248 -0.1221
  197MOL   H15247584   5.964   6.809   3.643  0.0321 -0.8134  0.8151
  197MOL   H15347585   6.001   7.080   3.580 -1.1761  0.2305 -1.1183
  197MOL   H15447586   5.906   6.973   3.479 -0.4868 -0.8101  0.2675
  197MOL   H15547587   6.192   7.065   3.461  0.4722  2.8724 -2.9102
  197MOL   H15647588   6.121   6.965   3.333  0.4376 -0.5705  0.9404
  197MOL   H15747589   6.056   7.116   3.350 -1.1722 -0.1422  0.8029
  197MOL   C15847590   6.146   6.904   3.716  0.5806  0.2417 -0.4517
  197MOL   C15947591   6.078   6.975   3.831 -0.2606 -0.3348 -1.0178
  197MOL   C16047592   6.149   7.108   3.875 -0.2342  0.3022  0.0646
  197MOL   C16147593   6.285   7.085   3.948 -0.2462 -0.1889  0.0383
  197MOL   H16247594   6.232   6.964   3.686  0.1075  0.4125 -1.4665
  197MOL   H16347595   6.208   6.820   3.748  0.7842  0.6571  0.2599
  197MOL   H16447596   5.980   6.997   3.789 -0.8605  1.3872  1.2054
  197MOL   H16547597   6.087   7.174   3.935  0.2124  1.5456 -0.8281
  197MOL   H16647598   6.163   7.161   3.781 -0.1192 -1.7155 -1.0817
  197MOL   H16747599   6.327   6.993   3.907  2.7828  0.8262  0.7671
  197MOL   H16847600   6.351   7.171   3.946 -1.1772  0.5953  1.9533
  197MOL   H16947601   6.258   7.074   4.053 -1.0650 -0.3797 -0.1857
  197MOL   C17047602   6.049   6.876   3.953  0.0166  0.3894  0.4207
  197MOL   C17147603   5.960   6.755   3.934  0.0871 -0.0878 -0.0966
  197MOL   C17247604   5.813   6.790   3.933 -0.3420 -0.0528 -0.4248
  197MOL   C17347605   5.727   6.705   3.835 -0.0118 -0.6718  0.3482
  197MOL   H17447606   6.020   6.919   4.049 -2.3389 -1.6788  0.6702
  197MOL   H17547607   6.143   6.830   3.985 -1.0554 -2.5335 -0.4576
  197MOL   H17647608   5.988   6.714   3.837 -1.1559 -0.2454 -0.3908
  197MOL   H17747609   5.798   6.890   3.892  0.0397  0.3132  0.3272
  197MOL   H17847610   5.777   6.775   4.035 -1.3694  0.6187 -0.6842
  197MOL   H17947611   5.619   6.718   3.840  0.3878  2.4308  2.3344
  197MOL   H18047612   5.759   6.725   3.733  0.1507  2.5547  0.9899
  197MOL   H18147613   5.750   6.602   3.863 -0.9538 -1.3389 -1.2508
  197MOL   C18247614   5.994   6.639   4.037 -0.6105  0.0269  0.6872
  197MOL   C18347615   6.111   6.544   3.996 -0.1972  0.4739  0.8449
  197MOL   C18447616   6.065   6.464   3.866 -0.0148  0.7343 -0.7689
  197MOL   C18547617   5.951   6.365   3.874  0.8495  0.3381  0.2894
  197MOL   H18647618   5.905   6.581   4.058 -1.3958  0.6770 -0.7580
  197MOL   H18747619   6.016   6.687   4.132  0.9541  1.0062 -0.1478
  197MOL   H18847620   6.187   6.610   3.956 -0.5439 -0.9654 -2.4024
  197MOL   H18947621   6.148   6.405   3.827  1.0566  1.1793  0.7615
  197MOL   H19047622   6.046   6.533   3.784 -1.5816  1.5073  0.2033
  197MOL   H19147623   5.901   6.349   3.779  0.5438  1.7240  0.2149
  197MOL   H19247624   5.974   6.266   3.915  0.3494  0.3853  0.6970
  197MOL   H19347625   5.866   6.397   3.935 -0.3493  2.6195 -2.4733
  197MOL   C19447626   6.153   6.458   4.112 -0.0803 -0.6792 -0.5486
  197MOL   C19547627   6.283   6.371   4.099 -0.3112 -0.2247  0.5764
  197MOL   C19647628   6.289   6.241   4.190  0.7136  0.2471 -0.3098
  197MOL   C19747629   6.271   6.260   4.338  0.3831  0.2394 -0.0914
  197MOL   H19847630   6.075   6.392   4.151  0.6506 -1.1427  0.1421
  197MOL   H19947631   6.168   6.527   4.195  0.8247 -2.9007  1.2011
  197MOL   H20047632   6.285   6.335   3.996  0.7607 -1.2820  0.9580
  197MOL   H20147633   6.370   6.175   4.160  1.1029  1.0763 -1.0735
  197MOL   H20247634   6.199   6.182   4.169 -1.1720  3.0550 -0.4959
  197MOL   H20347635   6.294   6.168   4.390 -2.5288  0.4287  1.5941
  197MOL   H20447636   6.346   6.332   4.370  1.3612  0.6673 -3.1701
  197MOL   H20547637   6.173   6.293   4.372  0.4379  0.0659  0.2335
  197MOL   C20647638   6.417   6.452   4.103  0.5798  0.3701  0.1485
  197MOL   C20747639   6.552   6.380   4.079 -0.1145 -0.3470 -0.8048
  197MOL   C20847640   6.664   6.425   4.169  1.0639  0.1506  0.0364
  197MOL   C20947641   6.648   6.379   4.325 -0.1049  0.0839 -0.6385
  197MOL   H21047642   6.429   6.498   4.202  0.5255  0.0513  0.3021
  197MOL   H21147643   6.413   6.535   4.033 -0.9761  0.5882  0.4930
  197MOL   H21247644   6.539   6.274   4.105 -0.2182 -1.1321 -3.8683
  197MOL   H21347645   6.688   6.531   4.158 -2.5586  1.0072 -0.0545
  197MOL   H21447646   6.755   6.373   4.137  1.9499  1.3308  0.6053
  197MOL   H21547647   6.579   6.296   4.338  0.6597 -0.2118  1.6650
  197MOL   H21647648   6.746   6.353   4.366 -0.5261  0.3869  0.5777
  197MOL   H21747649   6.620   6.465   4.386 -2.4361 -0.9873 -0.1730
  197MOL   C21847650   6.601   6.376   3.932 -0.0532  0.1598  0.1894
  197MOL   C21947651   6.527   6.278   3.838  0.2699  0.5360  0.0103
  197MOL   C22047652   6.613   6.170   3.772  0.6113 -0.1236  0.3894
  197MOL   C22147653   6.675   6.074   3.876  0.0985  0.1513 -0.1711
  197MOL   H22247654   6.701   6.333   3.926  0.6595  1.9162 -0.9137
  197MOL   H22347655   6.613   6.475   3.889 -1.0852  0.2499  0.0965
  197MOL   H22447656   6.453   6.220   3.893  0.2821 -0.4007 -0.9398
  197MOL   H22547657   6.684   6.196   3.693  0.3196  0.1990  0.2295
  197MOL   H22647658   6.546   6.099   3.723  0.6330  0.8593 -1.1239
  197MOL   H22747659   6.603   6.057   3.956  0.8466  0.2805  0.5382
  197MOL   H22847660   6.684   5.971   3.844 -3.1914 -0.1965 -0.1132
  197MOL   H22947661   6.770   6.101   3.924  0.7430 -0.7747 -0.9099
  197MOL   C23047662   6.452   6.353   3.727  0.3112 -0.8826  0.3299
  197MOL   C23147663   6.346   6.269   3.641 -0.6455  0.0552 -0.6725
  197MOL   C23247664   6.295   6.348   3.521 -0.3187  0.2366 -0.0006
  197MOL   C23347665   6.215   6.256   3.429  0.0187  1.1221  0.1180
  197MOL   H23447666   6.518   6.410   3.662  0.1176 -1.4623 -0.3786
  197MOL   H23547667   6.389   6.427   3.777  1.4675  0.7169 -0.5339
  197MOL   H23647668   6.396   6.188   3.588  1.2601  0.3347  0.6792
  197MOL   H23747669   6.376   6.395   3.465  0.0553 -2.7288 -2.0754
  197MOL   H23847670   6.224   6.424   3.553 -0.9277  0.8553 -2.6632
  197MOL   H23947671   6.183   6.326   3.351  1.2465 -1.8911 -3.2387
  197MOL   H24047672   6.274   6.187   3.368  1.3558  1.9341  0.4774
  197MOL   H24147673   6.129   6.206   3.473 -1.4190  1.2417 -2.4642
  197MOL   H24247674   6.269   6.220   3.701  0.3045  0.9107  1.3006
  198MOL     C147675   6.021   5.434   7.061  0.6480 -0.0285  0.5489
  198MOL     C247676   5.987   5.512   6.936  0.1517 -0.8119 -0.3006
  198MOL     C347677   6.091   5.618   6.912  0.0781  0.1252 -0.1362
  198MOL     C447678   6.244   5.593   6.942 -0.1803  0.3253  0.0668
  198MOL     H547679   6.058   5.489   7.148  2.1122  0.3705 -0.3232
  198MOL     H647680   5.939   5.374   7.101 -0.8428  1.0143 -0.8626
  198MOL     H747681   5.988   5.441   6.854 -0.0815  0.2411 -1.2232
  198MOL     H847682   6.062   5.706   6.969  0.7162  0.2496  0.0079
  198MOL     H947683   6.071   5.647   6.809 -1.3620 -0.8194 -0.1373
  198MOL    H1047684   6.296   5.685   6.915 -2.9306  1.4351 -1.6772
  198MOL    H1147685   6.247   5.565   7.047 -0.6933 -0.7736 -0.2018
  198MOL    H1247686   6.274   5.515   6.871 -1.4648 -1.1103  1.0634
  198MOL    H1347687   6.099   5.362   7.037  0.5628 -0.8675  2.6443
  198MOL    C1447688   5.847   5.580   6.948  1.3003 -0.1509  0.3678
  198MOL    C1547689   5.733   5.521   6.869  0.1500  0.1168  0.7413
  198MOL    C1647690   5.708   5.374   6.898 -0.0210  0.2001  0.5317
  198MOL    C1747691   5.576   5.310   6.854  0.2068 -0.0896 -0.5166
  198MOL    H1847692   5.860   5.687   6.930  0.9309 -0.3624 -1.1600
  198MOL    H1947693   5.814   5.566   7.051 -0.9963 -0.1102 -0.3456
  198MOL    H2047694   5.643   5.577   6.892 -0.0055  0.1014  0.1911
  198MOL    H2147695   5.697   5.376   7.006  0.7064 -2.0587  0.6734
  198MOL    H2247696   5.795   5.309   6.893  0.9500  1.3216  2.4516
  198MOL    H2347697   5.579   5.203   6.875  0.0293 -0.0913 -0.4956
  198MOL    H2447698   5.487   5.359   6.892  0.1862  1.2363 -2.2308
  198MOL    H2547699   5.580   5.304   6.745 -0.6499 -0.2924 -0.5370
  198MOL    C2647700   5.751   5.536   6.715  0.6176  0.3390 -0.0927
  198MOL    C2747701   5.778   5.678   6.655 -0.2374 -0.6108  0.4455
  198MOL    C2847702   5.671   5.772   6.695  0.0629 -0.1369  0.2339
  198MOL    C2947703   5.688   5.918   6.669 -0.4302 -0.2858 -1.0770
  198MOL    H3047704   5.668   5.480   6.670 -0.7735 -0.0316  2.8177
  198MOL    H3147705   5.831   5.464   6.695  0.0745 -0.1752 -0.4514
  198MOL    H3247706   5.869   5.702   6.710  0.9483 -0.4569 -1.5540
  198MOL    H3347707   5.667   5.768   6.803 -2.4031 -1.2523  0.1427
  198MOL    H3447708   5.577   5.746   6.645 -0.3126  1.5935  0.0242
  198MOL    H3547709   5.612   5.976   6.721  1.1038  0.4275  0.4110
  198MOL    H3647710   5.793   5.940   6.690 -0.2098 -2.8457  0.8574
  198MOL    H3747711   5.679   5.932   6.561  1.1976  1.1786 -1.0519
  198MOL    C3847712   5.807   5.684   6.499 -0.5960 -0.0947 -0.7685
  198MOL    C3947713   5.935   5.628   6.454 -0.6571 -0.6142  0.1589
  198MOL    C4047714   6.049   5.734   6.468 -0.0298  0.0864  0.8294
  198MOL    C4147715   6.179   5.682   6.521  0.4492  1.1247  0.5266
  198MOL    H4247716   5.784   5.776   6.445  1.5066  0.0940 -1.3817
  198MOL    H4347717   5.727   5.626   6.453  0.0304 -0.7628 -1.0270
  198MOL    H4447718   5.969   5.549   6.521  0.9767  2.5505  3.2159
  198MOL    H4547719   6.015   5.814   6.534 -1.9939  0.2452 -0.3301
  198MOL    H4647720   6.069   5.793   6.379  0.5020 -1.5134 -0.1316
  198MOL    H4747721   6.154   5.602   6.591  0.6142  1.2955  0.7768
  198MOL    H4847722   6.234   5.634   6.441 -0.6099  0.7940 -0.0212
  198MOL    H4947723   6.250   5.755   6.558  1.7793  0.4872 -0.7059
  198MOL    C5047724   5.941   5.586   6.310  0.2936  0.0014  0.2903
  198MOL    C5147725   5.878   5.447   6.270 -0.5916  0.6130 -0.6330
  198MOL    C5247726   5.972   5.332   6.323 -0.2549  0.5158 -0.4105
  198MOL    C5347727   5.897   5.202   6.331  0.7598 -0.0490  0.3732
  198MOL    H5447728   6.048   5.584   6.286  0.2370 -1.8408  0.1636
  198MOL    H5547729   5.909   5.668   6.245  2.7961  0.2022 -0.7581
  198MOL    H5647730   5.784   5.444   6.325 -1.7833  2.0771 -2.5253
  198MOL    H5747731   6.002   5.356   6.425 -3.5197 -0.1174  0.7599
  198MOL    H5847732   6.064   5.324   6.265 -0.1684 -0.1150 -0.1911
  198MOL    H5947733   5.857   5.169   6.234  1.9408  0.9323 -0.4645
  198MOL    H6047734   5.954   5.116   6.368  0.7201 -0.2405 -0.0020
  198MOL    H6147735   5.810   5.222   6.392  0.2533  0.5038 -0.5134
  198MOL    C6247736   5.843   5.436   6.118  0.0306  0.1074 -0.0163
  198MOL    C6347737   5.741   5.542   6.052  0.0938  0.0718 -0.4808
  198MOL    C6447738   5.600   5.533   6.119  0.1528 -0.0425  0.6249
  198MOL    C6547739   5.473   5.589   6.045 -0.3201 -0.1085  0.0622
  198MOL    H6647740   5.808   5.334   6.109  0.8783 -0.1472 -0.4359
  198MOL    H6747741   5.935   5.427   6.060 -1.1092 -0.7575 -1.7126
  198MOL    H6847742   5.775   5.644   6.067 -1.1024  0.6219 -1.4533
  198MOL    H6947743   5.610   5.567   6.222  1.0253  0.2443  0.4481
  198MOL    H7047744   5.578   5.426   6.124 -1.4247  0.1314 -1.5208
  198MOL    H7147745   5.436   5.527   5.963  1.5545 -0.1683 -0.7622
  198MOL    H7247746   5.397   5.598   6.122  0.9138 -0.2135  1.3009
  198MOL    H7347747   5.495   5.689   6.008  0.2099 -0.2901 -0.1131
  198MOL    C7447748   5.737   5.505   5.910  0.0713  0.2651  0.0648
  198MOL    C7547749   5.830   5.593   5.827  0.6486 -0.4323 -0.2867
  198MOL    C7647750   5.832   5.553   5.667  0.4088  0.1150 -0.2679
  198MOL    C7747751   5.743   5.651   5.593 -0.1314 -0.7901 -0.6972
  198MOL    H7847752   5.635   5.498   5.873 -0.2387 -1.0470  1.1036
  198MOL    H7947753   5.775   5.404   5.895  2.4998  1.1147  0.3316
  198MOL    H8047754   5.800   5.697   5.836  3.9493  0.5809 -0.5111
  198MOL    H8147755   5.770   5.463   5.659 -3.0680  2.1634  1.8734
  198MOL    H8247756   5.929   5.529   5.625  1.0441  0.1403  1.1567
  198MOL    H8347757   5.800   5.727   5.539  2.3085 -2.0265  0.0412
  198MOL    H8447758   5.701   5.595   5.510  1.4444 -2.0451 -0.6637
  198MOL    H8547759   5.668   5.695   5.658  0.5929  2.0858 -1.7444
  198MOL    C8647760   5.978   5.602   5.869 -0.2456  0.0484 -0.1045
  198MOL    C8747761   6.067   5.711   5.802  0.9014 -0.0259 -0.2502
  198MOL    C8847762   6.209   5.699   5.859  0.0898 -0.4820 -0.7755
  198MOL    C8947763   6.286   5.569   5.831 -0.1248  0.1641 -0.2081
  198MOL    H9047764   6.010   5.498   5.862 -3.2745 -0.9224 -0.4710
  198MOL    H9147765   5.967   5.641   5.971 -0.9667 -1.4656  0.4254
  198MOL    H9247766   6.075   5.693   5.694  0.4028  1.2297 -0.5118
  198MOL    H9347767   6.211   5.727   5.964  2.9828 -0.5139 -0.7829
  198MOL    H9447768   6.271   5.778   5.817  0.6829 -0.1206  0.7401
  198MOL    H9547769   6.291   5.539   5.727 -1.6014 -0.1716 -0.1841
  198MOL    H9647770   6.387   5.582   5.870 -1.5493  0.9274  3.4045
  198MOL    H9747771   6.239   5.486   5.884 -0.7131  1.1241  0.7921
  198MOL    C9847772   6.009   5.853   5.826  0.6795 -0.1775  0.1240
  198MOL    C9947773   6.079   5.973   5.757  0.0584 -0.2296 -0.7098
  198MOL   C10047774   6.020   6.106   5.821 -0.1119  0.1902 -0.0304
  198MOL   C10147775   6.121   6.217   5.816  0.0786 -0.1492 -0.0031
  198MOL   H10247776   6.008   5.868   5.934 -0.3136 -0.0704  0.1113
  198MOL   H10347777   5.908   5.864   5.785  0.4888  0.7128  0.8243
  198MOL   H10447778   6.183   5.966   5.787 -0.6462  3.7662  3.2020
  198MOL   H10547779   5.983   6.093   5.922 -0.5344 -0.3424 -0.2532
  198MOL   H10647780   5.932   6.136   5.765  1.0985  1.1830 -1.4397
  198MOL   H10747781   6.163   6.234   5.717  0.3263  1.5768  0.3824
  198MOL   H10847782   6.071   6.308   5.850 -1.4192 -0.4476 -1.3455
  198MOL   H10947783   6.212   6.190   5.870  0.1865 -0.5948 -0.4019
  198MOL   C11047784   6.077   5.970   5.605  0.0502 -0.5234 -0.1091
  198MOL   C11147785   6.177   5.887   5.526 -0.1804  0.9083 -0.0186
  198MOL   C11247786   6.301   5.963   5.477 -0.2520  0.1029  0.1455
  198MOL   C11347787   6.403   6.005   5.593 -0.0149 -0.4036  0.4517
  198MOL   H11447788   6.082   6.071   5.566 -0.8796 -0.0354  1.0174
  198MOL   H11547789   5.975   5.938   5.583 -0.6357  0.7015  1.2195
  198MOL   H11647790   6.229   5.816   5.590 -0.7252  2.1301  1.7985
  198MOL   H11747791   6.279   6.045   5.408 -1.0452  0.0384  0.3184
  198MOL   H11847792   6.365   5.896   5.420  1.2836  0.9370  0.8391
  198MOL   H11947793   6.352   6.071   5.664  0.1889 -2.1667  2.2992
  198MOL   H12047794   6.444   5.922   5.651  1.5041 -0.4694 -0.6997
  198MOL   H12147795   6.489   6.061   5.558  0.0052 -0.6195  0.1596
  198MOL   C12247796   6.102   5.812   5.416  0.0532 -0.3527 -0.0688
  198MOL   C12347797   6.180   5.703   5.334 -0.4758 -0.6910 -0.6483
  198MOL   C12447798   6.079   5.630   5.231  0.0201 -0.3782 -0.1069
  198MOL   C12547799   5.975   5.528   5.284 -0.5619  0.4955  0.1511
  198MOL   H12647800   6.073   5.879   5.335  1.5564  3.0110  2.0876
  198MOL   H12747801   6.022   5.760   5.468 -0.3550  0.7745  0.4528
  198MOL   H12847802   6.250   5.755   5.268 -1.7713 -0.6371 -2.0275
  198MOL   H12947803   6.131   5.577   5.150  1.4980  0.3204  0.3611
  198MOL   H13047804   6.026   5.708   5.178 -0.4205  0.8401  2.0901
  198MOL   H13147805   5.908   5.490   5.207  0.7370 -1.5910  0.0002
  198MOL   H13247806   6.021   5.436   5.320 -0.3693  0.2695 -0.6573
  198MOL   H13347807   5.912   5.576   5.359 -1.0364  0.5658 -0.2877
  198MOL   C13447808   6.254   5.589   5.419  0.7045 -1.0714 -0.0093
  198MOL   C13547809   6.353   5.504   5.344  0.2649  0.4233 -0.9624
  198MOL   C13647810   6.359   5.366   5.415  0.4783  0.1267 -0.2994
  198MOL   C13747811   6.238   5.268   5.398  0.2304  0.3343  0.0198
  198MOL   H13847812   6.187   5.520   5.470 -0.9276 -0.3095 -1.0562
  198MOL   H13947813   6.315   5.632   5.498 -0.5675 -0.2893  0.5738
  198MOL   H14047814   6.302   5.483   5.250 -3.9087  2.7775  0.6191
  198MOL   H14147815   6.389   5.375   5.520  2.3091  0.7590 -0.8688
  198MOL   H14247816   6.436   5.309   5.364  0.1514  1.1667 -2.0070
  198MOL   H14347817   6.197   5.241   5.301  2.8173 -3.3033 -0.1771
  198MOL   H14447818   6.280   5.180   5.447  1.3719  0.9950  0.2642
  198MOL   H14547819   6.149   5.304   5.449 -0.5161  1.3289 -1.9151
  198MOL   C14647820   6.488   5.579   5.323 -0.4475 -0.6650  0.3857
  198MOL   C14747821   6.608   5.498   5.259  0.0356  0.4111 -0.2335
  198MOL   C14847822   6.696   5.412   5.360 -0.5658  0.2037 -0.1736
  198MOL   C14947823   6.774   5.500   5.463 -0.3519 -0.0935 -0.3192
  198MOL   H15047824   6.524   5.622   5.416 -0.3770 -0.6285  0.3420
  198MOL   H15147825   6.464   5.672   5.270  2.1197 -0.0657  0.2218
  198MOL   H15247826   6.573   5.418   5.194 -1.9060 -0.0509  1.3371
  198MOL   H15347827   6.774   5.366   5.299 -0.3777  1.0630 -0.6006
  198MOL   H15447828   6.650   5.328   5.411 -0.6921  0.4595  0.1344
  198MOL   H15547829   6.728   5.564   5.537 -0.1400 -0.7978  0.4280
  198MOL   H15647830   6.850   5.438   5.510 -1.7144 -2.0742 -0.6565
  198MOL   H15747831   6.832   5.575   5.409  2.1891 -1.7382  0.0027
  198MOL   C15847832   6.701   5.595   5.174  0.4837  0.3065 -0.2986
  198MOL   C15947833   6.639   5.640   5.040  0.5573 -0.5366 -0.1378
  198MOL   C16047834   6.668   5.550   4.919 -0.5791 -0.0012  0.2885
  198MOL   C16147835   6.563   5.568   4.804 -0.1982 -0.4753 -0.6930
  198MOL   H16247836   6.800   5.551   5.164  0.5165  0.6802 -1.7155
  198MOL   H16347837   6.736   5.679   5.234  1.9932 -0.2354 -0.3856
  198MOL   H16447838   6.532   5.651   5.056  0.4710 -1.4623 -0.0511
  198MOL   H16547839   6.660   5.452   4.965 -1.6266 -0.4656 -0.8517
  198MOL   H16647840   6.772   5.551   4.887 -0.5750  2.4658  0.2928
  198MOL   H16747841   6.550   5.475   4.749  2.7496 -1.4033  0.0742
  198MOL   H16847842   6.462   5.585   4.842  0.5283  1.7194  0.3436
  198MOL   H16947843   6.589   5.653   4.741  0.5999  0.5245  0.9538
  198MOL   C17047844   6.704   5.785   5.002  0.4439  0.3231  0.0855
  198MOL   C17147845   6.646   5.904   5.080  0.0077  1.1693  0.2647
  198MOL   C17247846   6.505   5.930   5.023  0.0333  0.3064 -0.3276
  198MOL   C17347847   6.418   6.036   5.092 -0.9006 -0.1020  0.1494
  198MOL   H17447848   6.690   5.801   4.895  0.4011 -1.1379 -0.1246
  198MOL   H17547849   6.813   5.785   5.012  0.3787  1.3609  0.9074
  198MOL   H17647850   6.645   5.874   5.185  3.3846  0.2816  0.1088
  198MOL   H17747851   6.441   5.842   5.025 -0.8608  0.9508 -0.6212
  198MOL   H17847852   6.512   5.955   4.917 -2.3205  1.0230 -0.3372
  198MOL   H17947853   6.313   6.041   5.061 -0.9943 -0.6296  0.3712
  198MOL   H18047854   6.432   6.039   5.200 -2.4456 -1.6055  0.4197
  198MOL   H18147855   6.469   6.131   5.075  0.4023 -1.0707 -1.4527
  198MOL   C18247856   6.732   6.027   5.077 -0.9293  0.3133 -0.5328
  198MOL   C18347857   6.859   6.019   5.166 -0.1456 -0.2247  0.8435
  198MOL   C18447858   6.837   5.976   5.321 -0.0966 -0.9126 -0.4072
  198MOL   C18547859   6.738   6.064   5.403  0.1737 -0.4962  0.0277
  198MOL   H18647860   6.674   6.109   5.120 -0.4146  0.8874 -0.9178
  198MOL   H18747861   6.754   6.050   4.973  2.0813 -1.7199 -0.3912
  198MOL   H18847862   6.929   5.946   5.125  1.6566  1.3146  1.0802
  198MOL   H18947863   6.927   5.984   5.382 -2.5489  0.2657  3.2689
  198MOL   H19047864   6.810   5.871   5.334  0.9590 -1.1646 -0.1974
  198MOL   H19147865   6.770   6.162   5.439 -2.2604  0.7319 -1.0192
  198MOL   H19247866   6.652   6.065   5.337 -0.0869  1.2362  0.3575
  198MOL   H19347867   6.715   6.005   5.493  2.4237  1.0105  1.6472
  198MOL   C19447868   6.927   6.157   5.157 -0.2364 -0.4157 -0.2902
  198MOL   C19547869   7.012   6.188   5.031 -0.1157 -0.8547 -0.5340
  198MOL   C19647870   7.126   6.084   5.024  0.3805  0.7705  0.6173
  198MOL   C19747871   7.099   5.991   4.911  0.0078  0.5676  0.2236
  198MOL   H19847872   6.994   6.168   5.243 -0.7462  0.4573  0.0046
  198MOL   H19947873   6.852   6.236   5.164 -1.8068 -1.9522  0.6762
  198MOL   H20047874   6.939   6.187   4.951 -2.3464 -2.8806  1.4152
  198MOL   H20147875   7.139   6.034   5.120 -0.8068 -0.9582 -0.0983
  198MOL   H20247876   7.218   6.134   4.994  0.6949  0.7331  1.5077
  198MOL   H20347877   7.003   5.943   4.929  0.0502 -0.0825 -1.2350
  198MOL   H20447878   7.112   6.039   4.814  0.3124 -1.3098 -0.6925
  198MOL   H20547879   7.175   5.914   4.905 -0.4494  0.1930 -0.8320
  198MOL   C20647880   7.067   6.335   5.044 -0.0913  0.5648  0.0232
  198MOL   C20747881   7.122   6.406   4.919 -0.9119  0.5491  0.7029
  198MOL   C20847882   7.124   6.563   4.948 -0.4363 -0.4530 -0.5566
  198MOL   C20947883   7.182   6.600   5.081  0.3732 -0.2346 -0.0503
  198MOL   H21047884   7.133   6.336   5.131 -2.7514 -3.4166  2.2537
  198MOL   H21147885   6.976   6.385   5.077 -1.7397 -1.7240 -0.9695
  198MOL   H21247886   7.225   6.372   4.909 -1.3399 -0.6479  0.2695
  198MOL   H21347887   7.021   6.597   4.948  0.2715  1.8089 -0.6043
  198MOL   H21447888   7.177   6.618   4.871 -1.2092  0.8435 -0.1664
  198MOL   H21547889   7.281   6.557   5.096  0.3788 -0.5762 -1.0668
  198MOL   H21647890   7.201   6.707   5.083  0.2201 -0.2254  1.7983
  198MOL   H21747891   7.113   6.584   5.165  2.1316 -1.7286  1.1445
  198MOL   C21847892   7.056   6.373   4.788  0.6332  0.6205  0.5301
  198MOL   C21947893   7.116   6.430   4.662  0.0112 -0.0041  0.2736
  198MOL   C22047894   7.039   6.396   4.533  0.0722 -0.0688 -0.1811
  198MOL   C22147895   7.092   6.471   4.405 -0.1694  0.3766 -0.1235
  198MOL   H22247896   6.951   6.396   4.810 -0.1781 -1.4232 -1.0512
  198MOL   H22347897   7.056   6.267   4.763 -0.0350  1.4427 -3.3019
  198MOL   H22447898   7.112   6.539   4.664  2.1916  0.1085 -0.7393
  198MOL   H22547899   6.933   6.417   4.538  0.0499  0.2189 -1.5465
  198MOL   H22647900   7.050   6.291   4.504  0.3792 -0.1869  0.3521
  198MOL   H22747901   7.174   6.415   4.362 -0.3175  0.9758 -1.2104
  198MOL   H22847902   7.017   6.457   4.327 -0.6202 -2.3195  0.7388
  198MOL   H22947903   7.109   6.579   4.411 -0.4757  0.3337  1.6513
  198MOL   C23047904   7.269   6.404   4.646  0.1045  0.2920 -0.2304
  198MOL   C23147905   7.307   6.258   4.625  0.2616  0.4446 -0.3182
  198MOL   C23247906   7.444   6.240   4.554 -0.2976  1.0433  0.1400
  198MOL   C23347907   7.514   6.105   4.573  0.4012 -0.7276  0.2813
  198MOL   H23447908   7.328   6.454   4.723 -0.0989 -0.8477  0.6884
  198MOL   H23547909   7.305   6.463   4.563 -2.5548 -1.9618 -3.1091
  198MOL   H23647910   7.310   6.194   4.713 -1.0579 -1.2507 -1.4835
  198MOL   H23747911   7.515   6.321   4.574  0.2288  0.8031 -0.7322
  198MOL   H23847912   7.429   6.235   4.447  0.9008 -0.1107  0.0185
  198MOL   H23947913   7.467   6.018   4.527 -0.3040 -1.0738  1.6419
  198MOL   H24047914   7.620   6.113   4.549  0.0788 -1.8233 -1.6587
  198MOL   H24147915   7.523   6.093   4.681  1.8597  0.1138  0.2671
  198MOL   H24247916   7.236   6.203   4.563 -0.2324 -1.3282  1.7754
  199MOL     C147917   3.732   0.487   5.830  0.3932  0.4908  0.0995
  199MOL     C247918   3.789   0.543   5.700 -0.5782  0.2564 -0.6450
  199MOL     C347919   3.929   0.484   5.662  0.4084  0.9368 -0.6662
  199MOL     C447920   3.931   0.334   5.637  0.5511 -0.8032 -0.7615
  199MOL     H547921   3.718   0.379   5.828  0.3855  0.5015 -0.6310
  199MOL     H647922   3.792   0.512   5.918  1.3777  1.6591 -0.8730
  199MOL     H747923   3.720   0.509   5.622 -0.5580  1.3581 -1.1469
  199MOL     H847924   4.001   0.517   5.737  0.7706  1.3261 -1.1869
  199MOL     H947925   3.945   0.537   5.568 -0.4075  0.6611 -0.9673
  199MOL    H1047926   3.853   0.307   5.566  0.2370  1.1774 -1.1943
  199MOL    H1147927   4.025   0.311   5.587  0.5578  2.1028 -2.1660
  199MOL    H1247928   3.920   0.276   5.728 -0.5686 -1.6248 -1.4112
  199MOL    H1347929   3.632   0.523   5.852 -0.4829 -1.3405 -0.8233
  199MOL    C1447930   3.787   0.692   5.702 -0.0667  0.5417 -0.1082
  199MOL    C1547931   3.650   0.761   5.670  0.6717  0.4449  0.9589
  199MOL    C1647932   3.644   0.823   5.529 -0.1510 -0.3274  0.5412
  199MOL    C1747933   3.708   0.960   5.500  0.1298 -0.3178 -0.7175
  199MOL    H1847934   3.867   0.735   5.642  0.4620  0.0950  0.2747
  199MOL    H1947935   3.806   0.712   5.808 -1.4520  0.5073  0.1696
  199MOL    H2047936   3.574   0.683   5.672 -0.4360  1.4734 -0.4347
  199MOL    H2147937   3.537   0.834   5.511 -0.2387 -1.3585  0.3856
  199MOL    H2247938   3.681   0.749   5.458 -0.2628 -0.7371  0.9059
  199MOL    H2347939   3.673   1.038   5.567 -0.5762 -1.8720  0.7581
  199MOL    H2447940   3.817   0.958   5.490  0.5190  0.4473  2.8339
  199MOL    H2547941   3.666   0.984   5.402 -0.2464  2.6484  0.1349
  199MOL    C2647942   3.616   0.862   5.784 -0.6602  0.4227  0.1550
  199MOL    C2747943   3.468   0.907   5.791  0.0666 -0.1273 -0.0094
  199MOL    C2847944   3.460   1.033   5.871 -0.3786  0.4238 -0.1037
  199MOL    C2947945   3.485   1.153   5.775  0.8532  0.1421  0.6788
  199MOL    H3047946   3.679   0.948   5.766  0.6076 -0.8191 -1.5654
  199MOL    H3147947   3.657   0.830   5.880  0.6870 -0.1733 -0.6064
  199MOL    H3247948   3.431   0.919   5.689 -0.1503  0.7818  0.1750
  199MOL    H3347949   3.528   1.052   5.954  0.0148  0.3237 -0.4032
  199MOL    H3447950   3.362   1.049   5.916 -1.4794  1.9337 -2.9021
  199MOL    H3547951   3.396   1.161   5.711  1.6357  0.9687 -0.3226
  199MOL    H3647952   3.488   1.250   5.824  1.4255 -0.2909  1.5054
  199MOL    H3747953   3.566   1.142   5.703  1.7562  0.3841  1.6636
  199MOL    C3847954   3.386   0.794   5.857 -0.4003 -0.2683  0.4123
  199MOL    C3947955   3.288   0.729   5.756 -0.1515 -0.4866  0.0349
  199MOL    C4047956   3.179   0.833   5.715 -0.4354 -0.2901  0.4210
  199MOL    C4147957   3.120   0.797   5.577  0.0056 -0.4253  0.3432
  199MOL    H4247958   3.314   0.833   5.928 -1.0764  1.2578 -1.0801
  199MOL    H4347959   3.436   0.717   5.917 -0.7844 -2.0857 -1.5318
  199MOL    H4447960   3.356   0.707   5.673 -0.1864  0.3986 -0.2299
  199MOL    H4547961   3.211   0.937   5.715 -3.9417  0.8541 -1.6158
  199MOL    H4647962   3.102   0.837   5.792 -2.5313 -1.9298 -1.5457
  199MOL    H4747963   3.103   0.696   5.542 -0.5468 -0.8726  1.8657
  199MOL    H4847964   3.020   0.839   5.576 -0.1254 -0.6700  2.1217
  199MOL    H4947965   3.173   0.845   5.494 -0.4307 -1.6076 -0.6381
  199MOL    C5047966   3.223   0.603   5.821  0.4024 -0.0873  0.4931
  199MOL    C5147967   3.318   0.484   5.830 -0.5662 -0.3870  0.6707
  199MOL    C5247968   3.378   0.435   5.693  0.0883 -0.5121 -0.2388
  199MOL    C5347969   3.444   0.299   5.679  0.5353  0.1523  0.2761
  199MOL    H5447970   3.145   0.572   5.752  1.2039 -3.2566  0.9187
  199MOL    H5547971   3.174   0.626   5.915 -3.3194 -0.0186 -1.3944
  199MOL    H5647972   3.409   0.519   5.879 -0.7651 -0.6097  1.1937
  199MOL    H5747973   3.456   0.507   5.666 -0.5858  1.2695  2.3901
  199MOL    H5847974   3.299   0.443   5.618 -0.4505 -0.2654  0.3531
  199MOL    H5947975   3.500   0.293   5.586  0.2063  1.6573 -0.0443
  199MOL    H6047976   3.514   0.284   5.761  1.2860  1.3328 -0.1399
  199MOL    H6147977   3.369   0.220   5.685 -0.7167  1.3784  1.1708
  199MOL    C6247978   3.243   0.377   5.909  0.8267 -0.5872  0.2551
  199MOL    C6347979   3.243   0.378   6.061 -0.1829 -0.2550 -0.9279
  199MOL    C6447980   3.383   0.370   6.124  0.4337 -0.0344  0.5980
  199MOL    C6547981   3.430   0.227   6.144  0.0575 -0.0419 -0.4399
  199MOL    H6647982   3.303   0.286   5.895  1.8022  0.0607  0.1730
  199MOL    H6747983   3.147   0.357   5.862  0.6869  0.5047  0.0736
  199MOL    H6847984   3.198   0.472   6.093  0.2062 -0.3618 -0.0252
  199MOL    H6947985   3.376   0.419   6.220  3.9603 -0.4616  1.1275
  199MOL    H7047986   3.457   0.424   6.065  0.6594 -2.2823 -1.2655
  199MOL    H7147987   3.537   0.236   6.163 -0.0157  0.6119 -0.3137
  199MOL    H7247988   3.391   0.173   6.229 -0.5242  0.6063 -0.2937
  199MOL    H7347989   3.418   0.160   6.058 -0.2928  0.7930 -1.0465
  199MOL    C7447990   3.137   0.278   6.124  0.2175  0.1337 -0.7331
  199MOL    C7547991   3.127   0.273   6.282  0.0388  0.0556 -0.4338
  199MOL    C7647992   3.051   0.142   6.317  0.4072  0.5016  0.5069
  199MOL    C7747993   2.899   0.145   6.288 -0.2633 -0.4469 -0.2170
  199MOL    H7847994   3.152   0.178   6.084 -2.1460 -0.4600 -0.2416
  199MOL    H7947995   3.036   0.309   6.096 -0.9139 -0.1031  2.8802
  199MOL    H8047996   3.228   0.276   6.322  0.1599  0.3588 -0.7599
  199MOL    H8147997   3.074   0.115   6.420  0.8343  0.3512  0.3743
  199MOL    H8247998   3.102   0.068   6.256  2.2814 -0.9954  3.7455
  199MOL    H8347999   2.838   0.215   6.346  0.9856  0.6123 -0.1614
  199MOL    H8448000   2.877   0.157   6.182  1.0130 -1.3667 -0.5964
  199MOL    H8548001   2.853   0.050   6.314 -1.9748  0.6275  0.7937
  199MOL    C8648002   3.052   0.396   6.350 -0.5650  0.1523 -0.5859
  199MOL    C8748003   3.064   0.391   6.506  0.6517 -0.1271  0.2991
  199MOL    C8848004   2.971   0.498   6.572 -0.2385 -0.3792  0.3068
  199MOL    C8948005   2.963   0.502   6.723 -0.8091 -0.4868  0.3107
  199MOL    H9048006   2.949   0.400   6.314 -0.7305 -1.0328 -0.2800
  199MOL    H9148007   3.096   0.487   6.310  0.3876  0.3448  0.8488
  199MOL    H9248008   3.021   0.294   6.534 -1.3229  0.3005 -1.1286
  199MOL    H9348009   2.872   0.468   6.537 -0.4662  0.7154  0.0063
  199MOL    H9448010   2.988   0.599   6.535  1.9266 -0.2993  1.4509
  199MOL    H9548011   2.896   0.582   6.754 -2.4360 -1.1910 -1.3557
  199MOL    H9648012   2.934   0.409   6.771  0.1905 -2.6771 -3.1580
  199MOL    H9748013   3.064   0.527   6.756 -0.7315 -1.3500  0.7534
  199MOL    C9848014   3.212   0.394   6.557 -0.9128  0.1216 -0.0398
  199MOL    C9948015   3.306   0.512   6.516 -0.0072  0.4758  0.2741
  199MOL   C10048016   3.450   0.472   6.506  1.5646 -0.2283  0.1432
  199MOL   C10148017   3.520   0.457   6.645  0.3034 -0.4483  0.0979
  199MOL   H10248018   3.259   0.300   6.531 -1.4979  0.3539 -2.0061
  199MOL   H10348019   3.207   0.386   6.666  2.0327  0.8042  0.1920
  199MOL   H10448020   3.279   0.532   6.412 -0.9276 -1.7638  0.0485
  199MOL   H10548021   3.499   0.547   6.444  1.4079  1.2745  1.8029
  199MOL   H10648022   3.459   0.380   6.448  2.3680 -2.4130  3.5679
  199MOL   H10748023   3.619   0.415   6.626 -0.3002 -1.1315 -1.7087
  199MOL   H10848024   3.529   0.560   6.680 -0.1279  0.0291 -1.1555
  199MOL   H10948025   3.472   0.392   6.718 -3.0082  0.2839 -1.3280
  199MOL   C11048026   3.283   0.646   6.590 -0.4527  0.6507  0.4448
  199MOL   C11148027   3.366   0.773   6.550  0.0504 -0.3624 -0.4025
  199MOL   C11248028   3.356   0.880   6.663 -0.2557 -0.6024 -0.0957
  199MOL   C11348029   3.437   0.861   6.795 -0.2588  0.4480  0.4895
  199MOL   H11448030   3.308   0.622   6.693  0.7775 -0.8145 -0.1752
  199MOL   H11548031   3.176   0.670   6.585 -1.5479 -3.8656 -0.1049
  199MOL   H11648032   3.469   0.743   6.532  0.3838  0.2077  0.5439
  199MOL   H11748033   3.251   0.885   6.689 -0.4031 -3.3736  0.0499
  199MOL   H11848034   3.380   0.978   6.622  1.3601 -1.3030 -0.8958
  199MOL   H11948035   3.418   0.759   6.827 -0.3246 -0.0982 -1.2487
  199MOL   H12048036   3.540   0.843   6.763 -0.5885 -2.4327  0.9826
  199MOL   H12148037   3.429   0.948   6.860  0.3619  2.8690 -2.5050
  199MOL   C12248038   3.315   0.825   6.413  0.1731 -0.0402  0.2511
  199MOL   C12348039   3.411   0.910   6.328 -0.5974 -0.3489 -0.3835
  199MOL   C12448040   3.334   0.995   6.224 -0.0422  0.3510 -0.4490
  199MOL   C12548041   3.268   1.123   6.293 -0.1083  0.2644  0.4208
  199MOL   H12648042   3.225   0.882   6.435  0.6751  0.8186  0.1392
  199MOL   H12748043   3.282   0.751   6.341 -2.1572  1.2208 -0.0358
  199MOL   H12848044   3.455   0.990   6.388 -2.6019  2.5832 -2.6992
  199MOL   H12948045   3.262   0.941   6.162 -2.4031  1.7124  1.0039
  199MOL   H13048046   3.406   1.028   6.149  0.7894 -1.2622 -0.3971
  199MOL   H13148047   3.187   1.160   6.230  1.5661  1.9524 -0.7761
  199MOL   H13248048   3.237   1.105   6.396 -0.7294  1.5258  0.4589
  199MOL   H13348049   3.333   1.210   6.282 -0.6666  0.5135 -0.9723
  199MOL   C13448050   3.539   0.836   6.277 -0.0538 -0.1833  0.1241
  199MOL   C13548051   3.667   0.920   6.275  0.0549  0.5398  0.1730
  199MOL   C13648052   3.762   0.841   6.189  0.1554 -0.1017  0.5702
  199MOL   C13748053   3.837   0.944   6.099 -0.1692 -0.4412 -0.2772
  199MOL   H13848054   3.510   0.791   6.182  2.5973 -1.7883  0.0198
  199MOL   H13948055   3.551   0.745   6.336  1.9979  0.5997  0.9716
  199MOL   H14048056   3.641   1.015   6.229  1.8188  0.3615 -1.2052
  199MOL   H14148057   3.715   0.768   6.123  2.2053  0.8905 -2.0739
  199MOL   H14248058   3.832   0.783   6.248  2.2262 -0.4704 -2.1393
  199MOL   H14348059   3.771   0.960   6.015  1.2036  2.5818 -0.8556
  199MOL   H14448060   3.855   1.040   6.147 -0.6877  0.2311 -1.4298
  199MOL   H14548061   3.931   0.908   6.057  1.0065 -1.2030  2.7894
  199MOL   C14648062   3.712   0.937   6.424 -0.0135 -0.3353 -0.0795
  199MOL   C14748063   3.767   1.080   6.461  0.1088 -0.2041  0.1571
  199MOL   C14848064   3.840   1.082   6.600  0.7529 -0.2098 -0.4773
  199MOL   C14948065   3.962   1.000   6.610 -0.0965 -0.7347  1.1162
  199MOL   H15048066   3.789   0.863   6.448  0.3709  0.0904  0.0103
  199MOL   H15148067   3.636   0.912   6.497  1.4472  1.8035  2.2511
  199MOL   H15248068   3.846   1.103   6.389  2.4341 -0.6262  2.4593
  199MOL   H15348069   3.766   1.043   6.669  0.3537 -1.0191 -1.3482
  199MOL   H15448070   3.868   1.183   6.629  0.0467 -0.9206  2.8311
  199MOL   H15548071   3.931   0.895   6.604 -1.7285 -0.1516 -0.8019
  199MOL   H15648072   4.042   1.022   6.539 -2.5501  0.5862 -1.2963
  199MOL   H15748073   4.011   1.003   6.708  0.0123 -3.4736  1.2059
  199MOL   C15848074   3.648   1.177   6.448 -0.0303  0.0811 -0.4701
  199MOL   C15948075   3.679   1.329   6.479  0.4112  0.0366  0.4816
  199MOL   C16048076   3.548   1.405   6.529  0.2863  0.1192 -0.9596
  199MOL   C16148077   3.481   1.364   6.668 -0.9177 -0.5420  0.4891
  199MOL   H16248078   3.577   1.141   6.523 -0.9759 -1.1495 -1.9245
  199MOL   H16348079   3.592   1.184   6.355 -0.9169  1.7935  0.1669
  199MOL   H16448080   3.738   1.336   6.570 -1.4180  1.1340  1.6243
  199MOL   H16548081   3.465   1.403   6.458 -0.9472  0.6627  0.4390
  199MOL   H16648082   3.567   1.512   6.538 -0.3726  0.3571 -2.2607
  199MOL   H16748083   3.448   1.260   6.674 -1.0659 -0.4951  0.4933
  199MOL   H16848084   3.556   1.374   6.747  0.9050 -0.7883 -1.1909
  199MOL   H16948085   3.395   1.418   6.708 -0.5496  0.0712  0.4579
  199MOL   C17048086   3.737   1.404   6.351  0.1467  0.5016  0.5338
  199MOL   C17148087   3.827   1.530   6.378  0.0386  0.1054  0.0363
  199MOL   C17248088   3.893   1.593   6.249 -0.3531 -0.2928 -0.9073
  199MOL   C17348089   3.795   1.678   6.170  0.2009 -0.8623  0.3557
  199MOL   H17448090   3.650   1.443   6.299 -1.5096 -2.7013  0.7931
  199MOL   H17548091   3.787   1.330   6.289 -1.9794 -0.8922  0.4324
  199MOL   H17648092   3.765   1.598   6.436  1.7507  0.9759  0.8906
  199MOL   H17748093   3.938   1.508   6.196  2.4803  0.8072 -0.3403
  199MOL   H17848094   3.968   1.666   6.280 -1.0867 -0.3967  1.1845
  199MOL   H17948095   3.705   1.619   6.152 -1.6702  1.0699  2.9215
  199MOL   H18048096   3.771   1.769   6.225  2.6033  0.0534 -0.0400
  199MOL   H18148097   3.824   1.711   6.071 -0.5128 -0.5550  0.2453
  199MOL   C18248098   3.955   1.491   6.462 -0.7154 -0.0450 -0.1035
  199MOL   C18348099   4.015   1.611   6.539  0.1740 -0.0150  0.5011
  199MOL   C18448100   4.169   1.602   6.565 -1.2744  0.1625  0.3654
  199MOL   C18548101   4.239   1.628   6.434 -0.3523  0.0380 -0.5040
  199MOL   H18648102   4.028   1.443   6.397  0.6872 -0.8854  2.0450
  199MOL   H18748103   3.925   1.406   6.524  2.1827 -2.6013 -2.0753
  199MOL   H18848104   3.981   1.698   6.484 -3.5013 -1.4374  0.3856
  199MOL   H18948105   4.196   1.505   6.606 -0.1340 -0.1092 -0.9651
  199MOL   H19048106   4.201   1.684   6.630 -0.1416 -0.5982  0.7849
  199MOL   H19148107   4.223   1.733   6.412 -0.3197  0.6086  2.0510
  199MOL   H19248108   4.347   1.617   6.446 -0.3927  0.2899  0.1239
  199MOL   H19348109   4.202   1.562   6.355 -2.6655  1.3840 -0.5721
  199MOL   C19448110   3.949   1.628   6.679  0.2203 -0.2779  0.5141
  199MOL   C19548111   3.961   1.763   6.769  0.5481 -0.0396 -0.2773
  199MOL   C19648112   4.018   1.751   6.913  0.1910  0.2454  0.0003
  199MOL   C19748113   4.165   1.710   6.923  0.4265 -0.2429 -0.1115
  199MOL   H19848114   4.004   1.554   6.737  0.9437 -0.8314 -0.8505
  199MOL   H19948115   3.842   1.620   6.658  0.1040  0.1884  0.9258
  199MOL   H20048116   4.027   1.831   6.716 -1.6882  2.3852 -0.0343
  199MOL   H20148117   3.968   1.669   6.965  1.3952  1.0029  2.4072
  199MOL   H20248118   4.004   1.845   6.967  1.9749 -0.0519  1.0267
  199MOL   H20348119   4.179   1.612   6.877  1.0952 -0.3011  0.2092
  199MOL   H20448120   4.229   1.786   6.877  0.5467 -0.6627 -0.6437
  199MOL   H20548121   4.194   1.700   7.028 -1.7960  3.7120  0.9741
  199MOL   C20648122   3.826   1.829   6.786 -0.3153 -0.3738  0.1651
  199MOL   C20748123   3.827   1.984   6.799  0.3539  0.4071  0.2500
  199MOL   C20848124   3.692   2.021   6.871 -0.7211 -0.2931  0.3790
  199MOL   C20948125   3.699   2.012   7.022 -0.3948 -0.0516 -0.2631
  199MOL   H21048126   3.782   1.791   6.878 -1.1015  1.0996  0.4135
  199MOL   H21148127   3.765   1.804   6.699 -1.5935 -0.1837  0.9988
  199MOL   H21248128   3.909   2.029   6.855 -0.9148  2.3032  0.6189
  199MOL   H21348129   3.609   1.963   6.831  0.4682 -1.8658  0.1385
  199MOL   H21448130   3.661   2.126   6.863  2.0515  0.4531 -0.8639
  199MOL   H21548131   3.601   2.024   7.069 -0.2546  0.1332 -0.0149
  199MOL   H21648132   3.745   1.917   7.052 -4.1203 -1.8383  0.0492
  199MOL   H21748133   3.766   2.082   7.072  0.3574  0.0242 -1.3443
  199MOL   C21848134   3.839   2.041   6.653  0.1356 -0.8440 -0.1633
  199MOL   C21948135   3.850   2.200   6.641  0.2269  0.6386  0.6359
  199MOL   C22048136   3.870   2.235   6.487 -0.4924 -0.8765 -0.0106
  199MOL   C22148137   3.783   2.170   6.381 -0.1092  0.0835  0.7963
  199MOL   H22248138   3.751   2.010   6.597  0.5623 -0.6933 -0.9233
  199MOL   H22348139   3.927   2.000   6.603  1.1767  0.1321  0.8203
  199MOL   H22448140   3.754   2.241   6.672 -0.8779  0.4796 -2.3455
  199MOL   H22548141   3.972   2.206   6.465 -0.4381 -2.1342  1.7675
  199MOL   H22648142   3.866   2.344   6.485  2.7483 -0.7410 -2.0045
  199MOL   H22748143   3.677   2.170   6.405  0.2884  0.5345  2.6365
  199MOL   H22848144   3.784   2.217   6.283  0.2823 -0.5000  0.5142
  199MOL   H22948145   3.823   2.070   6.362 -1.8563 -0.6903  1.0919
  199MOL   C23048146   3.964   2.253   6.732 -0.0785  0.8694  0.5167
  199MOL   C23148147   4.000   2.402   6.719  0.0257  0.5972  0.0693
  199MOL   C23248148   4.108   2.440   6.822 -0.1827  0.0059  0.5463
  199MOL   C23348149   4.256   2.403   6.782 -0.0966  0.2979 -0.1352
  199MOL   H23448150   4.055   2.197   6.710 -1.0517 -0.8458  0.7622
  199MOL   H23548151   3.948   2.230   6.837 -0.1357  0.3181  0.3858
  199MOL   H23648152   4.043   2.421   6.620  1.8521  2.4814  1.1952
  199MOL   H23748153   4.094   2.386   6.915 -0.3819 -0.0393  0.4885
  199MOL   H23848154   4.105   2.547   6.839  3.5124  0.2037  0.3812
  199MOL   H23948155   4.326   2.436   6.859 -1.5676 -1.3962  1.9922
  199MOL   H24048156   4.271   2.301   6.747  1.1340  0.4437 -0.0599
  199MOL   H24148157   4.262   2.468   6.695  1.3192 -0.0520 -0.3112
  199MOL   H24248158   3.921   2.476   6.708  0.0392  0.5674 -0.2560
  200MOL     C148159   3.295   3.726   6.545 -0.3448  0.7591 -0.2298
  200MOL     C248160   3.161   3.659   6.578  0.0463 -1.0655  0.7781
  200MOL     C348161   3.120   3.541   6.488  0.0200 -0.2047 -0.1760
  200MOL     C448162   3.047   3.579   6.359 -0.4698 -0.0929 -0.0957
  200MOL     H548163   3.376   3.673   6.595 -0.8190  0.4879  0.2626
  200MOL     H648164   3.308   3.735   6.438 -0.4640  1.2888 -0.1993
  200MOL     H748165   3.191   3.605   6.668  2.3640 -1.7846 -0.3778
  200MOL     H848166   3.073   3.460   6.543  2.2646 -1.4196  0.0216
  200MOL     H948167   3.218   3.495   6.471 -1.1318 -1.7978 -2.9372
  200MOL    H1048168   3.093   3.663   6.306 -1.4437 -0.0806 -0.9416
  200MOL    H1148169   3.040   3.491   6.295 -2.3838  0.4820 -0.7242
  200MOL    H1248170   2.946   3.605   6.393 -0.3419 -0.8911  0.8952
  200MOL    H1348171   3.303   3.828   6.582 -2.2507  0.7527  0.2713
  200MOL    C1448172   3.052   3.771   6.610  0.2904  0.1462 -0.3582
  200MOL    C1548173   3.059   3.835   6.754 -0.4430  0.4321 -0.4133
  200MOL    C1648174   3.006   3.743   6.862 -0.4164 -0.3552 -0.3224
  200MOL    C1748175   3.027   3.782   7.008  0.0298 -0.3763  0.3954
  200MOL    H1848176   2.951   3.732   6.600  0.5889 -0.3136 -1.6355
  200MOL    H1948177   3.039   3.839   6.526 -1.5882  1.7037  1.1456
  200MOL    H2048178   3.163   3.863   6.774  0.4573 -1.0892 -2.7730
  200MOL    H2148179   3.052   3.645   6.846 -3.3751 -1.7662 -0.4251
  200MOL    H2248180   2.900   3.727   6.845 -1.1028  1.5949  1.9140
  200MOL    H2348181   3.023   3.691   7.069  1.2896  0.1913  1.3362
  200MOL    H2448182   3.125   3.820   7.038 -0.0356 -1.1165  1.6016
  200MOL    H2548183   2.946   3.847   7.040 -0.3086 -0.5236 -0.1562
  200MOL    C2648184   2.977   3.967   6.753 -0.6621 -0.1971 -0.6609
  200MOL    C2748185   3.027   4.085   6.675 -0.6103  0.7262 -0.3529
  200MOL    C2848186   3.174   4.130   6.701 -0.4712  0.0856  0.1953
  200MOL    C2948187   3.235   4.208   6.581  0.0197 -0.8833  0.4726
  200MOL    H3048188   2.978   4.009   6.853 -0.3316 -2.3719  0.2694
  200MOL    H3148189   2.872   3.944   6.733 -0.8285  0.4282 -0.4959
  200MOL    H3248190   3.038   4.054   6.571 -0.7694 -2.1001  0.4346
  200MOL    H3348191   3.231   4.039   6.717 -0.1597 -0.0683 -1.6362
  200MOL    H3448192   3.167   4.190   6.792 -3.4073 -0.2642  0.2454
  200MOL    H3548193   3.217   4.157   6.487 -0.9403 -0.5288  0.4632
  200MOL    H3648194   3.195   4.309   6.569  0.0564 -0.9112  0.1164
  200MOL    H3748195   3.343   4.211   6.599 -0.0473 -2.5288  1.2126
  200MOL    C3848196   2.941   4.214   6.676  0.6293 -0.5564 -0.2389
  200MOL    C3948197   2.795   4.195   6.622  0.4926 -0.7251 -0.6644
  200MOL    C4048198   2.792   4.146   6.477 -0.0187 -0.7055 -0.4887
  200MOL    C4148199   2.856   4.230   6.364  0.6206  0.2317  0.1158
  200MOL    H4248200   2.992   4.292   6.620 -1.1932  0.5915 -0.3428
  200MOL    H4348201   2.934   4.250   6.779 -0.3731 -1.7613  0.1371
  200MOL    H4448202   2.748   4.119   6.684 -0.0384  0.7927  0.8447
  200MOL    H4548203   2.688   4.130   6.447  0.3988 -0.6769 -1.9521
  200MOL    H4648204   2.842   4.049   6.472  1.3801 -0.1746  2.0543
  200MOL    H4748205   2.826   4.335   6.365  1.5397  0.5145 -0.5368
  200MOL    H4848206   2.963   4.242   6.380  0.7628 -1.4035  0.4226
  200MOL    H4948207   2.847   4.182   6.267 -0.5305  0.4995  0.0794
  200MOL    C5048208   2.695   4.316   6.637  0.6052 -0.7152 -0.4928
  200MOL    C5148209   2.546   4.284   6.647  0.5029 -0.0912  0.5268
  200MOL    C5248210   2.457   4.410   6.628 -0.4188 -0.0198  0.5666
  200MOL    C5348211   2.485   4.528   6.712 -0.3240 -0.3706  0.3782
  200MOL    H5448212   2.706   4.396   6.564  1.5878 -1.1650 -0.8531
  200MOL    H5548213   2.727   4.372   6.724  2.7085  0.5292 -2.0121
  200MOL    H5648214   2.523   4.218   6.563  1.8519 -0.6517  0.5831
  200MOL    H5748215   2.351   4.385   6.631 -0.3781 -0.4901 -1.1977
  200MOL    H5848216   2.472   4.444   6.526 -1.5960  0.1542  0.4460
  200MOL    H5948217   2.593   4.538   6.719 -0.4802  0.4175  1.9078
  200MOL    H6048218   2.431   4.617   6.679  0.8384 -0.0990 -0.8181
  200MOL    H6148219   2.439   4.496   6.806 -1.4370  1.7039  0.5644
  200MOL    C6248220   2.518   4.209   6.777  0.0870 -0.5295 -0.8458
  200MOL    C6348221   2.369   4.165   6.812 -0.2800 -0.6277  0.9533
  200MOL    C6448222   2.338   4.218   6.956  0.3103 -0.2579 -0.3093
  200MOL    C6548223   2.207   4.180   7.011  0.1668 -0.5041 -0.6210
  200MOL    H6648224   2.547   4.282   6.853  3.7723 -3.2266  0.4775
  200MOL    H6748225   2.580   4.120   6.785 -0.6049 -1.2417 -3.0857
  200MOL    H6848226   2.305   4.218   6.740  0.7539 -0.3676  0.2121
  200MOL    H6948227   2.340   4.327   6.947 -1.2425 -0.1068  1.1063
  200MOL    H7048228   2.422   4.192   7.020  1.7252  1.9549 -1.2135
  200MOL    H7148229   2.124   4.232   6.963 -0.9951 -0.7596  1.0532
  200MOL    H7248230   2.190   4.072   7.016  0.3931 -0.5733 -1.2765
  200MOL    H7348231   2.202   4.205   7.117 -2.3973 -1.4142 -0.4827
  200MOL    C7448232   2.354   4.013   6.783 -0.3726  0.3926 -0.5853
  200MOL    C7548233   2.375   3.981   6.629  0.4853  0.4056  0.2056
  200MOL    C7648234   2.260   4.052   6.548  0.1324 -0.2860 -0.5042
  200MOL    C7748235   2.264   4.033   6.392 -0.1315 -0.4855  0.8817
  200MOL    H7848236   2.256   3.979   6.816  0.4934 -2.4017 -0.7824
  200MOL    H7948237   2.438   3.963   6.830  1.2564  0.4484 -3.3251
  200MOL    H8048238   2.469   4.018   6.590  0.6821 -2.1286 -1.8740
  200MOL    H8148239   2.254   4.161   6.557 -0.6513 -0.3122 -0.7249
  200MOL    H8248240   2.162   4.014   6.577 -0.2349 -0.2493 -1.7118
  200MOL    H8348241   2.286   3.936   6.347 -0.6933  0.0528 -0.6223
  200MOL    H8448242   2.161   4.054   6.362 -0.2221 -0.3238  1.3102
  200MOL    H8548243   2.323   4.106   6.336  0.0558 -1.4183 -0.1697
  200MOL    C8648244   2.390   3.821   6.622 -0.8074 -0.5046 -1.1649
  200MOL    C8748245   2.526   3.754   6.658 -0.0393  0.0948 -0.2597
  200MOL    C8848246   2.641   3.788   6.558 -1.3900 -0.5435  0.0715
  200MOL    C8948247   2.631   3.750   6.408 -0.4433 -0.1625 -0.1908
  200MOL    H9048248   2.358   3.792   6.522  0.8594 -0.1701 -1.8094
  200MOL    H9148249   2.318   3.767   6.684  1.0520 -1.2306  0.4622
  200MOL    H9248250   2.550   3.798   6.755 -1.2170 -0.2491  0.1929
  200MOL    H9348251   2.731   3.748   6.605  0.1029  3.5798  0.9191
  200MOL    H9448252   2.647   3.896   6.554 -1.2371 -0.5449  0.2370
  200MOL    H9548253   2.718   3.804   6.371 -1.1451  1.4853  0.5186
  200MOL    H9648254   2.629   3.643   6.387 -1.4507 -0.1490 -0.1964
  200MOL    H9748255   2.540   3.792   6.364 -1.3293 -2.4535 -0.6258
  200MOL    C9848256   2.499   3.600   6.680 -0.2103  0.3141 -1.3687
  200MOL    C9948257   2.608   3.543   6.779  0.1591 -0.5189  0.5564
  200MOL   C10048258   2.663   3.407   6.728  0.3112  0.0396 -0.8440
  200MOL   C10148259   2.739   3.411   6.593  0.9367 -0.6065  0.2324
  200MOL   H10248260   2.509   3.543   6.588  1.5536 -0.5657 -0.6617
  200MOL   H10348261   2.395   3.582   6.707  0.4307 -1.4145  0.0595
  200MOL   H10448262   2.686   3.619   6.779 -1.8733  1.6473 -0.7687
  200MOL   H10548263   2.577   3.339   6.720  0.4027 -0.6753  3.2697
  200MOL   H10648264   2.734   3.375   6.804 -0.2543 -0.3722 -0.4779
  200MOL   H10748265   2.691   3.452   6.505  0.9504 -1.1239 -0.0158
  200MOL   H10848266   2.811   3.491   6.612  0.5139 -0.4371  1.1685
  200MOL   H10948267   2.791   3.318   6.572  0.7877 -0.9994  1.5107
  200MOL   C11048268   2.549   3.517   6.919  1.0614 -0.0814  0.1600
  200MOL   C11148269   2.520   3.640   7.007 -0.2392 -0.6694 -0.2207
  200MOL   C11248270   2.648   3.735   7.017 -0.0388 -0.3191 -0.2067
  200MOL   C11348271   2.618   3.866   7.076  0.4446  0.7777 -0.4461
  200MOL   H11448272   2.608   3.452   6.984  0.9684  1.5057  1.8574
  200MOL   H11548273   2.451   3.472   6.905 -0.1008  2.9962 -2.2167
  200MOL   H11648274   2.443   3.695   6.955 -0.0017  2.0019  2.1376
  200MOL   H11748275   2.695   3.766   6.923 -0.1186  1.0759  0.1926
  200MOL   H11848276   2.732   3.705   7.079 -0.0660  3.9228  2.1268
  200MOL   H11948277   2.702   3.936   7.074  1.9035 -0.9228  0.8119
  200MOL   H12048278   2.536   3.925   7.034  0.4338  1.5316  0.6002
  200MOL   H12148279   2.596   3.854   7.182  4.1151 -0.3151  0.2759
  200MOL   C12248280   2.461   3.589   7.141 -0.5248  0.3431  0.2617
  200MOL   C12348281   2.310   3.547   7.141 -0.2968  0.0650  0.2272
  200MOL   C12448282   2.212   3.649   7.087 -0.3198  0.2768  0.4758
  200MOL   C12548283   2.228   3.789   7.134  0.5887 -0.1111  0.1592
  200MOL   H12648284   2.473   3.673   7.209  0.6990 -0.9507  1.6968
  200MOL   H12748285   2.530   3.517   7.185 -1.1108  0.2802  1.0959
  200MOL   H12848286   2.304   3.464   7.070 -0.9895  0.5411 -0.2733
  200MOL   H12948287   2.114   3.611   7.116 -0.7133  1.2123  0.4018
  200MOL   H13048288   2.216   3.645   6.978  0.8322  1.3708  0.4738
  200MOL   H13148289   2.310   3.840   7.083  0.9733 -0.7940  0.0886
  200MOL   H13248290   2.142   3.851   7.110  1.8057  1.0528 -1.3296
  200MOL   H13348291   2.241   3.806   7.241 -0.0580 -2.4204  0.6199
  200MOL   C13448292   2.254   3.495   7.277 -0.7772  0.5121  0.2254
  200MOL   C13548293   2.216   3.347   7.290 -0.5141  0.1197  0.4393
  200MOL   C13648294   2.341   3.255   7.263  0.3098 -0.0906 -0.4907
  200MOL   C13748295   2.372   3.134   7.357  0.0025 -0.3828  0.3651
  200MOL   H13848296   2.168   3.549   7.316 -0.6326 -0.6799  2.2910
  200MOL   H13948297   2.328   3.513   7.355 -1.3869 -0.7752  1.1314
  200MOL   H14048298   2.188   3.335   7.395  0.7704 -0.5342  0.7173
  200MOL   H14148299   2.427   3.322   7.259  1.4244 -1.4571 -0.0423
  200MOL   H14248300   2.343   3.214   7.162 -0.6997 -0.7921 -0.2393
  200MOL   H14348301   2.472   3.094   7.344  0.1506  0.1224 -0.0808
  200MOL   H14448302   2.369   3.172   7.459 -1.1254 -1.0352  0.5814
  200MOL   H14548303   2.305   3.048   7.347  0.8854 -0.7866 -2.3679
  200MOL   C14648304   2.087   3.305   7.220 -0.2071 -0.2787 -0.2329
  200MOL   C14748305   2.028   3.163   7.265  0.0199 -0.4671  1.5757
  200MOL   C14848306   2.018   3.057   7.149 -0.0344 -0.6351 -0.4812
  200MOL   C14948307   2.150   3.011   7.075 -1.2277 -0.4095  0.3725
  200MOL   H15048308   2.114   3.301   7.115  1.8499 -0.1857  0.2771
  200MOL   H15148309   2.014   3.385   7.226  1.4618  1.3370 -1.0284
  200MOL   H15248310   2.095   3.117   7.338  0.8505  1.6571  2.1743
  200MOL   H15348311   1.944   3.075   7.071 -0.7294  0.2465  0.3698
  200MOL   H15448312   1.976   2.968   7.196  0.9412 -1.0887 -0.4540
  200MOL   H15548313   2.221   2.972   7.147  0.2692  3.1693  0.9885
  200MOL   H15648314   2.140   2.926   7.008  0.8362  1.8098 -2.9159
  200MOL   H15748315   2.208   3.087   7.021  1.3654 -1.5870  1.4075
  200MOL   C15848316   1.888   3.177   7.336  0.2367 -0.1154  0.4213
  200MOL   C15948317   1.884   3.252   7.465 -0.1681  0.3300 -0.1817
  200MOL   C16048318   1.922   3.166   7.591  0.0120 -0.1562 -0.1267
  200MOL   C16148319   2.076   3.142   7.609 -0.5774  0.8534  0.3301
  200MOL   H16248320   1.854   3.076   7.358 -0.2631  0.3097  1.6762
  200MOL   H16348321   1.818   3.225   7.267  1.8863  0.2993 -0.9761
  200MOL   H16448322   1.960   3.329   7.455  3.8455 -2.9715  2.7827
  200MOL   H16548323   1.866   3.073   7.603  0.5120 -0.5842 -1.0927
  200MOL   H16648324   1.881   3.228   7.672 -0.9653 -0.1054 -0.6536
  200MOL   H16748325   2.091   3.107   0.005  0.8509 -0.5601 -0.3483
  200MOL   H16848326   2.117   3.065   7.544  0.7026  0.7740  1.2016
  200MOL   H16948327   2.146   3.221   7.579  0.1357 -0.0541 -0.4156
  200MOL   C17048328   1.754   3.338   7.488 -0.1486  0.4232  0.3600
  200MOL   C17148329   1.752   3.478   7.418 -0.9843 -0.8104 -0.1727
  200MOL   C17248330   1.856   3.577   7.488 -0.1401  0.1349  0.3977
  200MOL   C17348331   1.904   3.698   7.404 -0.1305  0.2578 -0.4604
  200MOL   H17448332   1.742   3.355   7.595 -1.4372 -0.7188  0.4138
  200MOL   H17548333   1.674   3.269   7.459  1.7062 -0.8549 -1.8877
  200MOL   H17648334   1.798   3.469   7.320  0.9015 -0.3901  0.6345
  200MOL   H17748335   1.945   3.516   7.504  1.1875  1.9310  0.0155
  200MOL   H17848336   1.824   3.605   7.588  0.4793 -2.3429  1.3306
  200MOL   H17948337   1.837   3.780   7.429  0.6871  1.1969 -1.2959
  200MOL   H18048338   2.001   3.732   7.440 -0.4351  0.9361 -0.2842
  200MOL   H18148339   1.900   3.683   7.296 -2.1036 -2.0720 -0.1216
  200MOL   C18248340   1.608   3.535   7.414  0.0835 -0.2230  0.5760
  200MOL   C18348341   1.536   3.502   7.280 -0.6486 -0.0362 -0.3262
  200MOL   C18448342   1.577   3.611   7.168  0.7067  0.4296 -0.0389
  200MOL   C18548343   1.565   3.559   7.029  0.0539  0.6844  0.0750
  200MOL   H18648344   1.604   3.643   7.429 -0.1824 -0.3739  1.6589
  200MOL   H18748345   1.543   3.493   7.492 -0.2948 -0.1527  0.3032
  200MOL   H18848346   1.584   3.409   7.252  1.5200  0.6653  0.9508
  200MOL   H18948347   1.684   3.629   7.173  0.5968  0.9806  0.4686
  200MOL   H19048348   1.529   3.706   7.192 -0.8540 -0.0091 -1.2969
  200MOL   H19148349   1.587   3.636   6.955 -0.3159  2.6364  1.9416
  200MOL   H19248350   1.636   3.479   7.008 -0.8722  0.1348 -1.0053
  200MOL   H19348351   1.472   3.513   6.997  0.9249 -0.3630 -0.9815
  200MOL   C19448352   1.385   3.465   7.287 -0.5947 -0.1037  0.2132
  200MOL   C19548353   1.278   3.572   7.319 -0.3306 -0.3242 -0.0811
  200MOL   C19648354   1.299   3.637   7.463  0.6726  0.8755  0.2449
  200MOL   C19748355   1.272   3.536   7.574 -0.8127  0.2192 -0.2755
  200MOL   H19848356   1.373   3.374   7.346  1.1886 -1.4161 -1.3952
  200MOL   H19948357   1.346   3.446   7.187 -0.0936  1.6128 -0.3239
  200MOL   H20048358   1.294   3.651   7.246 -0.0425  0.0199  0.3613
  200MOL   H20148359   1.223   3.712   7.485 -1.6956 -1.3490 -0.0370
  200MOL   H20248360   1.399   3.670   7.488  0.3502  2.3881 -0.4036
  200MOL   H20348361   1.318   3.580   7.663  0.7393 -1.4975 -0.2111
  200MOL   H20448362   1.165   3.538   7.593 -1.1367 -0.6170 -1.9172
  200MOL   H20548363   1.316   3.438   7.560  0.5155  0.5113  1.6795
  200MOL   C20648364   1.130   3.521   7.294 -0.4656  0.2936  0.2905
  200MOL   C20748365   1.017   3.616   7.318  0.3608  0.0423  0.1893
  200MOL   C20848366   0.886   3.546   7.289  0.0273 -0.4820 -0.6278
  200MOL   C20948367   0.873   3.489   7.146  0.8689 -0.1755 -0.7162
  200MOL   H21048368   1.112   3.427   7.345  1.7965 -0.4835 -0.2437
  200MOL   H21148369   1.124   3.499   7.187 -1.8657  5.1297 -0.7773
  200MOL   H21248370   1.015   3.642   7.424 -2.4616 -0.0657  0.1891
  200MOL   H21348371   0.796   3.597   7.324  1.7012  0.6989  2.1378
  200MOL   H21448372   0.885   3.471   7.369  0.1262 -0.0374 -0.2046
  200MOL   H21548373   0.769   3.468   7.121  0.5751  0.1285  0.2352
  200MOL   H21648374   0.901   3.563   7.071 -0.3748 -0.1496 -1.1647
  200MOL   H21748375   0.937   3.403   7.124  2.4630  1.1146 -1.2218
  200MOL   C21848376   1.023   3.753   7.250 -0.8940  0.9630  0.1913
  200MOL   C21948377   0.942   3.867   7.313  0.3124  0.5369  0.3522
  200MOL   C22048378   0.912   3.984   7.207 -0.4542 -0.0592 -0.7239
  200MOL   C22148379   1.027   4.069   7.159  0.3353  0.6316 -0.2592
  200MOL   H22248380   1.002   3.749   7.143 -0.0053  1.5847 -0.0112
  200MOL   H22348381   1.124   3.792   7.242 -0.0311 -1.4477 -1.2891
  200MOL   H22448382   0.842   3.831   7.335  0.5172  0.3570  0.9938
  200MOL   H22548383   0.834   4.053   7.238  0.5685 -0.1982  2.2681
  200MOL   H22648384   0.872   3.932   7.120 -2.7089 -0.7415  0.6544
  200MOL   H22748385   1.007   4.120   7.065  0.5137  1.3174  0.0737
  200MOL   H22848386   1.057   4.135   7.241 -0.1168 -0.8622  1.1552
  200MOL   H22948387   1.111   4.006   7.129 -0.8788 -0.9900 -0.3148
  200MOL   C23048388   1.005   3.924   7.439 -0.0835 -1.4808 -0.0351
  200MOL   C23148389   0.905   3.971   7.545 -0.3714  0.4018  0.4545
  200MOL   C23248390   0.815   3.854   7.597 -0.6381 -0.5723 -0.7057
  200MOL   C23348391   0.880   3.749   7.678 -0.3195  0.6206  0.0197
  200MOL   H23448392   1.083   3.999   7.429 -1.6477  0.1090 -0.4213
  200MOL   H23548393   1.058   3.848   7.497  1.4851 -1.4968 -1.4346
  200MOL   H23648394   0.968   3.999   7.629 -0.4311  0.9710  0.3064
  200MOL   H23748395   0.754   3.800   7.525 -0.6725  0.1041 -1.1952
  200MOL   H23848396   0.745   3.911   7.658 -0.5824 -0.3249 -0.8717
  200MOL   H23948397   0.947   3.788   0.048 -0.6493  0.2322  0.5091
  200MOL   H24048398   0.807   3.697   0.034 -0.3618 -0.1435 -0.6757
  200MOL   H24148399   0.921   3.678   7.607 -2.1511 -0.5020  0.0609
  200MOL   H24248400   0.846   4.054   7.507  2.9702  2.1099 -1.2641
  201MOL     C148401   1.767   0.673   5.289 -1.0798 -1.1904 -0.2234
  201MOL     C248402   1.647   0.752   5.346 -0.0328 -0.0766  0.6579
  201MOL     C348403   1.611   0.725   5.495 -0.0768  0.3177 -0.2284
  201MOL     C448404   1.715   0.786   5.590 -0.6540 -0.0562 -0.2842
  201MOL     H548405   1.857   0.672   5.349 -2.2244  1.4528  1.6294
  201MOL     H648406   1.736   0.569   5.275  2.0103 -2.2177  0.2351
  201MOL     H748407   1.670   0.856   5.328 -0.1019 -0.7049 -3.4656
  201MOL     H848408   1.601   0.620   5.520  0.2462  0.6778  1.4728
  201MOL     H948409   1.517   0.775   5.518  0.0430  1.1256 -1.4217
  201MOL    H1048410   1.813   0.738   5.581 -1.9644 -2.6277 -1.5148
  201MOL    H1148411   1.737   0.889   5.563 -1.1645 -0.5747 -2.8944
  201MOL    H1248412   1.699   0.775   5.697 -1.4845  0.2581 -0.3741
  201MOL    H1348413   1.790   0.719   5.192  0.6088 -0.3774  0.5539
  201MOL    C1448414   1.529   0.708   5.265  0.3732 -0.2134  0.3974
  201MOL    C1548415   1.519   0.733   5.115  0.3604  0.6711  0.1397
  201MOL    C1648416   1.555   0.877   5.070 -0.5943 -0.3447  0.3195
  201MOL    C1748417   1.610   0.884   4.928 -0.4546  0.2076 -0.4059
  201MOL    H1848418   1.447   0.761   5.313 -0.4033  0.5290 -1.6821
  201MOL    H1948419   1.507   0.603   5.280  0.4970 -0.1666  0.9055
  201MOL    H2048420   1.596   0.665   5.077 -0.4912  0.0583 -0.5156
  201MOL    H2148421   1.623   0.934   5.133 -0.1683  1.0876 -1.3775
  201MOL    H2248422   1.461   0.932   5.077  0.9441  2.3182  0.9729
  201MOL    H2348423   1.710   0.843   4.910 -0.4142  0.0942  0.0765
  201MOL    H2448424   1.539   0.833   4.863 -1.0487  0.3293  0.1426
  201MOL    H2548425   1.621   0.990   4.905  0.0864  0.1718 -0.3301
  201MOL    C2648426   1.386   0.684   5.051  0.2998 -0.3316  0.3728
  201MOL    C2748427   1.353   0.534   5.068 -0.7115 -0.5505 -0.4278
  201MOL    C2848428   1.469   0.440   5.025 -0.2092  0.2142 -0.7585
  201MOL    C2948429   1.521   0.453   4.880 -0.9754  0.0587  0.3725
  201MOL    H3048430   1.361   0.716   4.950 -2.5454 -0.9219  0.8188
  201MOL    H3148431   1.310   0.744   5.101  0.2304 -0.0351 -0.0893
  201MOL    H3248432   1.343   0.518   5.176 -1.3344  0.6514 -0.2925
  201MOL    H3348433   1.423   0.342   5.036 -1.3579  0.6162 -1.8068
  201MOL    H3448434   1.554   0.440   5.092 -1.7753  0.2826  1.2629
  201MOL    H3548435   1.440   0.453   4.806 -0.6873  1.5164  0.0482
  201MOL    H3648436   1.574   0.548   4.876 -1.1521  0.1528  0.2377
  201MOL    H3748437   1.583   0.365   4.862  1.1540  1.9219 -1.6425
  201MOL    C3848438   1.219   0.491   4.998  0.0769 -0.4953  0.6828
  201MOL    C3948439   1.094   0.572   5.043  0.0665 -0.2518 -0.0558
  201MOL    C4048440   1.079   0.598   5.199 -0.6271  0.0019 -0.4303
  201MOL    C4148441   1.033   0.480   5.284 -0.2572 -0.4766  0.3678
  201MOL    H4248442   1.204   0.387   5.024 -0.1197 -0.9438 -1.1935
  201MOL    H4348443   1.227   0.493   4.890  0.2559  0.8309  0.7104
  201MOL    H4448444   1.096   0.670   4.995 -2.9772 -0.2154 -0.2304
  201MOL    H4548445   1.001   0.672   5.211 -0.1056  0.3222  1.1718
  201MOL    H4648446   1.166   0.647   5.243 -0.1499 -1.7451  0.6453
  201MOL    H4748447   1.061   0.492   5.388 -1.0157 -2.4526  0.8261
  201MOL    H4848448   0.926   0.460   5.287  0.2623 -3.4295  0.9726
  201MOL    H4948449   1.092   0.396   5.246  1.5119  0.3489  1.2746
  201MOL    C5048450   0.964   0.515   4.979 -0.0648  0.2367  0.3367
  201MOL    C5148451   0.942   0.552   4.830 -0.7230 -0.4427  0.0377
  201MOL    C5248452   0.869   0.688   4.802  0.3950  0.2035 -0.6353
  201MOL    C5348453   0.716   0.682   4.816  0.1758  0.0946 -0.6836
  201MOL    H5448454   0.881   0.556   5.037  0.9892  1.0424  1.3064
  201MOL    H5548455   0.955   0.409   4.999 -0.3035  0.1949  0.0167
  201MOL    H5648456   1.043   0.560   4.789 -1.0893 -0.5526 -0.8836
  201MOL    H5748457   0.898   0.717   4.701 -0.8895  0.8419 -0.8288
  201MOL    H5848458   0.898   0.771   4.866  0.5777  0.0902 -0.5700
  201MOL    H5948459   0.675   0.783   4.823  2.0546  0.7808  0.8711
  201MOL    H6048460   0.666   0.643   4.727  1.1841 -1.9164 -0.3885
  201MOL    H6148461   0.691   0.630   4.909 -1.1953  1.1684 -0.4307
  201MOL    C6248462   0.880   0.436   4.753 -0.2254  0.1518 -0.4390
  201MOL    C6348463   0.874   0.448   4.605  0.0775 -0.9089 -0.3297
  201MOL    C6448464   0.791   0.339   4.534  0.8338 -0.3258 -0.1158
  201MOL    C6548465   0.828   0.193   4.579 -0.0838  0.3339  0.3532
  201MOL    H6648466   0.778   0.416   4.786 -0.3202  0.1272 -0.7445
  201MOL    H6748467   0.926   0.340   4.772  1.5719  1.6713  3.5546
  201MOL    H6848468   0.825   0.542   4.581 -2.2379 -2.4267 -1.6680
  201MOL    H6948469   0.794   0.348   4.426 -1.7004  0.8370 -0.1193
  201MOL    H7048470   0.692   0.371   4.567 -0.8296 -4.0599 -1.2330
  201MOL    H7148471   0.748   0.120   4.563  0.9135 -0.6322 -0.2261
  201MOL    H7248472   0.912   0.170   4.514  0.8483  0.5629  1.4617
  201MOL    H7348473   0.844   0.182   4.686 -1.3429 -0.4824  0.4666
  201MOL    C7448474   1.020   0.461   4.544  0.1146 -0.3887 -0.2647
  201MOL    C7548475   1.043   0.459   4.394 -0.2861  0.0773 -0.3835
  201MOL    C7648476   1.192   0.429   4.356  0.1618  0.1267 -0.6435
  201MOL    C7748477   1.239   0.289   4.356  0.1452  0.3387 -0.6154
  201MOL    H7848478   1.077   0.378   4.587  0.1509  0.1822  0.8054
  201MOL    H7948479   1.065   0.553   4.580 -0.3737  0.2172 -1.2128
  201MOL    H8048480   0.994   0.366   4.365 -0.4070  0.2850 -0.8382
  201MOL    H8148481   1.247   0.500   4.418 -1.7467 -0.7547  2.1268
  201MOL    H8248482   1.216   0.461   4.255  2.3424  0.6960  0.0188
  201MOL    H8348483   1.220   0.243   4.453  0.5340  1.4569 -0.0038
  201MOL    H8448484   1.179   0.232   4.284  1.0827 -2.3077  0.6106
  201MOL    H8548485   1.341   0.279   4.317  0.0019 -1.0826 -0.6663
  201MOL    C8648486   0.983   0.582   4.310 -0.0080  0.9567  0.4109
  201MOL    C8748487   0.974   0.548   4.159  0.5757  0.7582  0.0376
  201MOL    C8848488   0.996   0.673   4.068 -0.0234 -0.4954  0.5698
  201MOL    C8948489   1.134   0.721   4.041  0.0320  0.2991 -0.9364
  201MOL    H9048490   1.056   0.661   4.333  2.2169 -1.5915  2.4829
  201MOL    H9148491   0.888   0.619   4.350  0.7231  3.1433  0.2243
  201MOL    H9248492   1.054   0.485   4.121 -0.5260 -1.8423  1.8913
  201MOL    H9348493   0.936   0.760   4.094  1.1277  1.2588 -2.4358
  201MOL    H9448494   0.963   0.644   3.968  0.8660 -2.1916  0.7474
  201MOL    H9548495   1.191   0.657   3.974  1.4422 -1.2843  1.6962
  201MOL    H9648496   1.121   0.821   3.999 -0.0674  0.0834 -1.4172
  201MOL    H9748497   1.200   0.724   4.128 -0.8343  1.9230 -0.2966
  201MOL    C9848498   0.847   0.466   4.126 -0.0196  0.9430 -0.4612
  201MOL    C9948499   0.824   0.416   3.981 -0.3282 -0.3304  0.2934
  201MOL   C10048500   0.683   0.459   3.925 -0.2662  0.2949 -0.7870
  201MOL   C10148501   0.682   0.614   3.894 -0.0729 -0.6546  1.0271
  201MOL   H10248502   0.761   0.523   4.162 -0.7155 -0.0610 -0.4879
  201MOL   H10348503   0.838   0.393   4.206  1.8080  1.1959 -0.0046
  201MOL   H10448504   0.898   0.453   3.911 -1.7470 -0.2392 -1.2014
  201MOL   H10548505   0.598   0.439   3.991 -0.2640 -2.4420 -1.5614
  201MOL   H10648506   0.660   0.409   3.831 -2.0304 -1.4074  0.4841
  201MOL   H10748507   0.746   0.634   3.808 -1.7019  1.5654  0.2697
  201MOL   H10848508   0.580   0.647   3.874 -0.6831 -3.0952 -0.1823
  201MOL   H10948509   0.727   0.669   3.976  1.5548 -0.2798 -0.0891
  201MOL   C11048510   0.819   0.264   3.988 -0.5674  0.8378  0.3906
  201MOL   C11148511   0.955   0.190   4.019 -0.8416 -0.4295  0.1479
  201MOL   C11248512   1.077   0.241   3.929  0.0785  0.4688 -0.2014
  201MOL   C11348513   1.218   0.198   3.980  0.6483 -0.2088  0.1683
  201MOL   H11448514   0.794   0.226   3.889 -1.9952  0.8538  0.7398
  201MOL   H11548515   0.733   0.230   4.046 -0.3987  0.2765  0.3163
  201MOL   H11648516   0.982   0.209   4.123 -0.1008  1.1387 -0.3199
  201MOL   H11748517   1.068   0.350   3.932  0.5725  0.4971  0.3424
  201MOL   H11848518   1.057   0.213   3.825 -0.1082  2.2056 -0.6556
  201MOL   H11948519   1.298   0.184   3.907  2.0890 -0.9854  1.8484
  201MOL   H12048520   1.269   0.261   4.053 -0.0403 -0.2952  0.7223
  201MOL   H12148521   1.216   0.101   4.029  0.3425 -1.0795 -1.5478
  201MOL   C12248522   0.934   0.038   4.010  0.0388 -0.2106 -0.6049
  201MOL   C12348523   0.838   7.681   4.118  0.0602  0.2528 -0.2346
  201MOL   C12448524   0.889   7.691   4.259  0.2201 -0.2565 -0.0235
  201MOL   C12548525   1.024   7.619   4.287  0.6125  0.5219  0.1285
  201MOL   H12648526   1.032   7.701   4.030  0.3836  1.7487  2.3095
  201MOL   H12748527   0.892   0.010   3.914 -0.0895 -4.8118  0.6491
  201MOL   H12848528   0.739   0.020   4.114 -0.8960 -1.5980  1.7145
  201MOL   H12948529   0.815   7.648   4.328 -1.3495  0.4479 -1.2434
  201MOL   H13048530   0.890   0.087   4.296  1.3269  0.5301 -2.1660
  201MOL   H13148531   1.011   7.513   4.269 -1.7651  0.7336  0.4362
  201MOL   H13248532   1.104   7.656   4.224 -0.9409  2.4099 -0.7974
  201MOL   H13348533   1.056   7.630   4.391  1.1505 -2.0226  0.2662
  201MOL   C13448534   0.799   7.532   4.062  0.2677 -0.0757 -0.2850
  201MOL   C13548535   0.733   7.506   3.924  0.4392 -0.3022  0.4344
  201MOL   C13648536   0.609   7.594   3.896 -0.6744  0.0459  0.0367
  201MOL   C13748537   0.500   7.598   4.005 -0.1424  0.4473  0.1634
  201MOL   H13848538   0.735   7.485   4.137  2.9276 -1.0192  1.4730
  201MOL   H13948539   0.891   7.473   4.064 -0.8249 -2.0076 -3.7589
  201MOL   H14048540   0.800   7.534   3.842  0.3626  1.0641  0.8162
  201MOL   H14148541   0.567   7.564   3.800  0.4060 -1.6718  0.0685
  201MOL   H14248542   0.639   7.698   3.885  0.4122 -0.2583  0.0295
  201MOL   H14348543   0.446   7.505   4.023  0.1578  0.1556 -0.4459
  201MOL   H14448544   0.540   7.620   4.104  3.4627 -0.1228 -1.0843
  201MOL   H14548545   0.432   7.680   3.985 -2.1235 -1.3218 -0.5734
  201MOL   C14648546   0.706   7.348   3.901 -0.0756 -0.1335 -0.9030
  201MOL   C14748547   0.681   7.315   3.749  0.1101 -1.1408  0.1715
  201MOL   C14848548   0.553   7.227   3.746  0.1609 -0.0083 -0.3809
  201MOL   C14948549   0.419   7.288   3.791 -0.2724  0.2185  0.2214
  201MOL   H15048550   0.626   7.304   3.960  0.4754 -2.0240 -1.5332
  201MOL   H15148551   0.797   7.295   3.928  0.3408  0.2850 -1.4587
  201MOL   H15248552   0.649   7.407   3.700 -1.1793 -1.6032  0.1103
  201MOL   H15348553   0.576   7.131   3.792  0.1464  0.0367 -0.2779
  201MOL   H15448554   0.530   7.202   3.643 -0.7125  1.6144 -0.5950
  201MOL   H15548555   0.339   7.214   3.796  0.3090 -0.4418 -0.1912
  201MOL   H15648556   0.427   7.305   3.898  1.0717  2.5934 -0.2143
  201MOL   H15748557   0.389   7.384   3.749  2.4356  1.1176  0.2338
  201MOL   C15848558   0.798   7.249   3.672 -0.0397 -0.0135 -0.4843
  201MOL   C15948559   0.922   7.336   3.634  0.2123 -0.8441 -0.2964
  201MOL   C16048560   0.890   7.438   3.517  0.3037 -0.2134  0.5502
  201MOL   C16148561   0.974   7.551   3.503 -0.1112  0.5248  0.0053
  201MOL   H16248562   0.754   7.215   3.578 -0.6483  0.8161 -0.5041
  201MOL   H16348563   0.837   7.168   3.732  0.7205  1.1015  0.5456
  201MOL   H16448564   0.951   7.387   3.726 -0.3672  0.0545 -0.6036
  201MOL   H16548565   0.786   7.470   3.527 -0.3268 -2.5698  1.9582
  201MOL   H16648566   0.901   7.381   3.425  0.9863 -0.0800  0.5465
  201MOL   H16748567   0.988   7.603   3.597  2.2377 -0.1493  0.0597
  201MOL   H16848568   1.074   7.529   3.464 -0.1020  0.9907 -0.2425
  201MOL   H16948569   0.939   7.625   3.431 -0.8965  1.9610  1.8185
  201MOL   C17048570   1.034   7.230   3.597  0.1254 -0.6181 -0.0877
  201MOL   C17148571   1.181   7.273   3.609  0.1338  0.0504 -0.3484
  201MOL   C17248572   1.254   7.227   3.478 -0.4763 -0.4097  0.2193
  201MOL   C17348573   1.287   7.076   3.464  0.0848 -0.0328  0.1215
  201MOL   H17448574   1.014   7.190   3.498  2.6628 -1.4262 -0.2943
  201MOL   H17548575   1.023   7.142   3.661  1.0294 -1.9429 -1.7288
  201MOL   H17648576   1.180   7.381   3.625  0.1570  0.0182 -0.1167
  201MOL   H17748577   1.348   7.278   3.458 -1.2493  1.7476  1.9068
  201MOL   H17848578   1.191   7.252   3.393  1.2591  1.0391 -0.6628
  201MOL   H17948579   1.200   7.016   3.491 -1.0966  1.5424 -0.1201
  201MOL   H18048580   1.332   7.058   3.366  1.5023  1.8596  0.3954
  201MOL   H18148581   1.359   7.060   3.545  0.5474 -0.3575 -0.3470
  201MOL   C18248582   1.237   7.218   3.746  0.3281 -0.0769 -0.2275
  201MOL   C18348583   1.381   7.260   3.786  0.0417 -0.1508  0.0019
  201MOL   C18448584   1.428   7.176   3.907 -0.1425 -0.1285 -0.6932
  201MOL   C18548585   1.382   7.235   4.046  0.2115  0.2480 -0.2230
  201MOL   H18648586   1.227   7.109   3.742  1.6433 -0.1188 -4.1995
  201MOL   H18748587   1.166   7.250   3.823  0.9037  0.6430  0.0076
  201MOL   H18848588   1.444   7.234   3.700  0.9226 -1.4260  1.0042
  201MOL   H18948589   1.537   7.163   3.909  0.0522  1.4615 -0.3993
  201MOL   H19048590   1.381   7.078   3.904  0.3414 -0.4342  1.1233
  201MOL   H19148591   1.427   7.327   4.084 -0.3039  0.0812  0.7940
  201MOL   H19248592   1.274   7.249   4.043  0.3954  1.6136 -1.6989
  201MOL   H19348593   1.398   7.163   4.126 -0.8435  0.9507  0.6267
  201MOL   C19448594   1.390   7.414   3.804  0.2142 -0.4797  0.8342
  201MOL   C19548595   1.528   7.481   3.829  0.5639  0.1102  0.0051
  201MOL   C19648596   1.513   7.618   3.890 -0.1017  0.1621 -0.2175
  201MOL   C19748597   1.465   7.615   4.036  0.3751 -0.5755  0.2879
  201MOL   H19848598   1.318   7.423   3.886  0.3179  2.3813  0.6516
  201MOL   H19948599   1.352   7.466   3.716  1.1967 -2.1444 -0.5974
  201MOL   H20048600   1.573   7.419   3.907 -3.5675 -0.1882  2.2823
  201MOL   H20148601   1.439   7.667   3.827  1.5625  1.5185 -1.1574
  201MOL   H20248602   1.604   7.678   3.888  0.9640 -1.4144 -0.8802
  201MOL   H20348603   1.376   7.553   4.051  1.0072 -1.1384  1.8025
  201MOL   H20448604   1.545   7.574   4.097 -0.3080 -1.9790  0.2559
  201MOL   H20548605   1.450   0.008   4.080  0.2803  0.2324 -1.4829
  201MOL   C20648606   1.623   7.456   3.712 -0.3312 -0.1284 -0.8287
  201MOL   C20748607   1.592   7.534   3.576 -0.2892 -0.8937 -0.2664
  201MOL   C20848608   1.685   7.472   3.468  0.7209  0.0438 -0.1745
  201MOL   C20948609   1.622   7.357   3.385 -0.2106 -0.2742 -0.5861
  201MOL   H21048610   1.649   7.353   3.692  0.7667  0.0803 -0.5114
  201MOL   H21148611   1.721   7.494   3.740  0.7726 -1.4718 -2.7924
  201MOL   H21248612   1.491   7.519   3.538  0.3482  1.2104 -3.0151
  201MOL   H21348613   1.782   7.440   3.506 -0.1480 -0.2903  1.8266
  201MOL   H21448614   1.719   7.546   3.396  2.3026 -0.2110  0.3071
  201MOL   H21548615   1.578   7.278   3.447  2.6651 -1.2940  0.2598
  201MOL   H21648616   1.543   7.398   3.323  1.2056 -1.0579 -2.9693
  201MOL   H21748617   1.692   7.315   3.313  0.3429  0.4611 -0.4748
  201MOL   C21848618   1.613   7.688   3.595 -0.5292 -0.2291  0.4051
  201MOL   C21948619   1.478   0.055   3.553  0.0184 -0.4518  0.1148
  201MOL   C22048620   1.454   0.045   3.404 -0.0374 -0.3254 -0.1670
  201MOL   C22148621   1.319   0.095   3.353  0.5728  0.0978 -0.5124
  201MOL   H22248622   1.695   0.021   3.534 -0.3537 -1.4884 -0.1787
  201MOL   H22348623   1.641   0.015   3.695  1.1095 -0.5501  0.0597
  201MOL   H22448624   1.395   0.005   3.602  0.2264 -0.6845  0.2289
  201MOL   H22548625   1.457   7.644   3.382 -0.6599 -0.6758  1.3874
  201MOL   H22648626   1.538   0.093   3.354  0.6756 -0.2482  1.0716
  201MOL   H22748627   1.301   0.047   3.257  0.7627 -1.5210  0.2586
  201MOL   H22848628   1.237   0.060   3.416  1.1928 -0.5167 -0.0496
  201MOL   H22948629   1.306   0.200   3.324  0.6728  0.3933  0.4782
  201MOL   C23048630   1.482   0.203   3.603  0.4547 -0.0192  0.3739
  201MOL   C23148631   1.348   0.281   3.591  0.5579 -0.2656  0.1376
  201MOL   C23248632   1.357   0.420   3.661 -1.0140 -0.1429 -0.7174
  201MOL   C23348633   1.232   0.498   3.639  0.4772 -0.3297  0.1713
  201MOL   H23448634   1.560   0.260   3.552  1.1592 -1.2723  0.0224
  201MOL   H23548635   1.517   0.212   3.705  0.7574 -0.0122  0.2716
  201MOL   H23648636   1.317   0.308   3.490  0.6517  0.5720  0.3338
  201MOL   H23748637   1.451   0.466   3.633  0.1303 -2.6481 -1.0694
  201MOL   H23848638   1.358   0.408   3.770  1.0861 -2.9753 -1.0022
  201MOL   H23948639   1.146   0.434   3.658  0.6045 -0.9142 -1.1747
  201MOL   H24048640   1.225   0.582   3.708  0.2147  0.8425 -1.2555
  201MOL   H24148641   1.222   0.545   3.541  0.8417 -0.5106  0.0480
  201MOL   H24248642   1.273   0.218   3.639 -2.7709  2.0020 -1.8978
  202MOL     C148643   1.546   4.056   1.938  0.8111  0.2828  0.2776
  202MOL     C248644   1.653   3.985   1.865  0.6577  0.1635  0.6850
  202MOL     C348645   1.631   3.832   1.868 -0.2973 -0.1542 -0.9054
  202MOL     C448646   1.490   3.791   1.815  0.1581  0.2925  0.0302
  202MOL     H548647   1.538   4.026   2.043  1.0422 -0.3055  0.1327
  202MOL     H648648   1.567   4.163   1.936  0.7759  0.3091  1.1421
  202MOL     H748649   1.659   4.005   1.758  3.7162  0.0796  0.7878
  202MOL     H848650   1.657   3.799   1.969 -0.2828 -2.2474 -1.5749
  202MOL     H948651   1.705   3.788   1.801  0.7363  0.5673 -0.2543
  202MOL    H1048652   1.410   3.813   1.886  0.9992  1.6270  0.5869
  202MOL    H1148653   1.471   3.838   1.719 -2.3024 -1.1941 -0.2563
  202MOL    H1248654   1.490   3.687   1.782 -1.4910 -0.3999  2.0790
  202MOL    H1348655   1.449   4.034   1.895  0.9116  2.8079 -1.3043
  202MOL    C1448656   1.791   4.020   1.930 -0.0852 -0.5143  0.1354
  202MOL    C1548657   1.854   4.162   1.895 -0.2939 -0.0844  0.2033
  202MOL    C1648658   1.893   4.175   1.743 -0.0684 -0.5436 -0.2954
  202MOL    C1748659   1.933   4.318   1.700  0.0695 -0.4245  0.6063
  202MOL    H1848660   1.856   3.941   1.893  1.0671 -0.2298  1.5294
  202MOL    H1948661   1.790   3.998   2.037 -1.1535 -1.7701 -0.1191
  202MOL    H2048662   1.780   4.242   1.905 -0.0700  0.2582 -0.7548
  202MOL    H2148663   1.807   4.156   1.678 -0.7260  1.2472  0.0196
  202MOL    H2248664   1.962   4.098   1.711  0.4350  0.6769 -2.2866
  202MOL    H2348665   1.885   4.331   1.603  1.0483  2.9832  0.5464
  202MOL    H2448666   1.908   4.397   1.771  3.0859  0.0476  1.2077
  202MOL    H2548667   2.039   4.323   1.676 -0.1756 -1.3838 -0.7385
  202MOL    C2648668   1.974   4.194   1.988 -0.1566  0.3806 -0.5067
  202MOL    C2748669   1.964   4.299   2.105 -0.3235  0.3276 -0.4117
  202MOL    C2848670   2.103   4.322   2.169  0.6742  0.0703 -0.0359
  202MOL    C2948671   2.187   4.206   2.229  0.0912  0.2193  0.4244
  202MOL    H3048672   2.059   4.227   1.928  0.2550  1.4687  0.6579
  202MOL    H3148673   2.010   4.098   2.025  0.5908  0.1068 -1.8971
  202MOL    H3248674   1.941   4.395   2.059 -1.5504  0.2228 -0.0222
  202MOL    H3348675   2.099   4.397   2.247 -1.0615  1.1057 -1.0811
  202MOL    H3448676   2.169   4.369   2.096 -0.4038  0.7050 -0.6107
  202MOL    H3548677   2.132   4.157   2.309 -0.4905 -1.6516 -1.0738
  202MOL    H3648678   2.220   4.130   2.158  0.4760 -1.0995  1.9916
  202MOL    H3748679   2.281   4.244   2.269  1.4230 -1.3004 -1.1322
  202MOL    C3848680   1.843   4.256   2.207 -0.2693 -0.0052 -0.3257
  202MOL    C3948681   1.822   4.341   2.331 -0.2481 -0.1604  0.5782
  202MOL    C4048682   1.734   4.269   2.428  0.7307 -0.3983 -0.8705
  202MOL    C4148683   1.798   4.157   2.515  0.1661 -0.4832 -0.5230
  202MOL    H4248684   1.873   4.156   2.241 -1.6413  0.1876  1.5020
  202MOL    H4348685   1.758   4.249   2.140 -1.2082  1.0913  0.7322
  202MOL    H4448686   1.919   4.352   2.380  0.8841  0.7698 -1.8066
  202MOL    H4548687   1.648   4.230   2.374 -1.1657 -1.8895  3.0082
  202MOL    H4648688   1.684   4.338   2.496  0.9748 -1.0690  0.0031
  202MOL    H4748689   1.871   4.197   2.585 -2.3197 -0.4207  2.1102
  202MOL    H4848690   1.723   4.109   2.578 -2.2234  1.6514 -1.6947
  202MOL    H4948691   1.844   4.077   2.457 -0.6910 -1.8506  0.6442
  202MOL    C5048692   1.777   4.480   2.299  0.1062  0.0523  0.2414
  202MOL    C5148693   1.642   4.504   2.237 -0.5435 -0.5028 -0.3964
  202MOL    C5248694   1.638   4.515   2.086 -0.2329 -0.3451 -0.3358
  202MOL    C5348695   1.701   4.637   2.032  0.3706  0.2931  0.7198
  202MOL    H5448696   1.856   4.536   2.249  0.0040  0.7138  0.8197
  202MOL    H5548697   1.774   4.525   2.398 -1.0733 -1.8330  1.0960
  202MOL    H5648698   1.584   4.414   2.258  0.7399 -1.3807 -0.5299
  202MOL    H5748699   1.533   4.516   2.057  0.4243  0.0857 -2.8591
  202MOL    H5848700   1.683   4.427   2.039 -0.4074  0.1539 -1.4635
  202MOL    H5948701   1.703   4.639   1.923 -1.4320  3.9256  0.6960
  202MOL    H6048702   1.655   4.734   2.050  0.8255  0.8191 -0.8455
  202MOL    H6148703   1.807   4.638   2.056  0.7312 -0.6287 -0.7574
  202MOL    C6248704   1.560   4.623   2.296 -0.5945 -0.2547 -0.7143
  202MOL    C6348705   1.514   4.622   2.446  0.0701  0.5375  0.4120
  202MOL    C6448706   1.399   4.528   2.472  0.6990  1.4642 -0.4068
  202MOL    C6548707   1.275   4.554   2.384  0.2341 -0.5797  0.5415
  202MOL    H6648708   1.475   4.632   2.229 -0.7287 -0.9451 -0.6463
  202MOL    H6748709   1.629   4.705   2.277  0.9762 -1.4469 -0.2810
  202MOL    H6848710   1.588   4.580   2.514 -2.6532 -2.1610  1.8463
  202MOL    H6948711   1.384   4.524   2.580 -1.2119  0.4126 -0.6982
  202MOL    H7048712   1.434   4.432   2.434  0.3105  1.5486 -0.9698
  202MOL    H7148713   1.233   4.654   2.384  0.0410 -0.6587  0.5350
  202MOL    H7248714   1.294   4.520   2.282  1.0579  1.6371 -0.0615
  202MOL    H7348715   1.197   4.492   2.427 -0.8954 -0.5459 -1.3890
  202MOL    C7448716   1.487   4.759   2.513 -0.5971 -0.7763  0.6897
  202MOL    C7548717   1.606   4.855   2.535  0.6120  0.6549 -0.3111
  202MOL    C7648718   1.714   4.784   2.618  0.1175  0.5989  0.2511
  202MOL    C7748719   1.660   4.743   2.759 -0.3997 -0.0119  0.2752
  202MOL    H7848720   1.423   4.755   2.601 -0.6120 -2.5960  0.6042
  202MOL    H7948721   1.424   4.807   2.437 -0.0735 -1.8873 -0.4527
  202MOL    H8048722   1.654   4.866   2.438  2.0431 -0.4804  0.2499
  202MOL    H8148723   1.802   4.847   2.626  0.1082  1.0175 -2.3375
  202MOL    H8248724   1.751   4.695   2.567 -1.7077  0.4602 -0.9078
  202MOL    H8348725   1.603   4.821   2.810  0.8919  0.8300  0.4292
  202MOL    H8448726   1.596   4.656   2.744  1.1397 -0.9608 -0.9346
  202MOL    H8548727   1.748   4.717   2.818 -0.5443  1.0141  0.9492
  202MOL    C8648728   1.579   5.001   2.589 -0.8997  0.0669  1.0688
  202MOL    C8748729   1.491   5.085   2.496  0.2350  0.4980  0.2750
  202MOL    C8848730   1.555   5.223   2.448 -0.2719  1.1735 -1.1837
  202MOL    C8948731   1.602   5.322   2.553 -0.8775  0.3617 -0.2140
  202MOL    H9048732   1.679   5.042   2.599 -0.5125  0.8674 -4.4172
  202MOL    H9148733   1.539   4.998   2.691 -2.8803 -1.9771  0.2807
  202MOL    H9248734   1.466   5.027   2.407  0.0886  1.4632 -0.3209
  202MOL    H9348735   1.481   5.275   2.388  1.8305  1.5735 -3.5114
  202MOL    H9448736   1.635   5.206   2.375 -0.6046  0.6295 -1.4247
  202MOL    H9548737   1.674   5.269   2.615 -0.1308  0.5939 -0.8688
  202MOL    H9648738   1.646   5.406   2.498 -0.3435  0.8144  0.8972
  202MOL    H9748739   1.522   5.350   2.621  0.8059 -0.9902  2.3790
  202MOL    C9848740   1.360   5.119   2.575 -0.5595 -0.5482  0.1802
  202MOL    C9948741   1.245   5.162   2.473  0.2052  0.4967  0.2688
  202MOL   C10048742   1.151   5.267   2.538 -0.4310  0.4839 -0.5531
  202MOL   C10148743   1.226   5.404   2.568  0.5009  0.8491 -0.2548
  202MOL   H10248744   1.390   5.199   2.643 -0.3355  0.1223 -0.7059
  202MOL   H10348745   1.328   5.041   2.644 -3.1117 -0.2340 -0.5822
  202MOL   H10448746   1.287   5.198   2.379  0.6467 -1.0113 -0.1347
  202MOL   H10548747   1.099   5.237   2.629  1.9212 -1.0959  0.3270
  202MOL   H10648748   1.070   5.291   2.469 -1.5845 -1.7857 -0.0487
  202MOL   H10748749   1.163   5.483   2.609 -0.1621 -0.4298  1.2426
  202MOL   H10848750   1.295   5.383   2.650  0.8873 -1.3332 -1.1128
  202MOL   H10948751   1.278   5.440   2.480 -1.7320  0.3611 -1.7987
  202MOL   C11048752   1.175   5.035   2.444 -0.2476  0.4605  0.5432
  202MOL   C11148753   1.057   5.034   2.336  0.0156 -0.5233 -0.1023
  202MOL   C11248754   0.991   4.896   2.342  0.4793 -0.0789  0.5439
  202MOL   C11348755   0.837   4.899   2.329  0.1518 -0.1598  0.4517
  202MOL   H11448756   1.140   5.007   2.543  3.1122 -0.4678  1.5554
  202MOL   H11548757   1.245   4.960   2.406 -0.7933 -0.0467  0.5277
  202MOL   H11648758   0.980   5.099   2.380 -0.9069 -1.7631  0.1531
  202MOL   H11748759   1.012   4.840   2.433  0.2136  1.5868  1.6633
  202MOL   H11848760   1.023   4.829   2.263 -0.7379  0.4561 -0.4101
  202MOL   H11948761   0.800   4.800   2.353 -0.6394  0.2567  0.9887
  202MOL   H12048762   0.792   4.976   2.393 -0.4127  0.6302 -0.8840
  202MOL   H12148763   0.792   4.915   2.231  0.3016  0.5079  0.4892
  202MOL   C12248764   1.080   5.084   2.187  0.0082 -0.4585 -0.4139
  202MOL   C12348765   0.964   5.114   2.087  0.2279 -0.4758  0.1009
  202MOL   C12448766   1.013   5.126   1.938 -0.0577 -0.1581  0.3754
  202MOL   C12548767   1.130   5.223   1.914 -0.1721  0.2625  0.2708
  202MOL   H12648768   1.142   5.005   2.144  3.0729  1.0274  1.0668
  202MOL   H12748769   1.153   5.164   2.198  0.3548 -0.7716 -0.4140
  202MOL   H12848770   0.892   5.032   2.082 -0.6177  0.2935 -0.9360
  202MOL   H12948771   0.927   5.147   1.874  0.7302  1.6840 -0.1146
  202MOL   H13048772   1.045   5.027   1.902 -1.5522 -0.5934  0.2191
  202MOL   H13148773   1.147   5.219   1.806  1.8737  0.0721  0.5861
  202MOL   H13248774   1.103   5.325   1.942 -1.8272 -0.4087  1.1405
  202MOL   H13348775   1.218   5.187   1.968  0.4396  0.2066 -0.7569
  202MOL   C13448776   0.896   5.245   2.125  0.1599  1.3264 -0.2283
  202MOL   C13548777   0.749   5.224   2.164  0.1219 -0.6241 -0.4697
  202MOL   C13648778   0.668   5.184   2.038 -0.3025  0.4695 -0.3216
  202MOL   C13748779   0.543   5.099   2.074  0.1132 -0.0489 -0.5204
  202MOL   H13848780   0.900   5.315   2.042 -1.2752  3.2431  1.2701
  202MOL   H13948781   0.958   5.290   2.203  0.5210 -0.6564  0.6712
  202MOL   H14048782   0.743   5.138   2.230  0.8562 -1.6934 -1.7827
  202MOL   H14148783   0.734   5.129   1.970  2.4328  0.3657  2.3027
  202MOL   H14248784   0.626   5.273   1.992 -0.9226  0.9792  1.2014
  202MOL   H14348785   0.504   5.073   1.975 -0.6534  2.3203 -0.8746
  202MOL   H14448786   0.565   5.007   2.129  1.4974 -0.5845 -1.9117
  202MOL   H14548787   0.470   5.163   2.122 -0.4191 -0.7770 -0.3531
  202MOL   C14648788   0.689   5.356   2.234  0.0160  0.5845 -0.5328
  202MOL   C14748789   0.735   5.402   2.371  0.2205 -0.7014 -0.3184
  202MOL   C14848790   0.699   5.307   2.483 -0.1424 -0.3350  0.3649
  202MOL   C14948791   0.762   5.345   2.611  0.0854 -0.4554  0.5683
  202MOL   H15048792   0.581   5.345   2.241 -0.3843  3.5012 -1.3748
  202MOL   H15148793   0.712   5.441   2.170  1.0368  1.2197  0.6362
  202MOL   H15248794   0.843   5.418   2.377 -0.1597  2.7160 -1.4167
  202MOL   H15348795   0.730   5.214   2.435 -1.3150 -0.5071 -0.0918
  202MOL   H15448796   0.591   5.300   2.493 -0.3251 -0.6954 -1.5969
  202MOL   H15548797   0.735   5.443   2.650 -1.1492 -0.0606 -1.2164
  202MOL   H15648798   0.727   5.265   2.677  0.8103 -0.4230  0.9991
  202MOL   H15748799   0.871   5.334   2.610  0.1987  0.6683 -1.1030
  202MOL   C15848800   0.679   5.545   2.399  0.5690  0.0302 -0.1917
  202MOL   C15948801   0.742   5.663   2.315 -0.0761 -0.0974 -0.1109
  202MOL   C16048802   0.897   5.653   2.297  0.1402 -0.0612 -0.1065
  202MOL   C16148803   0.974   5.659   2.428 -0.1754  0.2102 -0.4190
  202MOL   H16248804   0.693   5.577   2.502 -1.1029 -0.9256  0.3606
  202MOL   H16348805   0.571   5.558   2.387  0.1524 -3.2402 -0.5438
  202MOL   H16448806   0.711   5.652   2.211  0.1315  1.2317 -0.3198
  202MOL   H16548807   0.927   5.739   2.237  0.7145  0.3491  0.7563
  202MOL   H16648808   0.926   5.561   2.246  1.6884 -1.3026  2.8689
  202MOL   H16748809   0.981   5.759   2.470 -0.6114 -0.2986  0.8676
  202MOL   H16848810   0.922   5.609   2.509  0.8780  1.5999  1.1381
  202MOL   H16948811   1.071   5.609   2.417  0.7785  1.8028  0.5117
  202MOL   C17048812   0.700   5.811   2.353 -0.4996  0.0434  0.1405
  202MOL   C17148813   0.547   5.835   2.357  0.7178  0.5940  0.2243
  202MOL   C17248814   0.499   5.883   2.213 -0.0116  0.0008 -0.0868
  202MOL   C17348815   0.352   5.850   2.185  0.2125 -0.2543 -0.0412
  202MOL   H17448816   0.742   5.883   2.283  0.3988 -1.4199 -0.8421
  202MOL   H17548817   0.737   5.839   2.452 -0.7426  1.6429 -0.2059
  202MOL   H17648818   0.489   5.743   2.367 -1.8457  2.2780  1.7554
  202MOL   H17748819   0.548   5.832   2.131 -1.4984  1.4956 -1.9547
  202MOL   H17848820   0.526   5.987   2.193 -0.5382 -0.2209 -1.9711
  202MOL   H17948821   0.329   5.883   2.084 -2.2957 -0.9482  0.2795
  202MOL   H18048822   0.331   5.744   2.195 -1.6825  0.1943  0.9850
  202MOL   H18148823   0.296   5.913   2.254  0.2561 -0.0704 -0.1732
  202MOL   C18248824   0.501   5.923   2.475  0.3735  0.1121 -0.7101
  202MOL   C18348825   0.507   5.854   2.614 -0.7192 -0.1061  0.7934
  202MOL   C18448826   0.377   5.775   2.641 -0.6287 -0.0940 -0.3562
  202MOL   C18548827   0.406   5.631   2.681 -0.2793 -0.8312  0.1398
  202MOL   H18648828   0.405   5.964   2.445  0.0729 -1.8873 -2.5614
  202MOL   H18748829   0.553   6.018   2.467  2.4807 -0.8499  1.0339
  202MOL   H18848830   0.591   5.785   2.609 -0.6061 -0.0732  2.2067
  202MOL   H18948831   0.301   5.771   2.563 -0.3128  0.9792 -0.7292
  202MOL   H19048832   0.323   5.821   2.724  0.1854 -0.6602  0.5009
  202MOL   H19148833   0.440   5.577   2.593 -0.7800  0.7511 -1.0407
  202MOL   H19248834   0.467   5.635   2.772  0.1835 -2.0264 -0.1044
  202MOL   H19348835   0.310   5.582   2.697  0.0384 -0.5909  3.0319
  202MOL   C19448836   0.543   5.951   2.724 -0.2935 -0.0763 -0.1208
  202MOL   C19548837   0.602   5.890   2.863  0.5619 -0.4912 -0.2261
  202MOL   C19648838   0.595   6.007   2.968  0.5747  0.1886  0.4137
  202MOL   C19748839   0.692   6.121   2.950  0.2655 -0.0652  0.6286
  202MOL   H19848840   0.449   6.005   2.724 -0.9084 -1.0945 -2.4548
  202MOL   H19948841   0.628   6.011   2.691  2.6143 -2.3976  2.8382
  202MOL   H20048842   0.529   5.817   2.898  0.5909 -0.3382  0.1617
  202MOL   H20148843   0.607   5.970   3.070 -3.1788  1.0497  1.2564
  202MOL   H20248844   0.493   6.045   2.964  1.5191  3.0839  1.9383
  202MOL   H20348845   0.692   6.185   3.038 -1.1187 -2.1885  2.2273
  202MOL   H20448846   0.798   6.097   2.942  0.2184 -0.5523  1.4121
  202MOL   H20548847   0.674   6.182   2.861 -0.4144  1.4197  1.7571
  202MOL   C20648848   0.744   5.827   2.847  0.0575 -0.2849  0.5803
  202MOL   C20748849   0.810   5.763   2.970  0.3628  0.0827 -0.5324
  202MOL   C20848850   0.940   5.694   2.936  0.2745 -0.1457 -0.4276
  202MOL   C20948851   0.945   5.582   2.832  0.2954  0.0657 -0.3273
  202MOL   H21048852   0.818   5.905   2.832  0.4106 -0.9533 -1.3749
  202MOL   H21148853   0.748   5.766   2.756 -1.6558  0.8218 -0.2672
  202MOL   H21248854   0.836   5.838   3.045 -1.0336  0.0805 -0.0298
  202MOL   H21348855   0.981   5.660   3.032 -1.0823 -0.3400  0.0886
  202MOL   H21448856   1.015   5.760   2.892 -1.3368  1.1679 -1.2249
  202MOL   H21548857   0.926   5.623   2.733  0.7632 -1.3061 -0.9992
  202MOL   H21648858   1.043   5.534   2.839  0.0293 -0.4086  0.1814
  202MOL   H21748859   0.860   5.518   2.855  0.1680  0.3168 -0.0936
  202MOL   C21848860   0.702   5.664   3.037 -0.4172  0.1161 -0.2813
  202MOL   C21948861   0.747   5.549   3.137  0.1243 -0.3950 -0.6958
  202MOL   C22048862   0.654   5.425   3.130 -0.4542  0.1861  0.0344
  202MOL   C22148863   0.710   5.321   3.031 -0.7525 -0.2114 -0.1039
  202MOL   H22248864   0.658   5.624   2.946 -1.1011  1.1479 -0.4169
  202MOL   H22348865   0.621   5.726   3.074 -1.0920 -2.0742  2.0413
  202MOL   H22448866   0.849   5.515   3.123 -0.6875 -3.1584 -0.1681
  202MOL   H22548867   0.550   5.452   3.112  0.3219  0.4527 -4.6321
  202MOL   H22648868   0.661   5.378   3.228 -0.6471  2.1699  1.0327
  202MOL   H22748869   0.721   5.362   2.930 -0.0200  0.0331  0.0714
  202MOL   H22848870   0.815   5.292   3.041 -1.1627 -0.9590  2.1988
  202MOL   H22948871   0.650   5.230   3.026 -0.5559 -0.2998 -1.1306
  202MOL   C23048872   0.731   5.613   3.278 -0.6497 -0.3505 -0.6049
  202MOL   C23148873   0.818   5.743   3.299 -0.2348  1.1386  0.0907
  202MOL   C23248874   0.839   5.792   3.442  0.8298 -0.4848  0.0018
  202MOL   C23348875   0.972   5.745   3.518 -0.0130  0.3842 -0.3033
  202MOL   H23448876   0.756   5.544   3.359  0.1473  1.7302  0.9537
  202MOL   H23548877   0.628   5.646   3.291 -1.0306 -2.3514  1.7678
  202MOL   H23648878   0.919   5.735   3.257 -0.1986 -0.1268  0.3742
  202MOL   H23748879   0.757   5.745   3.496  1.1975 -1.9400 -0.6811
  202MOL   H23848880   0.833   5.900   3.434  2.3001 -0.4083 -0.2395
  202MOL   H23948881   1.062   5.761   3.460 -0.6602 -1.6056 -1.9111
  202MOL   H24048882   0.984   5.804   3.609 -0.9972  0.7403 -0.3909
  202MOL   H24148883   0.964   5.641   3.548 -1.7331 -0.1756 -2.5448
  202MOL   H24248884   0.773   5.829   3.251 -0.9534 -0.0376 -1.3752
  203MOL     C148885   1.244   4.587   3.894  0.0218 -0.6542  0.0300
  203MOL     C248886   1.393   4.558   3.904 -0.2440 -0.5070  0.1624
  203MOL     C348887   1.484   4.678   3.865 -0.3419  0.5444  0.0436
  203MOL     C448888   1.624   4.673   3.926  0.1645  0.5811  0.1646
  203MOL     H548889   1.224   4.683   3.941 -0.8778 -1.3151  1.0193
  203MOL     H648890   1.205   4.600   3.793 -0.3306 -3.1409 -0.1771
  203MOL     H748891   1.417   4.551   4.010  1.6042 -0.4700 -0.2305
  203MOL     H848892   1.446   4.769   3.911  1.0097  0.8235  0.6410
  203MOL     H948893   1.471   4.701   3.759  0.9043 -0.6066 -0.3756
  203MOL    H1048894   1.675   4.583   3.893  0.8312  0.2841  1.9546
  203MOL    H1148895   1.685   4.763   3.912  0.4603  0.1828 -1.1378
  203MOL    H1248896   1.616   4.663   4.034  0.6035 -0.3946  0.1063
  203MOL    H1348897   1.192   4.505   3.944 -0.0028  0.8295  2.5043
  203MOL    C1448898   1.429   4.427   3.827 -0.5386  0.0731  0.4486
  203MOL    C1548899   1.329   4.308   3.842 -0.6840  0.2449  0.6071
  203MOL    C1648900   1.319   4.250   3.987 -0.1522  0.0322 -0.1280
  203MOL    C1748901   1.442   4.187   4.058  0.0971  0.0978  0.6174
  203MOL    H1848902   1.530   4.392   3.849 -1.0701 -2.9165 -1.4724
  203MOL    H1948903   1.432   4.456   3.722  0.1611  0.9755  0.7082
  203MOL    H2048904   1.226   4.335   3.819 -0.9236 -0.6238  0.6170
  203MOL    H2148905   1.228   4.189   3.988 -0.3540  0.3365  0.1308
  203MOL    H2248906   1.277   4.326   4.053  1.8102 -1.3318  2.8590
  203MOL    H2348907   1.414   4.175   4.163 -0.6617 -1.4730  0.2486
  203MOL    H2448908   1.472   4.090   4.019 -1.7260  0.0196 -0.6724
  203MOL    H2548909   1.524   4.258   4.067 -0.1035  0.6239 -1.6101
  203MOL    C2648910   1.373   4.183   3.749 -0.3225  0.6581 -0.0823
  203MOL    C2748911   1.372   4.207   3.596  0.9762  0.7350 -0.7653
  203MOL    C2848912   1.241   4.273   3.540 -0.2477 -0.1157 -0.1635
  203MOL    C2948913   1.117   4.177   3.526 -0.2136 -0.4736  0.0483
  203MOL    H3048914   1.293   4.110   3.764  0.4115  0.1673  1.4557
  203MOL    H3148915   1.466   4.138   3.785 -0.0205  1.3620  0.0177
  203MOL    H3248916   1.450   4.278   3.569  1.8199  0.5634  1.1227
  203MOL    H3348917   1.267   4.318   3.444  1.0346 -0.9934 -0.2488
  203MOL    H3448918   1.199   4.361   3.589 -0.0898 -0.2397  0.1972
  203MOL    H3548919   1.132   4.079   3.572  1.0864 -0.1999  0.2234
  203MOL    H3648920   1.023   4.219   3.560 -0.5638 -0.3004 -1.1281
  203MOL    H3748921   1.105   4.172   3.418 -0.3566  0.8170  0.0036
  203MOL    C3848922   1.406   4.076   3.524 -0.1096  0.6872  0.5834
  203MOL    C3948923   1.557   4.059   3.502 -0.2761  0.3091  0.8964
  203MOL    C4048924   1.593   4.110   3.362  0.4055  0.0329  0.4950
  203MOL    C4148925   1.727   4.167   3.354 -0.4320  0.0128 -0.6966
  203MOL    H4248926   1.356   4.072   3.427 -0.4624  1.3882  0.7298
  203MOL    H4348927   1.362   3.990   3.574 -0.8737  1.7652  1.7845
  203MOL    H4448928   1.603   4.126   3.575  1.9301  1.7823 -1.7430
  203MOL    H4548929   1.521   4.188   3.336 -0.4262 -1.0351 -0.4907
  203MOL    H4648930   1.589   4.023   3.297  2.2336  0.9704 -0.9033
  203MOL    H4748931   1.753   4.236   3.434  0.9330 -0.5564 -0.6392
  203MOL    H4848932   1.812   4.099   3.353 -0.1675  0.3276  0.3963
  203MOL    H4948933   1.737   4.220   3.259  1.4475 -2.5374 -1.9920
  203MOL    C5048934   1.609   3.912   3.523  0.4215 -0.5311  0.0282
  203MOL    C5148935   1.620   3.889   3.675  0.2623 -0.0339  0.0716
  203MOL    C5248936   1.765   3.921   3.727  0.6252  0.6531 -0.4374
  203MOL    C5348937   1.770   3.959   3.871 -0.6281  0.1537  0.2122
  203MOL    H5448938   1.705   3.897   3.473  0.9565 -0.1165  0.9312
  203MOL    H5548939   1.550   3.839   3.468 -0.1566  0.4624 -0.6884
  203MOL    H5648940   1.550   3.958   3.722 -0.1426  2.0607 -3.4796
  203MOL    H5748941   1.804   4.003   3.667 -1.9326  1.3253 -1.2688
  203MOL    H5848942   1.836   3.840   3.710  0.7514  0.9714 -1.5096
  203MOL    H5948943   1.722   4.057   3.876 -3.8029 -1.0632 -3.6392
  203MOL    H6048944   1.721   3.886   3.935 -1.1765  1.8648  1.7831
  203MOL    H6148945   1.869   3.979   3.912 -0.4860  0.2466 -0.1681
  203MOL    C6248946   1.596   3.741   3.720 -0.4103  0.4941  0.2250
  203MOL    C6348947   1.452   3.679   3.699 -0.3722  0.8715 -0.0887
  203MOL    C6448948   1.351   3.725   3.801  0.1039 -0.0810  0.5756
  203MOL    C6548949   1.204   3.696   3.771 -0.3367  0.1273 -0.3620
  203MOL    H6648950   1.633   3.724   3.821 -1.5472 -0.5953  0.4763
  203MOL    H6748951   1.661   3.677   3.661 -0.7601 -0.5415  0.9418
  203MOL    H6848952   1.418   3.707   3.600  0.3867 -1.3947 -1.0269
  203MOL    H6948953   1.354   3.834   3.801  0.1186 -0.0682 -1.4392
  203MOL    H7048954   1.385   3.694   3.900 -0.1804 -0.4315  0.5635
  203MOL    H7148955   1.171   3.751   3.683 -2.1095 -1.3835 -0.6537
  203MOL    H7248956   1.203   3.589   3.752  0.8712  0.4919 -2.6932
  203MOL    H7348957   1.140   3.709   3.858 -0.7690  1.6423 -0.8777
  203MOL    C7448958   1.463   3.532   3.684  0.2131  0.0743  0.0737
  203MOL    C7548959   1.430   3.472   3.543  0.1845 -0.3351 -0.2910
  203MOL    C7648960   1.421   3.321   3.560  0.0184  0.2467 -1.1111
  203MOL    C7748961   1.547   3.251   3.608 -0.3329 -0.0463 -0.2963
  203MOL    H7848962   1.408   3.482   3.764 -1.4734 -1.8852 -2.2552
  203MOL    H7948963   1.559   3.494   3.717 -0.1465 -0.2751  0.7204
  203MOL    H8048964   1.329   3.509   3.529  0.0184 -0.4373  0.6245
  203MOL    H8148965   1.391   3.293   3.459 -4.5278  2.1223 -0.3933
  203MOL    H8248966   1.331   3.299   3.618 -0.7675 -0.1181 -2.4567
  203MOL    H8348967   1.533   3.143   3.602  1.0702 -0.2832  0.4900
  203MOL    H8448968   1.631   3.272   3.541 -1.0384  2.3399 -0.4928
  203MOL    H8548969   1.588   3.269   3.707  0.2733  2.9304 -1.0444
  203MOL    C8648970   1.516   3.519   3.426 -0.3911  0.0800 -0.5894
  203MOL    C8748971   1.477   3.482   3.282 -0.1582  0.6173 -0.0476
  203MOL    C8848972   1.567   3.531   3.170 -0.6257 -0.0373  0.6655
  203MOL    C8948973   1.704   3.464   3.171  0.3766 -0.5950 -0.2981
  203MOL    H9048974   1.621   3.499   3.450 -0.0625  2.5611  0.2378
  203MOL    H9148975   1.504   3.627   3.438  0.2840 -0.1231  2.3705
  203MOL    H9248976   1.485   3.374   3.270  2.9994  1.0595 -2.6392
  203MOL    H9348977   1.571   3.640   3.172 -1.2582 -0.0250  3.1385
  203MOL    H9448978   1.520   3.521   3.072  0.5214  0.5740  0.0478
  203MOL    H9548979   1.773   3.509   3.243 -1.1021  1.0392  0.1200
  203MOL    H9648980   1.709   3.357   3.194 -2.9119 -1.0697 -1.5383
  203MOL    H9748981   1.749   3.477   3.073 -0.3516  0.4952 -0.4959
  203MOL    C9848982   1.329   3.524   3.253  0.3798 -0.2628 -0.3734
  203MOL    C9948983   1.295   3.672   3.242 -0.8360  0.3193  0.0756
  203MOL   C10048984   1.189   3.722   3.349  0.5355 -0.3668  0.0301
  203MOL   C10148985   1.050   3.668   3.332 -0.9484 -0.2206  0.1133
  203MOL   H10248986   1.260   3.478   3.324  0.6549 -1.0836 -0.6246
  203MOL   H10348987   1.307   3.471   3.160  0.6838  0.3585 -0.7973
  203MOL   H10448988   1.386   3.722   3.274  0.7001 -2.5918  0.4320
  203MOL   H10548989   1.187   3.831   3.344 -0.4083 -0.3565  0.4966
  203MOL   H10648990   1.224   3.700   3.450  1.9154  0.8734 -0.1566
  203MOL   H10748991   1.043   3.561   3.348  0.5477 -0.5170 -1.1417
  203MOL   H10848992   0.967   3.711   3.388 -0.6228  2.9650 -1.7306
  203MOL   H10948993   1.012   3.688   3.231 -1.8023  0.5663  0.5805
  203MOL   C11048994   1.264   3.719   3.101  0.0613 -0.5260 -0.3114
  203MOL   C11148995   1.337   3.843   3.050  0.3973  0.4391 -0.9634
  203MOL   C11248996   1.320   3.968   3.138 -0.7739 -0.3200  0.5503
  203MOL   C11348997   1.179   4.032   3.137  0.6034 -0.1681  1.0248
  203MOL   H11448998   1.159   3.736   3.074  0.5105  0.8341 -1.2332
  203MOL   H11548999   1.293   3.644   3.027  1.5408 -1.2331  0.9578
  203MOL   H11649000   1.443   3.821   3.056 -0.2958 -2.7660  0.2681
  203MOL   H11749001   1.396   4.041   3.111 -1.1777 -0.7977 -2.0250
  203MOL   H11849002   1.343   3.943   3.242 -1.5280  0.9766  1.0429
  203MOL   H11949003   1.174   4.128   3.188 -1.8264  0.4576 -0.3095
  203MOL   H12049004   1.144   4.050   3.035  1.7903 -1.5007  0.3695
  203MOL   H12149005   1.120   3.956   3.188  1.9614 -2.1592 -0.3136
  203MOL   C12249006   1.314   3.871   2.899 -0.0175 -0.3079 -0.2006
  203MOL   C12349007   1.410   3.966   2.836 -0.6231  0.0699 -0.5928
  203MOL   C12449008   1.343   4.090   2.768  0.5902 -0.3909  0.3856
  203MOL   C12549009   1.433   4.213   2.749  0.0288  0.1180  0.6400
  203MOL   H12649010   1.210   3.902   2.886  1.0360  3.1708 -0.8552
  203MOL   H12749011   1.314   3.774   2.850 -3.5370 -0.8607  0.7550
  203MOL   H12849012   1.465   4.011   2.919 -1.1721  0.2920 -0.3455
  203MOL   H12949013   1.254   4.117   2.824  0.0125 -0.3637 -0.5372
  203MOL   H13049014   1.310   4.049   2.673  1.3145  1.1362 -0.5406
  203MOL   H13149015   1.375   4.291   2.699  0.9878  0.2063 -0.3475
  203MOL   H13249016   1.471   4.247   2.845  2.4972  2.2557 -1.0413
  203MOL   H13349017   1.514   4.203   2.677 -1.6453  1.7239 -1.5407
  203MOL   C13449018   1.513   3.896   2.735  0.0738 -0.0549 -0.0660
  203MOL   C13549019   1.631   3.816   2.796  0.4666 -0.4354  0.9144
  203MOL   C13649020   1.725   3.897   2.882  0.2612  0.9063  0.0549
  203MOL   C13749021   1.794   3.832   2.999 -0.7025  0.3520 -0.1975
  203MOL   H13849022   1.560   3.976   2.678 -0.6207 -0.0601 -0.6540
  203MOL   H13949023   1.453   3.847   2.658  1.5799 -2.6845  0.3710
  203MOL   H14049024   1.583   3.743   2.861  0.8680 -2.0332 -0.5207
  203MOL   H14149025   1.663   3.974   2.927 -1.0556  0.3100 -0.6943
  203MOL   H14249026   1.798   3.950   2.822 -1.2675  0.7858 -1.9863
  203MOL   H14349027   1.895   3.805   2.970 -0.4926  1.4131 -0.4625
  203MOL   H14449028   1.820   3.898   3.082 -0.6371 -1.1872  1.0430
  203MOL   H14549029   1.738   3.750   3.045  0.8628 -1.4956 -1.5092
  203MOL   C14649030   1.721   3.750   2.687 -0.2439  0.5571  0.5699
  203MOL   C14749031   1.654   3.624   2.619 -0.5447 -0.0416 -0.2708
  203MOL   C14849032   1.668   3.502   2.722  0.0179  0.1622  0.8407
  203MOL   C14949033   1.560   3.400   2.699  0.1462 -0.3206  0.3642
  203MOL   H15049034   1.813   3.707   2.725 -0.9963 -0.7827  0.9307
  203MOL   H15149035   1.752   3.825   2.615  0.6702  0.6610  1.0737
  203MOL   H15249036   1.549   3.649   2.610 -0.6162 -0.4265 -0.5601
  203MOL   H15349037   1.651   3.533   2.825 -0.8399  1.0283  0.4421
  203MOL   H15449038   1.769   3.461   2.714  0.2014  0.4240  1.7749
  203MOL   H15549039   1.572   3.316   2.767 -2.7824 -0.7240  0.4650
  203MOL   H15649040   1.459   3.438   2.716  1.5847  4.5928 -1.2193
  203MOL   H15749041   1.544   3.384   2.592  0.6764  3.4499 -0.3356
  203MOL   C15849042   1.706   3.580   2.477 -0.1197  0.1321 -0.0728
  203MOL   C15949043   1.713   3.699   2.379  0.0628 -0.0691 -0.0177
  203MOL   C16049044   1.575   3.759   2.345 -0.2882 -0.4559  0.1867
  203MOL   C16149045   1.584   3.912   2.340  0.1880 -0.6951 -1.0913
  203MOL   H16249046   1.644   3.502   2.434  0.3951 -0.0058 -0.5797
  203MOL   H16349047   1.801   3.527   2.480 -0.6144 -0.6964  1.3073
  203MOL   H16449048   1.774   3.780   2.419  0.1381  0.9844 -2.1770
  203MOL   H16549049   1.500   3.727   2.417 -1.1659 -0.4044 -0.6936
  203MOL   H16649050   1.539   3.720   2.250 -0.8931 -0.2775  0.3452
  203MOL   H16749051   1.492   3.954   2.299 -0.1329 -0.1022  0.1886
  203MOL   H16849052   1.591   3.955   2.440 -0.4041  0.2057 -1.4249
  203MOL   H16949053   1.667   3.946   2.279  0.1861  1.9520  0.2885
  203MOL   C17049054   1.770   3.657   2.236  0.5187 -0.5393 -0.9557
  203MOL   C17149055   1.924   3.604   2.244 -0.0160 -0.3659  0.9457
  203MOL   C17249056   2.022   3.699   2.318  0.4526  0.6612  0.1903
  203MOL   C17349057   2.017   3.845   2.267 -0.6518 -0.0328  0.0884
  203MOL   H17449058   1.776   3.744   2.171  0.6839 -1.8656 -2.7408
  203MOL   H17549059   1.716   3.570   2.199  0.0646 -0.1770 -1.1439
  203MOL   H17649060   1.912   3.502   2.281 -0.6589 -1.6335 -2.5972
  203MOL   H17749061   2.119   3.651   2.311 -0.7674 -2.0858  1.5400
  203MOL   H17849062   1.998   3.700   2.425 -1.8505 -0.7751 -0.2656
  203MOL   H17949063   2.025   3.853   2.159 -1.0651  2.6233  0.2122
  203MOL   H18049064   1.922   3.886   2.302 -0.0299 -0.4331  2.2782
  203MOL   H18149065   2.097   3.902   2.316 -0.4919  1.7229 -2.1172
  203MOL   C18249066   1.995   3.570   2.103  0.0233 -0.2634 -0.5566
  203MOL   C18349067   1.922   3.481   2.001 -0.0204  0.0781 -0.2813
  203MOL   C18449068   1.919   3.331   2.036 -0.3680 -0.3930  0.1722
  203MOL   C18549069   2.058   3.262   2.057 -0.3007 -0.2308 -0.4297
  203MOL   H18649070   2.097   3.536   2.117 -0.4940 -1.4856  0.3725
  203MOL   H18749071   2.014   3.660   2.046 -0.0918  2.0627  2.9113
  203MOL   H18849072   1.820   3.519   1.989 -0.1771 -0.5008 -0.7758
  203MOL   H18949073   1.858   3.272   1.968  2.6028 -1.1061 -2.0012
  203MOL   H19049074   1.874   3.320   2.135  1.1210 -1.7361  0.7114
  203MOL   H19149075   2.128   3.270   1.973  0.5026  2.9028  0.4712
  203MOL   H19249076   2.122   3.318   2.125 -0.3653  1.4601 -1.7247
  203MOL   H19349077   2.042   3.162   2.098 -1.3338  0.0840 -0.0568
  203MOL   C19449078   1.987   3.509   1.855 -0.5450  0.6302 -0.2777
  203MOL   C19549079   1.929   3.431   1.733 -0.3135 -0.6743  0.0704
  203MOL   C19649080   2.019   3.436   1.613  0.3932 -0.4944  0.2321
  203MOL   C19749081   2.030   3.575   1.545  0.2037  0.2034  0.1420
  203MOL   H19849082   2.093   3.483   1.853 -0.4823  0.7118  1.3559
  203MOL   H19949083   1.985   3.617   1.838 -0.8842  0.3077 -2.4826
  203MOL   H20049084   1.916   3.326   1.760  0.2287 -0.0980  2.6605
  203MOL   H20149085   1.981   3.377   1.530 -1.3611  1.2334 -0.2417
  203MOL   H20249086   2.119   3.397   1.633 -0.0663 -1.7569  0.0895
  203MOL   H20349087   2.120   3.597   1.488 -0.2273  3.5867  0.6846
  203MOL   H20449088   1.959   3.596   1.465 -2.1910 -1.8511  1.6181
  203MOL   H20549089   2.022   3.655   1.618 -0.3652 -1.0990  1.5490
  203MOL   C20649090   1.780   3.477   1.694  0.7814  0.2930  0.6624
  203MOL   C20749091   1.715   3.404   1.578  0.5507  0.3161  0.1403
  203MOL   C20849092   1.570   3.443   1.553 -1.0244  0.1976 -0.1940
  203MOL   C20949093   1.462   3.408   1.654  0.5048  0.0463 -0.4350
  203MOL   H21049094   1.774   3.585   1.685 -1.7878 -0.0163 -2.3527
  203MOL   H21149095   1.720   3.471   1.784 -0.0430  0.4782  0.1334
  203MOL   H21249096   1.768   3.435   1.488 -0.6339  0.9238 -0.3552
  203MOL   H21349097   1.538   3.415   1.453 -1.8518  0.9764 -0.1570
  203MOL   H21449098   1.568   3.552   1.552 -1.4525  0.1848 -0.7564
  203MOL   H21549099   1.446   3.301   1.656 -4.0976  0.6459  2.5543
  203MOL   H21649100   1.492   3.433   1.756  0.7483 -0.4173 -0.3917
  203MOL   H21749101   1.363   3.451   1.638  0.1997  0.4210  2.2047
  203MOL   C21849102   1.725   3.244   1.588 -0.3010 -0.4741 -0.2602
  203MOL   C21949103   1.651   3.150   1.493 -0.1641  0.1169 -0.4565
  203MOL   C22049104   1.634   3.009   1.558 -0.3675 -0.2080 -0.0820
  203MOL   C22149105   1.528   3.000   1.668  0.3783 -0.6718 -1.2583
  203MOL   H22249106   1.682   3.227   1.686  0.9347  1.4428  0.6385
  203MOL   H22349107   1.829   3.215   1.584  0.1789  0.7742  2.1347
  203MOL   H22449108   1.548   3.185   1.483  0.0233  1.2787  1.5092
  203MOL   H22549109   1.727   2.979   1.607 -0.7333  0.5956  1.1257
  203MOL   H22649110   1.605   2.938   1.481 -0.2685 -0.0529 -0.2634
  203MOL   H22749111   1.554   3.067   1.749 -1.6447 -2.4766  0.9465
  203MOL   H22849112   1.428   3.016   1.628  0.9660 -1.8559 -3.2905
  203MOL   H22949113   1.533   2.899   1.709  0.3982  0.2157  0.9796
  203MOL   C23049114   1.712   3.147   1.359 -0.6590  0.2988  0.1628
  203MOL   C23149115   1.867   3.121   1.364 -0.5957  0.6692  0.4142
  203MOL   C23249116   1.927   3.053   1.233  0.7862  0.3332 -0.1448
  203MOL   C23349117   2.082   3.066   1.218  0.3508  0.3952 -0.1270
  203MOL   H23449118   1.693   3.236   1.298 -1.8618  0.6274  0.9932
  203MOL   H23549119   1.654   3.074   1.303  0.8705 -0.1328 -0.8850
  203MOL   H23649120   1.910   3.220   1.375 -0.5802  0.5477  1.5280
  203MOL   H23749121   1.889   3.092   1.138  0.6915 -3.2273 -1.6739
  203MOL   H23849122   1.902   2.947   1.227  1.6826  0.1544 -0.8841
  203MOL   H23949123   2.120   2.997   1.142 -1.7277 -0.5762 -0.3364
  203MOL   H24049124   2.111   3.169   1.196 -1.7032  1.0696  0.1511
  203MOL   H24149125   2.131   3.029   1.308  2.2911  3.0636 -0.0178
  203MOL   H24249126   1.904   3.066   1.451 -0.0650 -1.1954 -0.9634
  204MOL     C149127   7.575   6.912   6.233  0.1084 -0.2630  0.2691
  204MOL     C249128   7.665   6.979   6.337 -0.2947 -1.1482  0.5278
  204MOL     C349129   7.640   6.908   6.474 -0.1851 -0.1586  0.2483
  204MOL     C449130   0.042   6.931   6.588  0.6313 -0.4624 -0.1705
  204MOL     H549131   7.474   6.939   6.264  0.9539 -0.7710  3.7274
  204MOL     H649132   7.598   6.931   6.129  0.3476  2.4396  0.7864
  204MOL     H749133   0.064   6.972   6.308 -0.2496 -1.2063  0.7038
  204MOL     H849134   7.627   6.801   6.454  1.4360 -0.3473  0.1374
  204MOL     H949135   7.544   6.941   6.514 -0.0563 -0.3839  0.7377
  204MOL    H1049136   0.001   6.912   6.687  1.1089  2.3058  0.5932
  204MOL    H1149137   0.137   6.880   6.574  1.1590  0.1687  1.0714
  204MOL    H1249138   0.067   7.037   6.589  0.1553 -0.3046 -2.3253
  204MOL    H1349139   7.578   6.803   6.232  1.7646 -0.2594  1.7585
  204MOL    C1449140   7.631   7.129   6.353  0.2269  0.4803  0.9355
  204MOL    C1549141   0.036   7.232   6.357  0.0338 -0.3433  0.3629
  204MOL    C1649142   7.683   7.365   6.412 -0.6533  0.3155  0.5044
  204MOL    C1749143   7.658   7.373   6.570  0.0066  0.5806 -0.5021
  204MOL    H1849144   7.562   7.148   6.435 -1.6439 -2.3017  0.0653
  204MOL    H1949145   7.578   7.163   6.264 -1.2410 -1.0429  1.2100
  204MOL    H2049146   0.114   7.200   6.426 -1.1754 -0.1813  1.8168
  204MOL    H2149147   7.591   7.392   6.360 -1.3728 -0.9626  1.0957
  204MOL    H2249148   0.050   7.444   6.399  0.2394 -0.6003 -0.1412
  204MOL    H2349149   0.047   7.361   6.622  0.1638 -1.9333 -1.2805
  204MOL    H2449150   7.613   7.468   6.597  2.9528  2.9254 -3.4123
  204MOL    H2549151   7.599   7.286   6.600 -1.2050  1.3903 -0.5247
  204MOL    C2649152   0.105   7.248   6.226  0.0623 -0.1072  1.1078
  204MOL    C2749153   0.251   7.312   6.239  0.0045  0.3077 -0.1640
  204MOL    C2849154   0.291   7.383   6.103  0.7572 -0.0338  0.0435
  204MOL    C2949155   0.222   7.515   6.055 -0.5229 -0.0683 -0.1448
  204MOL    H3049156   0.039   7.300   6.156  1.8014 -0.4225 -0.8085
  204MOL    H3149157   0.129   7.147   6.194  0.2662  0.3205 -0.0980
  204MOL    H3249158   0.251   7.396   6.309 -2.3788  0.1643  0.0577
  204MOL    H3349159   0.273   7.316   6.019  2.2886  1.4289 -1.4815
  204MOL    H3449160   0.397   7.409   6.100  0.4126  1.4260 -0.2756
  204MOL    H3549161   0.238   7.578   6.142  0.6585 -0.9887  0.3288
  204MOL    H3649162   0.273   7.558   5.968  1.6019 -0.8427  0.6862
  204MOL    H3749163   0.116   7.502   6.033 -0.3522 -0.9930 -0.4635
  204MOL    C3849164   0.352   7.214   6.303 -0.0901 -0.3378  0.1998
  204MOL    C3949165   0.430   7.260   6.432 -0.0829 -0.3598 -0.3180
  204MOL    C4049166   0.568   7.186   6.447  0.4861 -0.1694  0.2373
  204MOL    C4149167   0.560   7.034   6.459 -0.0788  0.5099 -0.7948
  204MOL    H4249168   0.420   7.188   6.222  0.8662  0.1590  0.8247
  204MOL    H4349169   0.311   7.115   6.322 -0.6581 -0.0121  0.6600
  204MOL    H4449170   0.457   7.364   6.413 -1.6006  0.3492  1.2466
  204MOL    H4549171   0.616   7.234   6.533  1.7405  0.5065 -0.8077
  204MOL    H4649172   0.645   7.212   6.375 -0.3852  0.4973 -0.4656
  204MOL    H4749173   0.664   7.004   6.469  0.1835  1.8839  1.0178
  204MOL    H4849174   0.505   7.008   6.550  0.0105  0.5564 -0.7272
  204MOL    H4949175   0.513   6.985   6.374  1.2574 -1.9889 -0.1266
  204MOL    C5049176   0.346   7.258   6.561 -0.2795 -0.0449  0.0713
  204MOL    C5149177   0.402   7.339   6.687  0.4564  0.1148  0.3520
  204MOL    C5249178   0.329   7.279   6.813 -0.2790  0.5267 -1.1450
  204MOL    C5349179   0.402   7.154   6.880  0.0943 -0.6607  0.2606
  204MOL    H5449180   0.321   7.153   6.577 -0.7074  0.2210  1.1888
  204MOL    H5549181   0.258   7.317   6.533 -0.3795 -1.0680 -1.8645
  204MOL    H5649182   0.508   7.325   6.710  0.6866  1.2465  0.0199
  204MOL    H5749183   0.228   7.242   6.796  0.7832 -1.9198 -2.3765
  204MOL    H5849184   0.313   7.352   6.892 -1.0085 -1.5723  0.7009
  204MOL    H5949185   0.503   7.184   6.908 -0.4649 -0.6618  2.3659
  204MOL    H6049186   0.354   7.122   6.973  3.9583 -2.0374  1.9036
  204MOL    H6149187   0.407   7.073   6.807 -1.1343  0.5621 -1.2043
  204MOL    C6249188   0.373   7.489   6.673  0.7026 -0.5223 -0.0000
  204MOL    C6349189   0.431   7.576   6.787 -1.2782 -0.5180  0.6929
  204MOL    C6449190   0.343   7.699   6.806  0.3766 -0.4684  0.4588
  204MOL    C6549191   0.189   7.682   6.847 -0.0705  0.1443 -0.1821
  204MOL    H6649192   0.264   7.486   6.681  0.8102 -1.6024  1.1836
  204MOL    H6749193   0.395   7.518   6.570  0.2275  1.5287  0.4477
  204MOL    H6849194   0.449   7.525   6.881 -0.0386  0.0589  0.7853
  204MOL    H6949195   0.351   0.060   6.721 -0.9216 -1.0610 -0.1466
  204MOL    H7049196   0.386   0.056   6.884 -0.3909  1.4652 -0.6644
  204MOL    H7149197   0.135   7.665   6.754  0.2504  0.0485 -0.3537
  204MOL    H7249198   0.174   7.597   6.914 -0.8200 -0.2961 -0.9084
  204MOL    H7349199   0.151   0.064   6.898  0.3341  0.8034 -0.9934
  204MOL    C7449200   0.573   7.617   6.739  0.2106  0.3219 -0.1909
  204MOL    C7549201   0.653   0.021   6.819  0.6389 -0.0277 -0.0754
  204MOL    C7649202   0.793   0.049   6.762 -0.4047 -0.2260  0.0567
  204MOL    C7749203   0.804   0.102   6.616  0.0409  0.2728  0.1982
  204MOL    H7849204   0.567   7.657   6.638  0.6434  2.4473  0.5929
  204MOL    H7949205   0.634   7.528   6.732 -2.2021 -1.1278 -4.3870
  204MOL    H8049206   0.599   0.114   6.801 -1.8101 -1.1226  1.3155
  204MOL    H8149207   0.849   7.662   6.770 -3.3204 -2.1057 -0.5236
  204MOL    H8249208   0.841   0.129   6.818 -1.4927 -0.6583  1.6344
  204MOL    H8349209   0.908   0.102   6.583  0.3373  0.1670  1.1199
  204MOL    H8449210   0.750   0.037   6.548  0.8406 -0.8642  0.6300
  204MOL    H8549211   0.760   0.202   6.614  1.8084  1.0883  1.3259
  204MOL    C8649212   0.662   0.004   6.971  1.3443 -0.3111  0.1737
  204MOL    C8749213   0.698   0.135   7.052  0.7276 -0.3112 -0.1879
  204MOL    C8849214   0.756   0.098   7.192 -0.3106 -0.0730  0.0972
  204MOL    C8949215   0.666   0.045   7.301 -0.4295  0.9661  0.5290
  204MOL    H9049216   0.721   7.621   6.993 -0.1854 -1.4382 -0.2747
  204MOL    H9149217   0.569   7.677   7.017 -0.0014  1.7140 -1.0468
  204MOL    H9249218   0.776   0.195   7.005  0.6971  1.1438  1.5857
  204MOL    H9349219   0.807   0.187   7.228 -0.9345  1.0036 -1.6113
  204MOL    H9449220   0.837   0.027   7.177 -0.6697 -0.5831  0.5694
  204MOL    H9549221   0.629   7.656   7.262  0.8235  0.1928  1.1738
  204MOL    H9649222   0.713   0.027   7.398 -0.7232 -2.8874  0.0445
  204MOL    H9749223   0.588   0.114   7.329 -0.0366  2.4078 -1.7775
  204MOL    C9849224   0.577   0.224   7.068 -0.0625  0.2490 -0.5408
  204MOL    C9949225   0.602   0.357   7.138 -0.0549 -0.0469  0.7846
  204MOL   C10049226   0.471   0.426   7.169 -0.2879 -0.0574 -0.2284
  204MOL   C10149227   0.368   0.444   7.061 -0.3584  0.4855  0.6061
  204MOL   H10249228   0.497   0.168   7.117 -0.8164  0.6475 -1.3048
  204MOL   H10349229   0.543   0.244   6.967 -0.1670  3.1687  0.0294
  204MOL   H10449230   0.663   0.343   7.226 -1.2109 -0.1077  1.5868
  204MOL   H10549231   0.493   0.523   7.213 -0.8116  0.3835 -0.9376
  204MOL   H10649232   0.417   0.373   7.247 -0.3915  1.6022  0.8570
  204MOL   H10749233   0.399   0.519   6.989 -0.2662 -0.8037 -0.7277
  204MOL   H10849234   0.346   0.362   6.994 -1.8040  0.6657  0.8495
  204MOL   H10949235   0.282   0.493   7.107 -0.3637  1.4438 -0.4112
  204MOL   C11049236   0.679   0.450   7.043 -0.2064  0.1483  0.2400
  204MOL   C11149237   0.746   0.575   7.116 -0.5350  0.2681  0.0443
  204MOL   C11249238   0.767   0.691   7.014 -0.3802  0.3521 -0.8606
  204MOL   C11349239   0.645   0.754   6.947 -0.5338  0.2343 -0.2797
  204MOL   H11449240   0.624   0.490   6.957  2.4067  0.1293 -1.4746
  204MOL   H11549241   0.757   0.390   6.998 -1.1740 -0.2005 -1.0064
  204MOL   H11649242   0.678   0.621   7.187  0.5336  1.7095  0.1344
  204MOL   H11749243   0.834   0.657   6.935 -0.5417 -1.2571 -0.3212
  204MOL   H11849244   0.820   0.767   7.071 -2.1921  0.0100  1.3570
  204MOL   H11949245   0.673   0.855   6.918 -0.1959  0.8622  2.0975
  204MOL   H12049246   0.612   0.699   6.858 -0.0365 -0.6934  0.0988
  204MOL   H12149247   0.550   0.776   6.996 -0.9932 -0.0664 -1.0205
  204MOL   C12249248   0.873   0.539   7.192 -0.2580  0.1040  0.4955
  204MOL   C12349249   0.929   0.640   7.301  0.4152 -0.3281  0.2475
  204MOL   C12449250   1.078   0.666   7.293  0.3435  0.4969 -0.3191
  204MOL   C12549251   1.129   0.796   7.355 -1.0444  0.6308 -0.2006
  204MOL   H12649252   0.952   0.530   7.118  0.5342  1.0955  1.2036
  204MOL   H12749253   0.870   0.438   7.232  1.1009 -0.5631 -1.0506
  204MOL   H12849254   0.872   0.732   7.285 -0.5991 -0.4578  2.9005
  204MOL   H12949255   1.114   0.668   7.190  0.1483  0.0047 -0.3973
  204MOL   H13049256   1.126   0.584   7.347  0.1326  1.4420  1.3269
  204MOL   H13149257   1.237   0.808   7.349 -0.9722  1.7788  2.7811
  204MOL   H13249258   1.078   0.881   7.310 -1.3623  1.0328  0.9177
  204MOL   H13349259   1.116   0.804   7.463  2.9206 -1.0271  0.4978
  204MOL   C13449260   0.893   0.598   7.448  0.0581  0.8078  0.4864
  204MOL   C13549261   0.742   0.590   7.494 -0.4144  0.4192 -0.0210
  204MOL   C13649262   0.665   0.720   7.481  0.6016 -0.0986  0.4653
  204MOL   C13749263   0.513   0.701   7.510  0.6798 -0.2855 -0.5572
  204MOL   H13849264   0.933   0.672   7.517 -0.6280  1.2117  0.4498
  204MOL   H13949265   0.935   0.499   7.468  0.5138  0.7057 -0.9191
  204MOL   H14049266   0.699   0.514   7.430 -0.2072  1.2704 -1.1921
  204MOL   H14149267   0.666   0.748   7.376 -1.5170  0.3107  0.5286
  204MOL   H14249268   0.707   0.804   7.536  1.6003 -0.2728 -0.0256
  204MOL   H14349269   0.476   0.619   7.448 -1.9884 -0.8144  1.6295
  204MOL   H14449270   0.487   0.677   7.613  1.3985  0.1656 -0.2725
  204MOL   H14549271   0.444   0.785   7.501 -1.4856 -1.9314  0.2587
  204MOL   C14649272   0.735   0.540   7.642 -0.8417  0.0229  0.0625
  204MOL   C14749273   0.791   0.403   7.684  0.3304 -0.2771 -0.0136
  204MOL   C14849274   0.731   0.280   7.611  0.1831  0.1683 -0.2153
  204MOL   C14949275   0.587   0.240   7.667  0.2045  0.3799  0.6027
  204MOL   H15049276   0.630   0.545   7.672 -1.4076 -0.0718 -1.8638
  204MOL   H15149277   0.780   0.620   7.701 -0.7483  0.4382 -0.5647
  204MOL   H15249278   0.898   0.407   7.662  0.9847 -1.8502  2.5552
  204MOL   H15349279   0.787   0.188   7.631 -1.5648 -0.4974  1.8180
  204MOL   H15449280   0.720   0.301   7.505  0.9195 -1.9670 -0.7356
  204MOL   H15549281   0.590   0.215   0.068  1.9631 -1.3524  0.1871
  204MOL   H15649282   0.525   0.328   7.652 -2.2202 -1.4166 -0.2317
  204MOL   H15749283   0.551   0.158   7.606  1.5744 -0.3235  0.7043
  204MOL   C15849284   0.785   0.389   0.135 -0.0506 -0.0906  0.3788
  204MOL   C15949285   0.858   0.275   0.199 -0.5783  0.1690 -0.9586
  204MOL   C16049286   0.831   0.274   0.352  0.0165  0.3048 -0.1513
  204MOL   C16149287   0.684   0.261   0.391  0.7823 -0.1816 -0.2259
  204MOL   H16249288   0.679   0.393   0.158 -0.1285 -1.9381  0.3373
  204MOL   H16349289   0.821   0.479   0.187 -2.3904  1.2157 -0.1720
  204MOL   H16449290   0.825   0.183   0.151  0.2441 -0.5131 -0.2362
  204MOL   H16549291   0.879   0.360   0.398  0.1157 -0.6284  1.5387
  204MOL   H16649292   0.878   0.183   0.390 -2.2665 -1.2592 -0.9533
  204MOL   H16749293   0.647   0.363   0.409 -0.2437 -0.4781 -0.6005
  204MOL   H16849294   0.641   0.192   0.318 -0.7335  0.3584  0.1284
  204MOL   H16949295   0.677   0.203   0.483 -1.0087 -1.1160 -0.9253
  204MOL   C17049296   1.017   0.284   0.180 -0.2160 -0.0046  0.2553
  204MOL   C17149297   1.116   0.178   0.243  0.5819 -0.3096 -0.2476
  204MOL   C17249298   1.257   0.234   0.220  0.6872 -0.3329  0.8485
  204MOL   C17349299   1.349   0.172   0.321 -0.1951 -0.3709  0.0939
  204MOL   H17449300   1.036   0.382   0.225 -1.1247  0.6789 -0.8230
  204MOL   H17549301   1.023   0.280   0.071 -2.2271 -1.2421  0.1676
  204MOL   H17649302   1.089   0.164   0.347 -1.1793 -1.1264 -0.8016
  204MOL   H17749303   1.266   0.341   0.236  3.0793 -0.6618  2.0192
  204MOL   H17849304   1.287   0.211   0.118 -3.6671 -0.9005 -0.3753
  204MOL   H17949305   1.309   0.215   0.413 -1.8359  1.2628 -1.3307
  204MOL   H18049306   1.346   0.063   0.327 -0.3688 -0.3986 -0.4200
  204MOL   H18149307   1.454   0.197   0.304 -0.1693  0.2315  1.1075
  204MOL   C18249308   1.108   0.043   0.174  0.0793 -0.1774  0.3974
  204MOL   C18349309   1.000   7.656   0.234  0.4115  0.2265 -0.7280
  204MOL   C18449310   1.046   7.603   0.374 -0.2226  0.3487 -0.0572
  204MOL   C18549311   0.927   7.530   0.445  0.0283  0.5186  0.3179
  204MOL   H18649312   1.210   0.003   0.169  0.6280  1.4521 -3.1040
  204MOL   H18749313   1.080   0.069   0.072 -2.1869 -0.0732  1.0378
  204MOL   H18849314   0.913   0.015   0.246  1.8960  2.2713 -0.8347
  204MOL   H18949315   1.083   7.679   0.442 -2.3451  0.9884  0.4298
  204MOL   H19049316   1.134   7.538   0.371 -0.4108  0.1184 -0.6421
  204MOL   H19149317   0.963   7.524   0.548  0.0162 -0.4405  0.2696
  204MOL   H19249318   0.844   7.600   0.452 -0.0183  0.6830 -1.6727
  204MOL   H19349319   0.903   7.426   0.421 -0.6395  0.3706  1.5711
  204MOL   C19449320   0.984   7.535   0.137  0.7572  0.2633  0.6015
  204MOL   C19549321   0.880   7.564   0.021  0.4005 -0.1207 -0.0581
  204MOL   C19649322   0.737   7.582   0.084 -0.2145  0.2240  0.2320
  204MOL   C19749323   0.684   7.469   0.167  0.0951 -0.4084  0.2658
  204MOL   H19849324   0.957   7.446   0.193  0.5055 -0.0331  0.0123
  204MOL   H19949325   1.083   7.506   0.104  0.3353 -1.2773  0.6784
  204MOL   H20049326   0.908   7.654   7.674  2.8922 -1.3221 -0.8820
  204MOL   H20149327   0.666   7.613   0.007  0.4073 -2.1181 -1.3336
  204MOL   H20249328   0.733   7.675   0.140 -0.1137 -0.3028  1.1234
  204MOL   H20349329   0.753   7.452   0.250 -0.5924  0.0374  0.9373
  204MOL   H20449330   0.589   7.494   0.213  0.5694  0.9919  0.5159
  204MOL   H20549331   0.662   7.377   0.113 -1.6224 -0.1140  0.4354
  204MOL   C20649332   0.894   7.445   7.630 -0.1002 -0.3733 -0.6333
  204MOL   C20749333   0.951   7.479   7.492  0.4268 -0.5522  0.0321
  204MOL   C20849334   0.918   7.369   7.386 -0.1745  0.1848  0.3773
  204MOL   C20949335   0.768   7.355   7.359 -0.4961  0.1911 -0.4716
  204MOL   H21049336   0.796   7.399   7.623 -0.6925  0.9315 -1.1421
  204MOL   H21149337   0.963   7.370   7.669  0.3829  0.4377  0.1078
  204MOL   H21249338   0.919   7.579   7.464  2.0701  0.0237  0.1517
  204MOL   H21349339   0.955   7.271   7.417 -1.2308  0.0132  1.1118
  204MOL   H21449340   0.976   7.382   7.295  0.8190  0.5433  1.0472
  204MOL   H21549341   0.708   7.369   7.448 -0.4070 -1.3287 -0.1485
  204MOL   H21649342   0.731   7.423   7.282 -1.3260 -0.4768 -0.6674
  204MOL   H21749343   0.754   7.257   7.313 -1.9215  0.6307 -0.9814
  204MOL   C21849344   1.101   7.491   7.512  0.2228 -0.0054  0.5081
  204MOL   C21949345   1.167   7.576   7.402  0.0270 -0.0832  0.5888
  204MOL   C22049346   1.308   7.537   7.350  0.4317  0.7500  0.5108
  204MOL   C22149347   1.313   7.397   7.287  0.5447  0.3275 -0.2479
  204MOL   H22249348   1.156   7.401   7.538 -0.3554 -0.2085  1.0679
  204MOL   H22349349   1.126   7.547   7.603  0.9316  0.5191 -0.0090
  204MOL   H22449350   1.100   7.564   7.317  1.1897 -1.6474 -0.1248
  204MOL   H22549351   1.379   7.544   7.433  0.1119  0.8552  0.7747
  204MOL   H22649352   1.342   7.602   7.270  1.9303  0.7264  1.1060
  204MOL   H22749353   1.306   7.324   7.368  1.6989 -1.0869 -1.4144
  204MOL   H22849354   1.237   7.367   7.215  0.9504 -2.0158  0.2609
  204MOL   H22949355   1.403   7.397   7.226 -0.4301 -0.0167 -1.7159
  204MOL   C23049356   1.173   0.022   7.435  0.3066  0.2622  0.2038
  204MOL   C23149357   1.102   0.115   7.333 -0.5688 -0.1565 -0.1425
  204MOL   C23249358   1.113   0.261   7.383  0.7429  0.1949  0.6080
  204MOL   C23349359   1.248   0.317   7.348 -0.0470 -0.5766  0.5154
  204MOL   H23449360   1.280   0.042   7.446  0.0967  0.3960  2.1720
  204MOL   H23549361   1.126   0.047   7.531 -1.1936 -2.0438  0.1023
  204MOL   H23649362   1.130   0.104   7.229  2.9730  1.0430  0.5987
  204MOL   H23749363   1.089   0.292   7.485 -0.3222 -0.0763  0.4441
  204MOL   H23849364   1.039   0.312   7.322  1.3541 -0.3842 -0.6424
  204MOL   H23949365   1.260   0.325   7.240  1.3350  0.5370  0.7421
  204MOL   H24049366   1.263   0.415   7.391  2.3448 -0.7733  0.2475
  204MOL   H24149367   1.324   0.251   7.391  1.1574 -0.6649 -1.6268
  204MOL   H24249368   0.997   0.087   7.338 -0.5815 -0.0738  0.1025
  205MOL     C149369   1.108   7.261   0.873 -0.4292  0.8938  0.2358
  205MOL     C249370   1.025   7.146   0.802  0.2456 -0.6460  0.0604
  205MOL     C349371   1.072   7.150   0.653  0.4024  0.1207  0.9751
  205MOL     C449372   1.055   7.020   0.573 -0.1970 -0.1263  0.3310
  205MOL     H549373   1.086   7.259   0.980 -0.4464  2.2846  0.2692
  205MOL     H649374   1.214   7.236   0.881 -0.6724 -0.2828 -0.1429
  205MOL     H749375   1.064   7.061   0.858  1.0254 -0.7158 -0.5695
  205MOL     H849376   1.176   7.181   0.646  0.2085  0.5015 -0.3213
  205MOL     H949377   1.016   7.231   0.606  0.0313 -0.7728 -0.1330
  205MOL    H1049378   1.112   6.938   0.616  0.6398 -0.9683 -2.2720
  205MOL    H1149379   0.951   6.992   0.557 -0.3886  1.1563 -0.8000
  205MOL    H1249380   1.096   7.017   0.472 -0.5044 -2.0040  0.2380
  205MOL    H1349381   1.087   7.361   0.836  0.0970  0.9085 -0.0258
  205MOL    C1449382   0.873   7.150   0.812 -0.1392  0.3078  0.3497
  205MOL    C1549383   0.820   7.151   0.955  0.6749 -0.2329  0.5336
  205MOL    C1649384   0.863   7.030   1.036  0.3808  0.1130  0.0660
  205MOL    C1749385   0.828   6.901   0.976 -0.4234  0.0615  0.6721
  205MOL    H1849386   0.834   7.066   0.755  1.9376 -0.0894 -0.4970
  205MOL    H1949387   0.830   7.235   0.759  1.3928  0.8902  0.0221
  205MOL    H2049388   0.875   7.230   1.006 -0.8419 -0.2276  2.2150
  205MOL    H2149389   0.805   7.040   1.128 -1.0013  1.8331 -0.9461
  205MOL    H2249390   0.968   7.038   1.062  0.9366 -1.5309 -1.5636
  205MOL    H2349391   0.837   6.820   1.049  0.2923  0.1085  0.6365
  205MOL    H2449392   0.723   6.894   0.947  0.0664 -1.0491 -0.9042
  205MOL    H2549393   0.885   6.873   0.888  1.8653  0.6527  1.9444
  205MOL    C2649394   0.675   7.186   0.960 -0.4868 -0.4316 -0.4507
  205MOL    C2749395   0.636   7.275   1.072 -0.1240 -0.1823  0.1217
  205MOL    C2849396   0.547   7.198   1.174  0.0653 -0.2435  0.3899
  205MOL    C2949397   0.401   7.161   1.133  0.1241  0.6086 -0.1869
  205MOL    H3049398   0.610   7.098   0.952 -1.7822  0.7357 -3.3174
  205MOL    H3149399   0.656   7.229   0.862 -1.4591 -0.8072 -0.4352
  205MOL    H3249400   0.723   7.307   1.129  1.7556 -1.4748 -1.9714
  205MOL    H3349401   0.542   7.264   1.261 -0.6506 -3.5308  2.9397
  205MOL    H3449402   0.608   7.118   1.218  1.9808  1.7252  1.4391
  205MOL    H3549403   0.343   7.251   1.114  2.6577  2.5850  1.0951
  205MOL    H3649404   0.403   7.092   1.048  1.3771  1.3015 -0.7374
  205MOL    H3749405   0.357   7.112   1.220 -0.4497  0.7224 -0.4155
  205MOL    C3849406   0.574   7.408   1.020  0.2650 -0.0425 -0.1766
  205MOL    C3949407   0.668   7.514   0.954 -0.0415 -0.8679 -0.0244
  205MOL    C4049408   0.794   7.554   1.035  0.4673 -0.8065 -0.5374
  205MOL    C4149409   0.917   7.594   0.950  0.5234 -0.2861 -0.2352
  205MOL    H4249410   0.529   7.465   1.102 -0.8186 -0.2878 -0.5872
  205MOL    H4349411   0.489   7.374   0.960  0.3041 -0.1921 -0.1465
  205MOL    H4449412   0.717   7.465   0.869 -1.0685 -1.3321 -0.3561
  205MOL    H4549413   0.828   7.473   1.099 -1.2816 -1.3127 -0.2371
  205MOL    H4649414   0.766   7.636   1.102 -1.1842  0.0663 -2.2382
  205MOL    H4749415   1.000   7.615   1.019 -0.7219 -0.1459  1.2474
  205MOL    H4849416   0.952   7.527   0.872 -0.7728 -0.2211 -0.8733
  205MOL    H4949417   0.902   7.691   0.903  1.7737 -0.0375 -0.1617
  205MOL    C5049418   0.603   7.641   0.894  0.6070  0.0044  0.0936
  205MOL    C5149419   0.491   7.607   0.793  0.2192  0.1504 -0.1255
  205MOL    C5249420   0.554   7.532   0.670  0.0736  0.0867  0.3726
  205MOL    C5349421   0.459   7.471   0.565 -0.1170 -1.2445 -0.4818
  205MOL    H5449422   0.678   7.697   0.837 -0.0413 -0.1402 -0.9270
  205MOL    H5549423   0.563   7.701   0.975 -0.3182 -0.5647  0.0582
  205MOL    H5649424   0.428   7.530   0.839  0.5856  0.9329  1.7390
  205MOL    H5749425   0.610   7.443   0.701 -1.1718  0.0917  2.7113
  205MOL    H5849426   0.620   7.600   0.616 -1.2917 -0.0187 -1.4771
  205MOL    H5949427   0.365   7.428   0.599 -1.1827  2.4163  1.4332
  205MOL    H6049428   0.426   7.554   0.502 -0.5728  0.7159  2.2577
  205MOL    H6149429   0.509   7.402   0.496  0.7411 -1.2499  0.1437
  205MOL    C6249430   0.415   0.029   0.744 -0.1470  0.0484 -0.8966
  205MOL    C6349431   0.295   0.082   0.831 -0.3741 -0.0629 -0.0743
  205MOL    C6449432   0.330   0.127   0.977  0.3247 -0.1456  0.3182
  205MOL    C6549433   0.410   0.260   1.003  0.3928 -1.0404 -0.1014
  205MOL    H6649434   0.389   0.027   0.638 -0.7305 -2.2711 -0.7443
  205MOL    H6749435   0.488   0.110   0.742  0.2482 -0.2675  0.1466
  205MOL    H6849436   0.252   0.169   0.782 -0.1842 -0.9462 -1.8306
  205MOL    H6949437   0.359   0.042   1.039  0.8307 -0.5818 -0.5087
  205MOL    H7049438   0.233   0.149   1.021 -1.3493  0.2680 -3.4056
  205MOL    H7149439   0.514   0.242   0.977  1.6418  2.4529  2.1561
  205MOL    H7249440   0.376   0.342   0.939  1.1271 -0.8346 -0.2300
  205MOL    H7349441   0.410   0.289   1.108  0.3227 -0.2409 -0.3169
  205MOL    C7449442   0.172   7.692   0.837  0.6299 -0.4040  0.1320
  205MOL    C7549443   0.024   0.044   0.850 -0.1668 -0.0243  0.0301
  205MOL    C7649444   7.632   7.627   0.856 -0.0102  1.1586 -0.4954
  205MOL    C7749445   7.675   7.513   0.956 -0.4115 -0.2513  0.4339
  205MOL    H7849446   0.188   7.623   0.920 -3.7783 -0.7513  0.8460
  205MOL    H7949447   0.167   7.627   0.750  1.2164  1.3233 -1.2104
  205MOL    H8049448   0.016   0.098   0.944  2.1408  1.8528 -0.8152
  205MOL    H8149449   7.620   7.590   0.754  2.1366  1.4281 -0.8883
  205MOL    H8249450   7.532   7.661   0.880 -1.0451 -0.9278 -1.7396
  205MOL    H8349451   7.587   7.453   0.977 -1.8762  1.2993 -1.0849
  205MOL    H8449452   0.041   7.445   0.910  1.3516  1.6077  0.3423
  205MOL    H8549453   0.011   7.549   1.050  0.2678 -0.6440  0.2885
  205MOL    C8649454   7.698   0.138   0.730  0.2925  0.5241 -0.5639
  205MOL    C8749455   7.680   0.288   0.767 -0.1349  0.3006 -0.5323
  205MOL    C8849456   7.542   0.321   0.845 -0.8259  0.4064 -0.2066
  205MOL    C8949457   7.530   0.457   0.908  0.2861  0.6074 -0.3553
  205MOL    H9049458   7.610   0.112   0.671  0.9228 -1.9345 -0.5012
  205MOL    H9149459   0.058   0.113   0.647  1.1086 -0.7511  0.4511
  205MOL    H9249460   0.048   0.308   0.844 -0.0700 -1.6698 -0.0451
  205MOL    H9349461   7.530   0.248   0.925 -0.0449  0.5107  0.0090
  205MOL    H9449462   7.454   0.306   0.782 -1.2707 -1.6679  0.8780
  205MOL    H9549463   7.428   0.465   0.946  0.3319  1.7700 -0.4483
  205MOL    H9649464   7.598   0.470   0.992  0.4416  1.6168 -0.6299
  205MOL    H9749465   7.533   0.539   0.836 -1.3632  0.1633 -0.9649
  205MOL    C9849466   7.703   0.376   0.639  0.0761  0.4124  0.3700
  205MOL    C9949467   0.140   0.375   0.579 -0.2325 -0.2853 -0.2232
  205MOL   C10049468   0.239   0.468   0.660  0.1469 -0.7197  0.4544
  205MOL   C10149469   0.389   0.443   0.647  0.2105  0.0302 -0.1170
  205MOL   H10249470   7.675   0.480   0.655 -0.0816  0.0945  2.3046
  205MOL   H10349471   7.636   0.344   0.560  0.0898  1.2024  0.0385
  205MOL   H10449472   0.182   0.275   0.587  0.3461 -0.1231 -1.1734
  205MOL   H10549473   0.217   0.467   0.767  0.8650 -0.1360  0.6104
  205MOL   H10649474   0.217   0.565   0.616  2.4417 -0.6978 -0.7108
  205MOL   H10749475   0.416   0.340   0.668  2.2707  0.2776 -1.4638
  205MOL   H10849476   0.412   0.458   0.541 -1.4280 -0.3407 -0.5349
  205MOL   H10949477   0.447   0.502   0.719 -0.0203  0.9801 -0.7022
  205MOL   C11049478   0.145   0.418   0.428  0.1146 -0.5038 -0.2977
  205MOL   C11149479   0.110   0.302   0.330  0.3876  0.3431  0.2483
  205MOL   C11249480   0.206   0.185   0.338  0.3385  0.2301  0.5889
  205MOL   C11349481   0.351   0.216   0.297 -0.0281  0.2349 -0.0596
  205MOL   H11449482   0.240   0.464   0.402 -0.0920 -0.9600 -1.9079
  205MOL   H11549483   0.072   0.497   0.413  0.1613 -0.3096  0.4534
  205MOL   H11649484   0.013   0.265   0.363  0.0275  1.1801  0.1399
  205MOL   H11749485   0.161   0.108   0.275 -0.4085  1.4148 -0.3456
  205MOL   H11849486   0.210   0.131   0.432 -0.9036 -3.7362 -1.4870
  205MOL   H11949487   0.406   0.293   0.351  0.8100  0.4891 -1.2621
  205MOL   H12049488   0.403   0.123   0.321 -1.9783 -0.6104  1.0456
  205MOL   H12149489   0.357   0.229   0.189 -1.0092  1.3158  0.0060
  205MOL   C12249490   0.094   0.348   0.179  0.6329 -0.4860 -0.3182
  205MOL   C12349491   7.650   0.377   0.139 -0.1282  0.2286  0.5113
  205MOL   C12449492   7.552   0.252   0.135  0.4422 -0.1221 -0.2781
  205MOL   C12549493   7.403   0.295   0.138 -0.3019  0.2295  0.4358
  205MOL   H12649494   0.134   0.280   0.103 -3.0172 -1.0740 -1.8523
  205MOL   H12749495   0.150   0.441   0.168  2.0450 -0.8698  3.1834
  205MOL   H12849496   7.610   0.444   0.214 -1.9428  0.4590 -0.6301
  205MOL   H12949497   7.561   0.183   0.219 -1.2552  0.3393  0.3035
  205MOL   H13049498   7.575   0.206   0.038 -0.6753 -1.6347  0.1532
  205MOL   H13149499   7.373   0.361   0.219 -0.4622  0.7248 -0.0185
  205MOL   H13249500   7.386   0.348   0.043  0.6899 -0.8416 -0.3478
  205MOL   H13349501   7.348   0.201   0.140  0.4667 -0.2121  0.8883
  205MOL   C13449502   7.642   0.462   0.008 -0.2536 -0.0018  0.2683
  205MOL   C13549503   0.020   0.588   7.687  0.6753 -0.7189  0.5531
  205MOL   C13649504   0.005   0.693   0.096  0.8876  0.2384 -0.8632
  205MOL   C13749505   0.116   0.802   0.109 -0.0941 -0.5677 -0.0617
  205MOL   H13849506   7.537   0.478   7.691 -1.0240 -1.8110  2.4282
  205MOL   H13949507   7.673   0.398   7.631  0.1600  0.9260 -0.3061
  205MOL   H14049508   0.124   0.556   7.679  1.2203  0.9294  0.8577
  205MOL   H14149509   7.705   0.637   0.189  0.3681 -1.6069 -1.9933
  205MOL   H14249510   7.620   0.751   0.080  1.4367  0.9307 -1.4985
  205MOL   H14349511   0.212   0.758   0.138  0.7596  2.4205  1.9102
  205MOL   H14449512   0.130   0.857   0.015  1.1164 -0.8227 -0.0384
  205MOL   H14549513   0.103   0.875   0.189  0.6911 -0.3590 -0.1194
  205MOL   C14649514   7.682   0.635   7.543  0.3532 -0.6690 -0.5836
  205MOL   C14749515   0.053   0.562   7.431 -0.1378  0.0314 -0.3227
  205MOL   C14849516   0.197   0.615   7.407 -0.3229 -0.3314  0.0391
  205MOL   C14949517   0.209   0.750   7.353 -0.1733 -0.0827 -0.1507
  205MOL   H15049518   7.702   0.742   7.536  1.6606 -0.9751 -1.8830
  205MOL   H15149519   7.576   0.618   7.530  0.1780  1.2635 -2.0169
  205MOL   H15249520   0.076   0.459   7.461 -0.0973  0.4439  1.0823
  205MOL   H15349521   0.243   0.542   7.340  2.3631  0.2931  1.1727
  205MOL   H15449522   0.250   0.595   7.500 -0.0771 -1.4198 -0.3253
  205MOL   H15549523   0.307   0.758   7.306 -0.8751 -0.9073 -1.8082
  205MOL   H15649524   0.137   0.771   7.274 -0.3484 -0.3583 -0.0632
  205MOL   H15749525   0.190   0.831   7.423 -1.0055 -0.2983 -0.1177
  205MOL   C15849526   7.677   0.538   7.296 -0.4701 -0.3521 -0.3382
  205MOL   C15949527   7.547   0.461   7.283  0.3115 -0.0478  0.0563
  205MOL   C16049528   7.564   0.313   7.230  0.0414  0.0851 -0.0296
  205MOL   C16149529   7.679   0.243   7.297 -0.7608  0.8884 -0.4495
  205MOL   H16249530   0.034   0.490   7.221  0.1924 -0.7647  0.4696
  205MOL   H16349531   7.654   0.637   7.258  1.1066  1.2045  2.5304
  205MOL   H16449532   7.517   0.445   7.387 -0.7390  0.1097 -0.2140
  205MOL   H16549533   7.574   0.309   7.122 -0.1793 -0.1830 -0.0415
  205MOL   H16649534   7.476   0.259   7.266  1.2351  0.1084  3.0636
  205MOL   H16749535   0.072   0.267   7.258 -0.1998 -2.7144 -1.4445
  205MOL   H16849536   7.682   0.267   7.403 -1.5341 -0.8853 -0.0089
  205MOL   H16949537   7.672   0.134   7.294 -0.0641  0.8143  0.3439
  205MOL   C17049538   7.437   0.539   7.212  0.0895  0.0486  0.2535
  205MOL   C17149539   7.300   0.474   7.191  0.2399  0.1998 -1.2173
  205MOL   C17249540   7.245   0.506   7.052 -0.0823  0.1188 -0.2280
  205MOL   C17349541   7.213   0.653   7.020  0.5955 -0.0125  0.3556
  205MOL   H17449542   7.479   0.566   7.115 -0.7246  0.6193  0.0514
  205MOL   H17549543   7.425   0.635   7.264 -0.0374  0.6618 -0.9048
  205MOL   H17649544   7.310   0.365   7.190 -0.8362  0.0379  0.8383
  205MOL   H17749545   7.153   0.450   7.040  0.7145 -1.4721  0.8705
  205MOL   H17849546   7.322   0.463   6.987  0.0270 -1.3883  0.8574
  205MOL   H17949547   7.120   0.696   7.059  1.2021  1.3254  0.3729
  205MOL   H18049548   7.296   0.720   7.043  1.3260 -1.1709  1.1505
  205MOL   H18149549   7.199   0.656   6.912 -0.4904  1.1659  0.5133
  205MOL   C18249550   7.191   0.520   7.297 -0.7913  0.2374  0.1614
  205MOL   C18349551   7.222   0.477   7.453 -0.7490 -0.3772 -0.9551
  205MOL   C18449552   7.212   0.323   7.470 -0.1516 -0.1008 -0.0167
  205MOL   C18549553   7.071   0.269   7.451 -1.0506  0.3371  0.4459
  205MOL   H18649554   7.093   0.482   7.268 -0.3844  0.6526 -1.8192
  205MOL   H18749555   7.180   0.628   7.303  2.1626  0.6095 -0.4452
  205MOL   H18849556   7.324   0.507   7.477 -0.7770 -1.1242  0.0918
  205MOL   H18949557   7.237   0.297   7.573 -0.6266 -0.0530  0.1142
  205MOL   H19049558   7.275   0.263   7.405 -2.3201 -2.2374 -0.2295
  205MOL   H19149559   6.994   0.312   7.514 -2.0621 -1.8702  0.7570
  205MOL   H19249560   7.052   0.268   7.344 -1.9076  1.8473  0.5737
  205MOL   H19349561   7.076   0.163   7.476 -0.2420  0.1130 -0.6086
  205MOL   C19449562   7.124   0.547   7.557 -0.0145 -0.7790 -0.3080
  205MOL   C19549563   7.137   0.703   7.581  0.3913 -0.1660 -0.0485
  205MOL   C19649564   7.273   0.742   7.652  0.1936 -0.6791 -0.0824
  205MOL   C19749565   7.280   0.708   0.095  0.5557 -0.0077  0.1625
  205MOL   H19849566   7.131   0.496   7.653  3.2381 -0.4998 -0.3198
  205MOL   H19949567   7.030   0.533   7.505  1.4842 -0.1549 -3.3043
  205MOL   H20049568   7.145   0.746   7.481 -1.2018 -0.8392 -0.4808
  205MOL   H20149569   7.267   0.851   7.643 -1.1884 -0.5374  2.2063
  205MOL   H20249570   7.353   0.694   7.595  1.5894 -0.8912  2.0070
  205MOL   H20349571   7.316   0.606   0.109  1.8628  0.1696 -1.7105
  205MOL   H20449572   7.349   0.779   0.139 -2.2483  2.7631  0.2554
  205MOL   H20549573   7.189   0.715   0.155 -0.0839 -1.8270 -0.5746
  205MOL   C20649574   7.009   0.767   7.639  1.1618  0.5477  0.1733
  205MOL   C20749575   6.893   0.790   7.542 -0.1893  0.2009  0.5934
  205MOL   C20849576   6.890   0.935   7.486  0.9352 -0.6808 -0.0472
  205MOL   C20949577   7.028   0.975   7.419  0.2085 -0.5126 -0.7451
  205MOL   H21049578   7.028   0.867   7.677  0.2234  0.4180  1.0161
  205MOL   H21149579   6.972   0.711   0.019 -0.8233  0.6023 -0.6100
  205MOL   H21249580   6.918   0.734   7.452  1.1677  1.1215  0.3901
  205MOL   H21349581   6.870   1.011   7.561  0.3557 -0.1933 -0.6987
  205MOL   H21449582   6.811   0.940   7.412  1.8661  2.4230 -0.9280
  205MOL   H21549583   7.106   0.982   7.495 -1.7968  0.1943  1.2971
  205MOL   H21649584   7.044   0.897   7.345  2.2176 -1.1267  0.2951
  205MOL   H21749585   7.009   1.073   7.377 -0.9493 -0.8752 -1.0915
  205MOL   C21849586   6.745   0.751   7.602 -0.6767 -0.2687 -0.7762
  205MOL   C21949587   6.719   0.600   7.623  0.2171  1.1542  0.1664
  205MOL   C22049588   6.702   0.517   7.486 -0.4842 -0.0411 -0.1936
  205MOL   C22149589   6.674   0.364   7.495 -0.4705  0.0129 -0.2586
  205MOL   H22249590   6.672   0.785   7.529 -0.3395  1.1366 -0.4820
  205MOL   H22349591   6.722   0.809   7.691  1.5337  0.6404 -0.7485
  205MOL   H22449592   6.810   0.553   7.661 -2.0069 -2.8975  0.7053
  205MOL   H22549593   6.799   0.521   7.435  1.2606  0.5946  3.0207
  205MOL   H22649594   6.628   0.563   7.422 -1.2992 -0.4350  0.4560
  205MOL   H22749595   6.648   0.327   7.396 -1.0994 -0.9246  0.2564
  205MOL   H22849596   6.761   0.304   7.523  2.4522  3.1336 -2.2836
  205MOL   H22949597   6.593   0.339   7.563 -1.1217 -0.8951 -1.3627
  205MOL   C23049598   6.612   0.577   0.023  0.4184 -0.4810 -0.3092
  205MOL   C23149599   6.472   0.635   7.686 -0.7022  0.4913 -0.1828
  205MOL   C23249600   6.362   0.610   0.093 -0.2640  0.1310  0.4834
  205MOL   C23349601   6.255   0.717   0.091  0.8379 -0.1925  0.5083
  205MOL   H23449602   6.642   0.630   0.114 -0.7528 -0.4331  0.0606
  205MOL   H23549603   6.612   0.473   0.054 -1.0987  0.4517  3.1493
  205MOL   H23649604   6.467   0.740   7.656  1.3398  0.5572 -0.3577
  205MOL   H23749605   6.412   0.601   0.189  1.6426 -0.3326 -0.5124
  205MOL   H23849606   6.322   0.511   0.072  1.8334 -0.7876  0.6847
  205MOL   H23949607   6.234   0.738   7.692  1.3546  0.8138  0.5957
  205MOL   H24049608   6.164   0.691   0.145 -0.3639 -1.3202 -1.9646
  205MOL   H24149609   6.293   0.812   0.129 -2.7900  1.4227  0.2541
  205MOL   H24249610   6.437   0.578   7.600  0.2680  0.2314 -0.4072
  206MOL     C149611   7.244   5.563   3.517  0.1516  0.2159  0.0970
  206MOL     C249612   7.154   5.466   3.599  0.6045  0.6104 -0.3741
  206MOL     C349613   7.196   5.464   3.752 -0.0789  0.7790  0.5727
  206MOL     C449614   7.106   5.388   3.847  0.3067 -0.2632  0.0978
  206MOL     H549615   7.219   5.572   3.412  0.8004  0.5155 -0.0375
  206MOL     H649616   7.240   5.661   3.566 -0.1355 -0.5270  1.5810
  206MOL     H749617   7.054   5.511   3.596 -0.1095 -0.5985  2.6396
  206MOL     H849618   7.211   5.564   3.793 -0.5191  0.9069  0.4290
  206MOL     H949619   7.298   5.426   3.757  0.3342  1.6925 -0.7258
  206MOL    H1049620   7.118   5.425   3.949  1.9947 -2.3953  0.7077
  206MOL    H1149621   7.003   5.417   3.826  1.3855  2.1144 -2.2449
  206MOL    H1249622   7.125   5.281   3.843  0.3863 -0.2420 -0.1185
  206MOL    H1349623   7.345   5.524   3.530  0.8671  2.4885  1.8696
  206MOL    C1449624   7.133   5.319   3.545 -0.3590 -0.2029  0.5143
  206MOL    C1549625   7.051   5.320   3.411 -0.6315  0.4844 -0.0542
  206MOL    C1649626   6.899   5.333   3.451  0.7914 -0.0035 -0.1497
  206MOL    C1749627   6.806   5.361   3.328 -0.0040  0.3804  0.2492
  206MOL    H1849628   7.096   5.251   3.621  2.3470  0.7956  2.7971
  206MOL    H1949629   7.233   5.285   3.520  0.3814  1.1546  1.5547
  206MOL    H2049630   7.072   5.413   3.356 -0.5631  1.4714  1.6141
  206MOL    H2149631   6.893   5.402   3.534  3.2164  0.4114 -0.2733
  206MOL    H2249632   6.875   5.234   3.491 -0.9596  1.1314  1.6635
  206MOL    H2349633   6.791   5.284   3.252 -0.4380  0.8299 -0.1207
  206MOL    H2449634   6.704   5.372   3.365  0.0844  0.4789  0.4679
  206MOL    H2549635   6.833   5.455   3.281 -0.4876  0.5581  0.3261
  206MOL    C2649636   7.082   5.194   3.320 -0.5174  0.3603 -0.8970
  206MOL    C2749637   7.171   5.219   3.199  0.6307 -0.4668 -0.0095
  206MOL    C2849638   7.309   5.274   3.234 -0.5720 -0.7563 -0.1814
  206MOL    C2949639   7.412   5.182   3.302 -0.5852  0.0718  0.2392
  206MOL    H3049640   6.988   5.141   3.301 -0.5961  0.8410 -1.8491
  206MOL    H3149641   7.116   5.115   3.387 -2.5568 -0.9532 -1.3370
  206MOL    H3249642   7.182   5.123   3.149  0.6837  0.2332 -1.3676
  206MOL    H3349643   7.285   5.363   3.292 -0.2449 -0.3052 -0.7342
  206MOL    H3449644   7.351   5.310   3.140 -2.3835 -1.0408 -1.1053
  206MOL    H3549645   7.442   5.098   3.239  1.7495 -0.9478  2.5945
  206MOL    H3649646   7.507   5.235   3.312  1.0723 -2.8161  0.4612
  206MOL    H3749647   7.379   5.151   3.402 -1.9104  0.7357  0.0159
  206MOL    C3849648   7.101   5.317   3.101 -0.3004  0.5475  0.1608
  206MOL    C3949649   7.155   5.300   2.956  0.5191 -0.3156 -0.1773
  206MOL    C4049650   7.175   5.438   2.880  0.2899  0.5069 -0.1436
  206MOL    C4149651   7.045   5.527   2.875 -0.1399  0.2247  0.0071
  206MOL    H4249652   7.124   5.419   3.134 -1.3295  1.5075 -2.0121
  206MOL    H4349653   6.993   5.313   3.110 -0.2596 -0.5659  0.2023
  206MOL    H4449654   7.254   5.254   2.952 -0.5345 -2.5870 -1.4095
  206MOL    H4549655   7.208   5.429   2.777 -0.2805  1.9399 -0.4680
  206MOL    H4649656   7.253   5.491   2.934  0.8186 -1.0363  0.6480
  206MOL    H4749657   6.990   5.542   2.969 -0.4035 -1.1765  0.0819
  206MOL    H4849658   7.075   5.626   2.842  0.6217 -0.6509 -2.0002
  206MOL    H4949659   6.982   5.493   2.793 -0.5103  2.4683 -0.6736
  206MOL    C5049660   7.061   5.213   2.879 -0.3464  0.0102 -0.7492
  206MOL    C5149661   7.117   5.144   2.745 -0.7479 -0.5354 -1.0083
  206MOL    C5249662   7.007   5.136   2.636  0.3259  0.0860  0.4346
  206MOL    C5349663   6.969   5.276   2.578  0.1613  0.3320 -0.1052
  206MOL    H5449664   6.970   5.267   2.853 -0.4836 -0.4583 -1.2690
  206MOL    H5549665   7.034   5.133   2.949 -0.2678 -1.1122 -1.9724
  206MOL    H5649666   7.193   5.213   2.707 -1.4466 -0.7315 -2.8180
  206MOL    H5749667   6.920   5.085   2.676  0.3218 -1.8928 -2.0033
  206MOL    H5849668   7.016   5.079   2.543 -0.2089 -0.5357  0.7632
  206MOL    H5949669   6.931   5.270   2.476 -0.2813  0.8920  0.0213
  206MOL    H6049670   6.902   5.329   2.645 -1.5479  0.1849 -1.6532
  206MOL    H6149671   7.057   5.339   2.568 -1.4739  2.1964 -3.9346
  206MOL    C6249672   7.200   5.008   2.756  0.5414  0.7784  0.5059
  206MOL    C6349673   7.293   4.955   2.641  0.8175 -0.2392 -0.6310
  206MOL    C6449674   7.294   4.800   2.635 -0.0351  0.5404  0.6832
  206MOL    C6549675   7.158   4.727   2.593 -0.2714  0.4050 -0.7528
  206MOL    H6649676   7.120   4.935   2.764 -1.3924  2.9169  1.1441
  206MOL    H6749677   7.253   5.002   2.851  2.2708  0.0095 -0.4803
  206MOL    H6849678   7.248   4.987   2.547 -1.4822  4.5350  1.9402
  206MOL    H6949679   7.336   4.760   2.727 -0.2103  1.5567  1.2097
  206MOL    H7049680   7.364   4.772   2.556 -0.0062  0.7329  0.6411
  206MOL    H7149681   7.160   4.618   2.587 -0.4232  0.4677 -2.3685
  206MOL    H7249682   7.087   4.756   2.670 -0.4737 -0.7759 -0.4934
  206MOL    H7349683   7.124   4.765   2.496 -0.9822  1.3764 -0.1299
  206MOL    C7449684   7.437   5.013   2.639 -0.1143  0.1843 -0.0295
  206MOL    C7549685   7.460   5.161   2.633 -0.7979 -0.4790 -0.0898
  206MOL    C7649686   7.417   5.224   2.501 -0.1966 -0.3701 -0.4880
  206MOL    C7749687   7.485   5.178   2.379 -0.4164  0.3935  0.7084
  206MOL    H7849688   7.494   4.967   2.557 -1.1446  1.0412 -1.2548
  206MOL    H7949689   7.486   4.982   2.731 -1.4407  0.3163  0.7317
  206MOL    H8049690   7.403   5.196   2.719 -0.1962  0.5929 -0.1258
  206MOL    H8149691   7.428   5.331   2.519  2.1102 -1.2001  3.8682
  206MOL    H8249692   7.309   5.218   2.485 -0.0631 -1.6336 -0.9580
  206MOL    H8349693   7.448   5.079   2.353 -1.6427  1.1849 -0.6403
  206MOL    H8449694   7.448   5.244   2.301 -0.6344 -0.2735  0.2450
  206MOL    H8549695   7.592   5.164   2.392 -0.5985 -0.7480  1.0568
  206MOL    C8649696   7.617   5.199   2.666 -0.2460 -0.4581  0.5191
  206MOL    C8749697   7.689   5.172   2.797 -0.5041 -0.7289 -0.1536
  206MOL    C8849698   7.611   5.233   2.916  0.4972 -0.7013 -0.3912
  206MOL    C8949699   7.564   5.379   2.900  1.0891 -0.1407  0.5451
  206MOL    H9049700   7.637   5.305   2.649 -2.2094 -0.0080  0.9115
  206MOL    H9149701   7.675   5.142   2.594  0.4279  1.2752 -0.3458
  206MOL    H9249702   7.679   5.064   2.804 -0.4667 -0.8201 -1.3770
  206MOL    H9349703   7.682   5.230   2.998 -0.1328 -0.9264  0.1533
  206MOL    H9449704   7.527   5.171   2.945  0.7108 -0.1104  1.5671
  206MOL    H9549705   7.641   5.455   2.889 -0.3560  1.2590 -0.0970
  206MOL    H9649706   7.491   5.395   2.820 -0.8300  1.0459  2.4756
  206MOL    H9749707   7.512   5.413   2.989 -1.4178  0.1931 -0.9880
  206MOL    C9849708   0.129   5.217   2.790 -0.0272 -0.2278 -0.2095
  206MOL    C9949709   0.235   5.158   2.890  0.7857 -0.0191  0.6555
  206MOL   C10049710   0.365   5.241   2.900  0.4784  0.1566 -0.1281
  206MOL   C10149711   0.446   5.250   2.776 -0.5120 -0.4255  0.0560
  206MOL   H10249712   0.122   5.325   2.797 -0.0835 -0.2643  0.3054
  206MOL   H10349713   0.167   5.199   2.689  2.7221 -0.0135  0.7342
  206MOL   H10449714   0.170   5.153   2.977 -2.2943 -0.0342 -1.5697
  206MOL   H10549715   0.427   5.211   2.985  0.6443  0.0761 -0.2768
  206MOL   H10649716   0.337   5.343   2.927 -1.8509 -1.0027  2.0091
  206MOL   H10749717   0.500   5.157   2.760 -1.6813 -1.4648  1.9958
  206MOL   H10849718   0.387   5.268   2.686 -1.0929  0.1469  0.5417
  206MOL   H10949719   0.514   5.334   2.788 -1.0313  0.1942 -1.2521
  206MOL   C11049720   0.261   5.013   2.845 -0.0072 -0.0163  0.7778
  206MOL   C11149721   0.362   4.924   2.923 -0.3610  0.2922 -0.3985
  206MOL   C11249722   0.384   4.788   2.850  0.2088 -0.1682 -1.2010
  206MOL   C11349723   0.467   4.798   2.730  0.8738 -0.6587 -0.2239
  206MOL   H11449724   0.281   5.018   2.737  1.3860  0.8623  1.0625
  206MOL   H11549725   0.163   4.967   2.853  0.0371 -0.0293  1.2398
  206MOL   H11649726   0.452   4.986   2.922 -0.0767 -0.1206 -0.4117
  206MOL   H11749727   0.290   4.734   2.838  1.2676 -1.8032 -2.3124
  206MOL   H11849728   0.447   4.739   2.924 -0.1214  1.6750  0.3435
  206MOL   H11949729   0.416   4.856   2.653 -2.1002 -0.4473  1.8048
  206MOL   H12049730   0.561   4.850   2.746  1.1025 -0.6632 -1.5115
  206MOL   H12149731   0.484   4.700   2.687  2.6084 -0.9066  0.9963
  206MOL   C12249732   0.327   4.907   3.075  0.3621 -0.2308 -1.0389
  206MOL   C12349733   0.414   4.990   3.180 -0.7039 -0.0183 -0.4551
  206MOL   C12449734   0.557   4.932   3.196  0.1992 -0.3320 -0.5621
  206MOL   C12549735   0.563   4.795   3.255 -0.1897 -0.2974 -0.0967
  206MOL   H12649736   0.333   4.808   3.119 -3.2503  0.2735  0.7892
  206MOL   H12749737   0.223   4.932   3.096  0.2671 -1.8445  0.4979
  206MOL   H12849738   0.428   5.094   3.151  0.1913 -0.3397 -1.1913
  206MOL   H12949739   0.610   5.001   3.261 -0.7642  1.3696 -1.5400
  206MOL   H13049740   0.614   4.932   3.103 -0.2378 -0.7311 -0.8322
  206MOL   H13149741   0.497   4.724   3.205 -0.2616 -0.5725  0.3824
  206MOL   H13249742   0.659   4.749   3.232 -0.6623 -0.8655 -0.9432
  206MOL   H13349743   0.543   4.777   3.361 -1.9693 -0.4541 -0.4503
  206MOL   C13449744   0.353   4.988   3.327  0.5892  0.1530 -0.4855
  206MOL   C13549745   0.242   5.086   3.367 -0.0656  0.4278  0.4489
  206MOL   C13649746   0.262   5.229   3.318  0.3949 -0.0829  0.8535
  206MOL   C13749747   0.403   5.291   3.340  0.5739 -0.3588 -0.1984
  206MOL   H13849748   0.436   4.993   3.397  1.5027  1.9122 -1.6423
  206MOL   H13949749   0.310   4.889   3.340 -0.1516  0.5446  0.1152
  206MOL   H14049750   0.152   5.047   3.322  0.2185  0.1624  0.1075
  206MOL   H14149751   0.191   5.299   3.363  0.0196  1.1981 -1.6351
  206MOL   H14249752   0.232   5.228   3.213  0.1139 -1.2344  0.9438
  206MOL   H14349753   0.414   5.330   3.441 -1.3095  1.0484 -0.5065
  206MOL   H14449754   0.488   5.223   3.332  0.4705 -0.3072 -1.9878
  206MOL   H14549755   0.418   5.374   3.271  2.5667 -0.1404  0.4833
  206MOL   C14649756   0.219   5.089   3.523  0.9419 -0.2268 -0.1443
  206MOL   C14749757   0.180   4.961   3.598  0.0517 -0.6937 -0.4383
  206MOL   C14849758   0.048   4.908   3.540 -0.3345  0.3332 -0.1745
  206MOL   C14949759   0.018   4.770   3.595  0.8295  0.4906 -0.4921
  206MOL   H15049760   0.146   5.166   3.548  0.3889 -1.2805  1.5183
  206MOL   H15149761   0.316   5.107   3.569 -0.6202  1.4610  2.6186
  206MOL   H15249762   0.258   4.887   3.581  0.0909 -0.5195 -1.0447
  206MOL   H15349763   0.071   4.896   3.435  3.2349 -2.3736  0.8169
  206MOL   H15449764   7.673   4.981   3.541 -0.5417  0.1709  3.6457
  206MOL   H15549765   0.110   4.713   3.611  0.7705  0.5461  0.0693
  206MOL   H15649766   7.667   4.772   3.688  0.7429 -0.5546 -0.5252
  206MOL   H15749767   7.661   4.726   3.518  1.5294  0.6714 -1.1704
  206MOL   C15849768   0.177   4.989   3.749 -0.4790  0.1353  0.0391
  206MOL   C15949769   0.313   4.945   3.828  0.0565 -0.0972  0.5301
  206MOL   C16049770   0.332   4.799   3.851 -0.0818  0.2397  0.3256
  206MOL   C16149771   0.475   4.755   3.886 -0.4764  0.1125 -0.4120
  206MOL   H16249772   0.091   4.942   3.797 -1.9825  2.9371  0.2081
  206MOL   H16349773   0.162   5.097   3.758 -0.7163  0.1487 -0.4993
  206MOL   H16449774   0.402   4.971   3.771 -1.0109  2.2338 -0.1458
  206MOL   H16549775   0.288   4.742   3.769 -0.5728 -0.8916  1.3463
  206MOL   H16649776   0.259   4.783   3.931  0.8399  1.1653  1.3848
  206MOL   H16749777   0.468   4.663   3.943 -0.3148 -2.2549 -4.0834
  206MOL   H16849778   0.528   4.741   3.792  0.2388  0.1956 -0.0253
  206MOL   H16949779   0.532   4.823   3.950  1.6240 -0.8557 -1.2142
  206MOL   C17049780   0.325   5.024   3.958  0.0688 -0.1586  0.2116
  206MOL   C17149781   0.382   5.171   3.950  0.1449 -0.3475 -0.0593
  206MOL   C17249782   0.535   5.176   3.943 -0.3224  0.5188  0.6041
  206MOL   C17349783   0.602   5.115   3.817  0.7010  0.6188 -0.3201
  206MOL   H17449784   0.386   4.971   4.031 -1.8988 -1.1250  1.2016
  206MOL   H17549785   0.227   5.024   4.005  0.9697 -0.0119  2.1309
  206MOL   H17649786   0.349   5.212   3.855 -0.8562 -0.7952  0.0959
  206MOL   H17749787   0.582   5.131   4.030 -0.1603 -1.1704 -0.3381
  206MOL   H17849788   0.561   5.282   3.940 -1.7104  0.8433 -0.6092
  206MOL   H17949789   0.637   5.012   3.829 -0.7178  0.2591  0.8175
  206MOL   H18049790   0.544   5.129   3.727  0.5563  0.6064 -0.2282
  206MOL   H18149791   0.691   5.177   3.804  2.5029 -1.7796  0.0003
  206MOL   C18249792   0.331   5.259   4.070 -0.3371 -0.2153  0.2689
  206MOL   C18349793   0.291   5.398   4.023 -0.2502  0.4063 -0.1001
  206MOL   C18449794   0.272   5.489   4.141 -0.2752  0.0902 -0.0049
  206MOL   C18549795   0.139   5.479   4.220 -0.6714  0.6725  0.1959
  206MOL   H18649796   0.411   5.269   4.142 -1.2006 -0.5142  1.2833
  206MOL   H18749797   0.244   5.206   4.109 -0.2751 -0.7580 -0.3096
  206MOL   H18849798   0.381   5.428   3.969  0.6031 -1.1407  0.4231
  206MOL   H18949799   0.301   5.590   4.110  2.8535 -0.8244 -0.2711
  206MOL   H19049800   0.354   5.468   4.209 -0.3514  1.5631  0.5743
  206MOL   H19149801   0.117   5.374   4.242 -0.3223  0.2693 -1.2569
  206MOL   H19249802   0.154   5.527   4.316  3.1236 -1.2544  0.6539
  206MOL   H19349803   0.057   5.517   4.160 -0.0017 -0.5507 -1.5590
  206MOL   C19449804   0.172   5.402   3.929  0.1150  0.4220 -0.2800
  206MOL   C19549805   0.123   5.538   3.884  0.2344 -0.2043 -0.2796
  206MOL   C19649806   7.694   5.536   3.807 -0.7069  0.1886  0.0335
  206MOL   C19749807   7.692   5.489   3.662 -0.1416  0.2715  0.3181
  206MOL   H19849808   0.081   5.362   3.973  0.4940  0.1884  0.3016
  206MOL   H19949809   0.193   5.344   3.839 -0.1628  1.2880 -0.9078
  206MOL   H20049810   0.087   5.593   3.971  2.0450  0.9932 -0.2649
  206MOL   H20149811   7.654   5.638   3.812 -2.5847 -0.5998  1.8689
  206MOL   H20249812   7.617   5.477   3.857 -0.3382 -2.3038 -2.2236
  206MOL   H20349813   7.591   5.504   3.624  0.1000  0.2017 -0.3489
  206MOL   H20449814   0.033   5.564   3.599 -2.3009  0.3119 -1.3032
  206MOL   H20549815   0.029   5.392   3.636  1.0648  1.0175 -0.5199
  206MOL   C20649816   0.232   5.627   3.823 -0.2011  0.3944  0.4662
  206MOL   C20749817   0.211   5.781   3.784  0.4385 -0.8801  0.4738
  206MOL   C20849818   0.316   5.821   3.666 -0.6562  0.0462  0.1850
  206MOL   C20949819   0.326   5.729   3.547  0.0703 -0.0382 -0.6594
  206MOL   H21049820   0.242   5.583   3.723  0.9893  1.6631  0.0137
  206MOL   H21149821   0.321   5.618   3.884  1.1061  2.2789 -1.0967
  206MOL   H21249822   0.112   5.792   3.739  1.1827  0.6159 -0.8606
  206MOL   H21349823   0.415   5.826   3.712 -0.4036  0.2482 -0.3793
  206MOL   H21449824   0.279   5.916   3.628 -1.9188 -1.7213 -3.1419
  206MOL   H21549825   0.368   5.781   3.461  1.3359  0.1332  0.0513
  206MOL   H21649826   0.384   5.641   3.578 -0.9360  0.1684  2.0014
  206MOL   H21749827   0.231   5.706   3.499 -0.2878 -1.2686  0.5941
  206MOL   C21849828   0.239   5.874   3.906 -0.2961  0.3054  0.5041
  206MOL   C21949829   0.125   5.891   4.009 -0.1925  0.0366  0.5470
  206MOL   C22049830   7.706   5.961   3.953  0.3665  0.7091 -0.3512
  206MOL   C22149831   0.019   6.105   3.910  0.3849 -0.1605  0.0200
  206MOL   H22249832   0.261   5.974   3.866  1.2838 -0.2497 -0.0353
  206MOL   H22349833   0.329   5.842   3.958  1.0242 -0.3217 -2.0794
  206MOL   H22449834   0.102   5.792   4.047 -0.6663  0.3755  1.1550
  206MOL   H22549835   7.623   5.954   4.025 -1.9560 -0.1900 -3.0248
  206MOL   H22649836   7.660   5.908   3.870  0.1307 -0.5313  0.5632
  206MOL   H22749837   7.632   6.142   3.865 -0.3457 -2.0114 -0.0128
  206MOL   H22849838   0.040   6.170   3.995  2.3633  0.7701 -1.1376
  206MOL   H22949839   0.095   6.117   3.833 -0.9782 -0.6128 -1.4283
  206MOL   C23049840   0.174   5.970   4.129  0.4691  0.0082  0.0250
  206MOL   C23149841   0.247   5.873   4.236 -0.0660 -0.2831 -0.6143
  206MOL   C23249842   0.297   5.954   4.356 -1.0598 -0.3894  0.2074
  206MOL   C23349843   0.185   6.002   4.444  0.2167 -0.3391  0.1156
  206MOL   H23449844   0.095   6.026   4.178 -0.5730  0.6320 -2.2982
  206MOL   H23549845   0.248   6.040   4.090 -0.3573  0.2479 -1.1590
  206MOL   H23649846   0.170   5.804   4.271 -0.3790  0.3027 -0.1286
  206MOL   H23749847   0.358   6.040   4.329  0.8988 -1.1543  2.1325
  206MOL   H23849848   0.362   5.890   4.415 -1.3288 -1.4464 -0.6148
  206MOL   H23949849   0.099   5.935   4.446 -0.9677  1.1408 -0.3372
  206MOL   H24049850   0.205   6.037   4.545 -0.5695 -0.2562  0.2405
  206MOL   H24149851   0.139   6.089   4.395  1.0171  1.2782  2.1683
  206MOL   H24249852   0.328   5.818   4.188  1.2672 -0.7048  2.0355
   7.70595   7.70595   7.70595
