Control file title. For DL_FIELD 4.10
49950
    1MOL     C1    1   6.725   5.010   3.329  0.0184 -0.3032 -0.3850
    1MOL     C2    2   6.679   5.056   3.457 -0.8729 -0.5998  0.0162
    1MOL     C3    3   6.575   4.995   3.529 -0.1809  0.0973  0.4196
    1MOL     C4    4   6.521   4.880   3.471  1.3261  0.1661 -0.0165
    1MOL     C5    5   6.562   4.841   3.347  0.3945 -0.1129 -0.1452
    1MOL     C6    6   6.659   4.905   3.266 -0.2043  0.1806  0.3883
    1MOL     O7    7   6.697   4.855   3.144  0.1725 -0.2880  0.7092
    1MOL     H8    8   6.804   5.068   3.282  0.7270 -1.0282 -0.1121
    1MOL     H9    9   6.724   5.135   3.515  0.6604 -0.2768 -1.5697
    1MOL    H10   10   6.448   4.820   3.521  1.5593  1.2738  1.6815
    1MOL    H11   11   6.515   4.754   3.303 -1.5921  0.1099  1.4760
    1MOL    H12   12   6.542   5.041   3.621 -0.9914  0.4892 -0.0625
    1MOL    C13   13   6.509   4.952   2.831  0.1921 -0.5779  0.7170
    1MOL    C14   14   6.600   4.955   2.942 -0.5907 -0.4942 -0.2036
    1MOL    C15   15   6.606   4.853   3.043  0.1102  0.3478  0.4646
    1MOL    C16   16   6.518   4.744   3.020 -0.8405 -0.7987 -0.6314
    1MOL    C17   17   6.436   4.738   2.910 -0.6154  0.1888 -0.1021
    1MOL    C18   18   6.435   4.835   2.812  0.1104  0.3109  0.5243
    1MOL    O19   19   6.354   4.820   2.702 -0.0811  0.2998  0.1287
    1MOL    H20   20   6.502   5.030   2.757  1.4666 -2.0120 -0.9434
    1MOL    H21   21   6.667   5.037   2.964  0.7835 -2.2702  2.6542
    1MOL    H22   22   6.521   4.660   3.088 -1.2278 -1.8340 -1.8817
    1MOL    H23   23   6.374   4.650   2.898 -0.2967 -0.2710  1.5320
    1MOL    C24   24   5.988   4.835   2.725 -0.3996 -0.1682  0.3968
    1MOL    C25   25   6.113   4.791   2.693  0.4304  0.1617  0.1578
    1MOL    C26   26   6.232   4.875   2.718 -0.3493 -0.6960 -0.2018
    1MOL    C27   27   6.215   5.004   2.764  0.9009  0.7336  0.5073
    1MOL    C28   28   6.086   5.048   2.801  0.7176  0.3626  0.5901
    1MOL    C29   29   5.973   4.964   2.789  0.1582  0.2589 -0.9184
    1MOL    O30   30   5.849   5.012   2.825  0.2972  0.0611 -0.7634
    1MOL    H31   31   5.902   4.773   2.705  0.5290 -2.1509  2.3203
    1MOL    H32   32   6.124   4.692   2.651  0.9016  0.7754 -1.1651
    1MOL    H33   33   6.295   5.074   2.783  0.4697  1.2429  0.4624
    1MOL    H34   34   6.071   5.147   2.843 -2.4553 -0.8212  2.4260
    1MOL    C35   35   5.675   5.113   2.516 -0.0910 -0.1555 -0.2220
    1MOL    C36   36   5.780   5.098   2.608  0.1268  0.0978 -0.6407
    1MOL    C37   37   5.757   5.026   2.727 -0.0487  0.0590  0.0893
    1MOL    C38   38   5.624   4.965   2.750  0.3236  0.2067  0.4755
    1MOL    C39   39   5.523   4.993   2.656  0.2962 -0.3562 -0.4923
    1MOL    C40   40   5.544   5.067   2.545  0.1951 -0.5187  0.2992
    1MOL    O41   41   5.441   5.096   2.455  0.0986  0.0704  0.1173
    1MOL    H42   42   5.694   5.168   2.425  0.8914 -0.5117 -0.2330
    1MOL    H43   43   5.876   5.146   2.597  0.3006 -0.1022  0.0244
    1MOL    H44   44   5.605   4.893   2.828  2.2832 -2.3169 -1.2811
    1MOL    H45   45   5.431   4.944   2.684  0.4775 -0.0771  0.6137
    1MOL    C46   46   5.249   4.822   2.304  0.1243 -0.0770 -0.7624
    1MOL    C47   47   5.358   4.902   2.343 -0.0491  0.0629  0.3099
    1MOL    C48   48   5.339   5.004   2.433  0.2723 -0.3219 -0.4192
    1MOL    C49   49   5.217   5.026   2.497  0.0077 -0.3501 -0.2841
    1MOL    C50   50   5.109   4.947   2.454 -0.4771 -0.2177  0.4180
    1MOL    C51   51   5.122   4.849   2.354 -0.3486  0.7481  0.4445
    1MOL    O52   52   5.011   4.782   2.309 -0.1587  0.3181 -0.0648
    1MOL    H53   53   5.258   4.739   2.236  2.0321 -0.3111 -0.2680
    1MOL    H54   54   5.457   4.884   2.302 -0.6242  0.7325 -1.4331
    1MOL    H55   55   5.209   5.111   2.563  2.0633  0.7171 -1.3719
    1MOL    H56   56   5.016   4.963   2.506  0.7793 -0.3118  2.7938
    1MOL    C57   57   4.880   4.571   2.583  0.1835 -0.4449  0.1758
    1MOL    C58   58   4.902   4.687   2.505 -0.3249 -0.6199  1.4041
    1MOL    C59   59   4.983   4.673   2.387 -0.3445  0.1160 -0.4049
    1MOL    C60   60   5.024   4.540   2.350 -0.5900  0.3328 -0.9527
    1MOL    C61   61   4.987   4.425   2.418 -0.2601 -0.2757  0.3679
    1MOL    C62   62   4.921   4.440   2.543  0.7598 -0.5949 -0.1042
    1MOL    O63   63   4.891   4.330   2.622  0.4510 -0.7318  0.5786
    1MOL    H64   64   4.824   4.584   2.675  4.4943  2.0349  2.5896
    1MOL    H65   65   4.863   4.784   2.533  0.4575 -0.1103  0.7748
    1MOL    H66   66   5.086   4.522   2.263  0.8209  0.3000  0.0304
    1MOL    H67   67   5.019   4.331   2.374  0.4002  0.1860 -0.1488
    1MOL    C68   68   4.566   4.232   2.460 -0.2855  0.0451 -0.4853
    1MOL    C69   69   4.665   4.309   2.529 -0.5376  0.1425 -0.3768
    1MOL    C70   70   4.790   4.252   2.566 -0.2500  0.1821  0.1023
    1MOL    C71   71   4.811   4.117   2.536 -0.3475  0.5711  0.1221
    1MOL    C72   72   4.715   4.039   2.464  0.3382 -0.6877 -0.3936
    1MOL    C73   73   4.603   4.103   2.418 -0.4389 -0.0174  0.1945
    1MOL    O74   74   4.510   4.026   2.348 -0.0347 -0.2229  0.0030
    1MOL    H75   75   4.465   4.256   2.429 -0.6327 -0.7084  0.0525
    1MOL    H76   76   4.644   4.406   2.572 -0.4492  0.7452 -1.6559
    1MOL    H77   77   4.906   4.076   2.569  1.0937  1.6667 -2.4742
    1MOL    H78   78   4.731   3.935   2.441 -1.6764 -0.8656 -1.0951
    1MOL    C79   79   4.408   3.931   2.000  0.0641  0.1106 -0.0817
    1MOL    C80   80   4.411   3.958   2.138 -0.1340  0.3122 -0.4959
    1MOL    C81   81   4.517   4.017   2.206 -0.3151 -0.2958 -0.4954
    1MOL    C82   82   4.619   4.075   2.130  0.5215 -0.3674  0.0209
    1MOL    C83   83   4.631   4.043   1.997 -0.3412 -0.6226  0.4124
    1MOL    C84   84   4.531   3.968   1.932  0.1119 -0.7143 -0.2874
    1MOL    O85   85   4.548   3.935   1.802 -0.0280 -0.4815 -0.3074
    1MOL    H86   86   4.336   3.866   1.952  0.3288  0.2015 -0.6055
    1MOL    H87   87   4.329   3.924   2.199 -0.6665  0.8286 -0.9201
    1MOL    H88   88   4.700   4.131   2.174 -1.3130  1.5542  1.0230
    1MOL    H89   89   4.721   4.069   1.943 -1.0013 -0.2517 -0.5154
    1MOL    C90   90   4.563   4.189   1.544  0.0124  0.8981 -0.4776
    1MOL    C91   91   4.595   4.100   1.647 -0.4684  0.8235  0.1799
    1MOL    C92   92   4.496   4.020   1.707 -0.2008 -0.0734  1.0886
    1MOL    C93   93   4.362   4.032   1.665  0.3259 -0.0316 -0.3164
    1MOL    C94   94   4.331   4.116   1.552 -0.1294  0.0370 -0.1656
    1MOL    C95   95   4.435   4.196   1.491 -1.0176 -0.1628 -0.3485
    1MOL    O96   96   4.417   4.270   1.379 -0.2216  0.3824  0.1945
    1MOL    H97   97   4.638   4.245   1.491 -1.3017  0.4635 -2.8811
    1MOL    H98   98   4.699   4.097   1.676 -0.2638  4.3258  0.0216
    1MOL    H99   99   4.284   3.967   1.703  0.3687  1.7194  2.9811
    1MOL   H100  100   4.232   4.124   1.509  0.4593  0.4550 -1.4879
    1MOL   C101  101   4.142   4.488   1.270 -0.3626  1.0439  0.0083
    1MOL   C102  102   4.234   4.382   1.275 -0.4276 -0.3064 -0.4613
    1MOL   C103  103   4.317   4.364   1.388  0.2430 -0.5530  0.2147
    1MOL   C104  104   4.303   4.449   1.499  1.0094 -0.3379  0.4297
    1MOL   C105  105   4.201   4.554   1.494  0.3714 -0.3230 -0.3795
    1MOL   C106  106   4.124   4.569   1.384  0.3522  0.2722 -0.6334
    1MOL   O107  107   4.037   4.675   1.384  0.6328 -0.2016 -0.3812
    1MOL   H108  108   4.087   4.495   1.178  0.8785  0.9062 -0.7477
    1MOL   H109  109   4.247   4.314   1.193  1.8424 -0.8556  0.3308
    1MOL   H110  110   4.348   4.435   1.597 -0.9520  1.2357  1.5946
    1MOL   H111  111   4.195   4.612   1.585 -1.8492  1.4226 -1.5716
    1MOL   C112  112   3.705   4.512   1.380  0.0712 -0.3485  0.2529
    1MOL   C113  113   3.842   4.526   1.388  0.0443 -0.5164 -0.3140
    1MOL   C114  114   3.905   4.650   1.358  1.0052 -0.2758 -0.5796
    1MOL   C115  115   3.824   4.762   1.318  0.7350  0.4955  0.1408
    1MOL   C116  116   3.681   4.747   1.320  0.0621 -0.8746  0.4068
    1MOL   C117  117   3.623   4.622   1.342  0.1615 -0.2839  0.2198
    1MOL   O118  118   3.487   4.600   1.319 -0.3517 -0.3998  0.2156
    1MOL   H119  119   3.666   4.412   1.390 -1.5411  0.2151 -0.1257
    1MOL   H120  120   3.891   4.433   1.410 -0.5826 -1.2548 -1.8841
    1MOL   H121  121   3.862   4.862   1.306  1.1751  0.0180 -2.8365
    1MOL   H122  122   3.623   4.833   1.289  0.0913 -1.8769 -2.5542
    1MOL   C123  123   3.229   4.856   1.257  0.1547 -0.4275 -0.1921
    1MOL   C124  124   3.332   4.765   1.229  0.1388  0.5360 -0.7211
    1MOL   C125  125   3.393   4.699   1.334 -0.0032  0.1782 -0.9235
    1MOL   C126  126   3.344   4.721   1.468 -0.0803 -0.3245  1.0069
    1MOL   C127  127   3.243   4.818   1.492 -0.1066  0.4628  0.0239
    1MOL   C128  128   3.180   4.880   1.386  0.0771 -0.2419  0.4840
    1MOL   O129  129   3.075   4.963   1.411  0.6697  0.0838  0.2681
    1MOL   H130  130   3.179   4.904   1.175  2.9274  1.1763 -1.0029
    1MOL   H131  131   3.377   4.751   1.131  1.2415  3.2367 -0.6308
    1MOL   H132  132   3.396   4.679   1.553  1.5132 -0.2476  0.0753
    1MOL   H133  133   3.204   4.846   1.589  1.4801 -0.5478  0.9565
    1MOL   C134  134   2.968   5.251   1.214 -0.7178 -0.1075 -0.6470
    1MOL   C135  135   2.983   5.122   1.261  0.4941  0.5155 -0.2479
    1MOL   C136  136   3.079   5.093   1.357  0.5885  0.6054 -0.7130
    1MOL   C137  137   3.175   5.191   1.391 -0.3187 -0.5498 -0.2321
    1MOL   C138  138   3.157   5.325   1.345 -0.1443  0.1203 -0.6126
    1MOL   C139  139   3.054   5.354   1.255  0.2278  0.0366  0.7003
    1MOL   O140  140   3.037   5.483   1.212 -0.0355 -0.1511  0.1078
    1MOL   H141  141   2.897   5.275   1.136 -0.2101  0.4856 -0.9282
    1MOL   H142  142   2.920   5.041   1.226 -0.2306  0.3546  1.3750
    1MOL   H143  143   3.257   5.160   1.454 -1.0378  0.6022  1.2805
    1MOL   H144  144   3.234   5.398   1.363 -0.3392 -0.5684  3.3828
    1MOL   C145  145   2.780   5.640   1.413  0.1225  0.2623  0.4543
    1MOL   C146  146   2.903   5.592   1.373 -0.0791 -0.3241 -0.0258
    1MOL   C147  147   2.919   5.538   1.242  0.5739  0.8237 -0.5298
    1MOL   C148  148   2.815   5.543   1.152 -1.0053 -0.2987  0.2172
    1MOL   C149  149   2.688   5.578   1.197 -0.2712 -0.0835 -0.0179
    1MOL   C150  150   2.670   5.631   1.325  0.1904 -0.3546 -0.1382
    1MOL   O151  151   2.536   5.657   1.371 -0.1930 -0.5960  0.2645
    1MOL   H152  152   2.768   5.695   1.505 -2.6657 -0.2333  0.4491
    1MOL   H153  153   2.990   5.599   1.437 -0.5233  0.0212  0.5441
    1MOL   H154  154   2.830   5.494   1.057  1.2506  0.6285  0.0718
    1MOL   H155  155   2.595   5.563   1.144 -0.3311  0.2412 -0.0068
    1MOL   C156  156   2.462   6.014   1.330 -0.3109 -0.2448  0.0108
    1MOL   C157  157   2.522   5.893   1.377  0.7677  0.3080  0.0848
    1MOL   C158  158   2.480   5.770   1.322  0.1085 -0.0067  0.0528
    1MOL   C159  159   2.379   5.765   1.224 -0.2963 -0.3001  0.9015
    1MOL   C160  160   2.307   5.884   1.192  0.5417  0.0516  0.0186
    1MOL   C161  161   2.349   6.008   1.245  0.1961 -0.1257  0.3169
    1MOL   O162  162   2.279   6.124   1.215  0.2585 -0.4342  0.3462
    1MOL   H163  163   2.472   6.111   1.376 -0.2700  0.4892 -1.5375
    1MOL   H164  164   2.601   5.903   1.450 -1.8298  0.0333  3.0235
    1MOL   H165  165   2.351   5.668   1.187  0.2578 -0.8076  1.7935
    1MOL   H166  166   2.230   5.880   1.116  1.3661 -2.4969 -0.7410
    1MOL   C167  167   2.436   6.265   0.912 -0.8159  0.7038  0.0671
    1MOL   C168  168   2.377   6.170   0.997 -0.1648  0.1683 -0.7973
    1MOL   C169  169   2.328   6.210   1.128  0.4421 -0.3070  0.3484
    1MOL   C170  170   2.328   6.347   1.160  0.2239 -0.2575 -0.1254
    1MOL   C171  171   2.369   6.445   1.067 -0.4314 -0.2510 -0.0344
    1MOL   C172  172   2.427   6.404   0.944  0.1789  0.7245 -0.0468
    1MOL   O173  173   2.470   6.498   0.852  0.7843 -0.1783 -0.1668
    1MOL   H174  174   2.474   6.225   0.819 -0.7630  0.9241 -0.0067
    1MOL   H175  175   2.380   6.067   0.965 -2.6871 -0.2713  0.2906
    1MOL   H176  176   2.273   6.384   1.245 -0.6681  0.2117 -0.8975
    1MOL   H177  177   2.377   6.550   1.092  1.2633 -0.2960 -0.3266
    1MOL   C178  178   2.309   6.516   0.516 -0.4146  0.4370 -0.0884
    1MOL   C179  179   2.406   6.485   0.619  0.9255  0.4434 -0.5844
    1MOL   C180  180   2.384   6.527   0.755  0.5861  0.5793 -0.8053
    1MOL   C181  181   2.253   6.576   0.790  0.4821  0.4969  0.4420
    1MOL   C182  182   2.157   6.603   0.686  0.2739  0.4131 -0.1087
    1MOL   C183  183   2.189   6.577   0.550 -0.0772  0.5482 -0.3259
    1MOL   O184  184   2.109   6.617   0.445  0.4984 -0.3392  0.0138
    1MOL   H185  185   2.341   6.501   0.414  0.5563  0.7444  0.1619
    1MOL   H186  186   2.504   6.447   0.596  0.2329 -2.2390  0.6724
    1MOL   H187  187   2.229   6.590   0.894 -1.4146 -1.0472  0.2425
    1MOL   H188  188   2.072   6.663   0.714 -0.0055 -0.7093  1.4897
    1MOL   C189  189   1.914   6.319   0.354 -0.4772 -0.5942 -0.2514
    1MOL   C190  190   1.955   6.442   0.421  0.4987  0.3184  0.4507
    1MOL   C191  191   2.057   6.518   0.371  0.2003 -0.4722  0.3170
    1MOL   C192  192   2.125   6.474   0.254 -0.1313 -0.1666 -0.7602
    1MOL   C193  193   2.080   6.358   0.180 -0.5902  0.5249  0.3938
    1MOL   C194  194   1.982   6.282   0.233 -0.0548  0.5765 -0.1305
    1MOL   O195  195   1.921   6.178   0.165 -0.4760  0.2561  0.6072
    1MOL   H196  196   1.828   6.270   0.397 -2.2258  2.5552 -0.0126
    1MOL   H197  197   1.911   6.489   0.508 -1.7874 -0.5887 -0.1734
    1MOL   H198  198   2.213   6.529   0.224  1.0027 -1.0096  0.9891
    1MOL   H199  199   2.131   6.334   0.087 -0.2112  3.7632 -0.2945
    1MOL   C200  200   1.648   6.265   8.194 -0.2900 -0.7303  0.5127
    1MOL   C201  201   1.723   6.251   0.053 -0.8019 -0.7500 -0.6736
    1MOL   C202  202   1.856   6.203   0.048  0.8294  0.0162 -0.0944
    1MOL   C203  203   1.910   6.174   8.179  0.0701 -0.6215 -0.1543
    1MOL   C204  204   1.836   6.195   8.062  0.6971 -0.5307  0.1971
    1MOL   C205  205   1.702   6.243   8.069 -0.3234 -0.2344  0.0357
    1MOL   O206  206   1.659   6.296   7.951  0.1928  0.1423  0.2678
    1MOL   H207  207   1.556   6.321   8.192 -1.1429 -2.0911  0.5182
    1MOL   H208  208   1.693   6.272   0.155  2.3416 -0.3960  0.2484
    1MOL   H209  209   2.013   6.142   8.191  0.5352  1.0303  0.4091
    1MOL   H210  210   1.876   6.168   7.965  1.5793 -0.6307  0.5834
    1MOL   C211  211   1.310   6.186   7.932 -0.4360 -0.4303  0.3776
    1MOL   C212  212   1.450   6.188   7.934  0.1995  0.2649 -0.0157
    1MOL   C213  213   1.523   6.312   7.938  0.4715 -0.2105  0.2937
    1MOL   C214  214   1.459   6.434   7.935 -0.2442  0.4480  0.0862
    1MOL   C215  215   1.320   6.431   7.924 -0.3885 -0.0503 -0.2602
    1MOL   C216  216   1.245   6.311   7.925  0.3424 -0.0233 -0.5553
    1MOL   O217  217   1.106   6.320   7.931 -0.9560 -0.1095  0.1489
    1MOL   H218  218   1.259   6.093   7.954 -1.3143  0.1923  1.0037
    1MOL   H219  219   1.496   6.094   7.958 -0.2052 -0.4197 -1.8251
    1MOL   H220  220   1.511   6.528   7.947  0.5603 -0.1703  1.4351
    1MOL   H221  221   1.262   6.522   7.920 -0.1682  0.1187  0.2869
    1MOL   H222  222   1.071   6.387   7.874 -0.0840  3.2943  3.3593
    2MOL     C1  223   2.852   1.722   2.846  0.8148  0.1515 -0.2819
    2MOL     C2  224   2.874   1.657   2.728  0.3310  1.2040  0.1034
    2MOL     C3  225   2.769   1.616   2.649  0.4160 -0.1896  0.4150
    2MOL     C4  226   2.638   1.646   2.688  0.0954  0.4577  0.2670
    2MOL     C5  227   2.613   1.716   2.808  0.5633  0.2574  1.0390
    2MOL     C6  228   2.718   1.763   2.884 -1.6446 -0.2571 -0.5742
    2MOL     O7  229   2.701   1.834   3.002 -0.1768 -0.1222 -0.2334
    2MOL     H8  230   2.933   1.756   2.909 -1.8716  1.1100  2.7996
    2MOL     H9  231   2.973   1.624   2.700 -0.0939 -1.2317  1.3526
    2MOL    H10  232   2.555   1.611   2.629  0.2002  0.5831  0.0480
    2MOL    H11  233   2.513   1.744   2.839 -0.4554 -1.6928 -0.3412
    2MOL    H12  234   2.786   1.554   2.562 -1.1437 -0.3094  0.1761
    2MOL    C13  235   2.389   1.926   3.178 -0.1718  0.5138 -0.1707
    2MOL    C14  236   2.497   1.931   3.085 -0.0279 -0.6508 -0.0952
    2MOL    C15  237   2.585   1.821   3.078 -0.4185  0.8056 -0.3769
    2MOL    C16  238   2.552   1.702   3.146  0.0976  0.3925  0.0411
    2MOL    C17  239   2.437   1.690   3.231 -0.5462  0.5239  1.2187
    2MOL    C18  240   2.360   1.807   3.252 -0.3198  0.5009 -0.4029
    2MOL    O19  241   2.265   1.799   3.350 -0.0723 -0.4242 -0.5309
    2MOL    H20  242   2.334   2.016   3.202  1.4672  1.8824 -1.4347
    2MOL    H21  243   2.517   2.015   3.020 -0.5844 -1.0793 -0.8231
    2MOL    H22  244   2.624   1.622   3.135  1.3507  1.2913  1.3826
    2MOL    H23  245   2.416   1.603   3.291  1.0484 -0.2425  0.6942
    2MOL    C24  246   2.420   1.936   3.655 -1.1411 -0.4850 -0.0985
    2MOL    C25  247   2.375   1.930   3.524  0.6131 -0.4753  0.3649
    2MOL    C26  248   2.311   1.812   3.480 -0.6110  0.9738 -0.2030
    2MOL    C27  249   2.290   1.710   3.569 -0.0966 -1.1843  0.6609
    2MOL    C28  250   2.333   1.715   3.704 -0.5657  0.0788 -0.5262
    2MOL    C29  251   2.403   1.826   3.744  0.0059 -0.8121 -0.0620
    2MOL    O30  252   2.455   1.832   3.876 -0.0040 -0.2346  0.0299
    2MOL    H31  253   2.466   2.027   3.690 -2.5138  0.1961 -0.0112
    2MOL    H32  254   2.400   2.008   3.454  0.9887 -1.1913 -0.3202
    2MOL    H33  255   2.246   1.623   3.522 -0.4136 -0.5033 -0.3279
    2MOL    H34  256   2.305   1.625   3.757  0.7356 -0.0374 -0.0179
    2MOL    C35  257   2.205   2.035   4.062  0.1360  0.1713 -0.2003
    2MOL    C36  258   2.283   1.982   3.960 -0.4340  0.0317 -0.0389
    2MOL    C37  259   2.373   1.878   3.976 -0.5167 -0.2570  0.0768
    2MOL    C38  260   2.398   1.830   4.099  0.0554 -0.9387  0.2532
    2MOL    C39  261   2.329   1.895   4.211 -0.1500  0.3779 -0.7460
    2MOL    C40  262   2.228   1.984   4.197  0.7010 -1.3275 -0.3692
    2MOL    O41  263   2.145   2.024   4.297  0.0174 -0.5483 -0.4745
    2MOL    H42  264   2.137   2.117   4.044 -2.0950 -1.8248 -1.0505
    2MOL    H43  265   2.284   2.026   3.861 -0.2422 -1.9445 -0.9429
    2MOL    H44  266   2.465   1.746   4.111  0.1767 -0.9454 -0.4336
    2MOL    H45  267   2.346   1.851   4.308 -1.9246  0.4139 -0.4045
    2MOL    C46  268   2.364   2.135   4.589  0.1621 -0.3343  0.4662
    2MOL    C47  269   2.319   2.109   4.454 -0.1634 -0.2621 -0.2986
    2MOL    C48  270   2.194   2.048   4.427  0.0169 -0.1109  0.6135
    2MOL    C49  271   2.117   1.999   4.533 -0.3643  0.1179 -0.2306
    2MOL    C50  272   2.164   2.008   4.670  0.0622 -0.0954  0.0535
    2MOL    C51  273   2.286   2.083   4.693 -0.3185  0.3342 -0.1666
    2MOL    O52  274   2.324   2.096   4.826  0.5695 -0.1228 -0.0356
    2MOL    H53  275   2.458   2.188   4.596 -0.4989  1.1265 -1.3226
    2MOL    H54  276   2.377   2.143   4.370 -1.0898 -0.5277 -1.0574
    2MOL    H55  277   2.032   1.937   4.507 -1.4769  1.1615  0.8656
    2MOL    H56  278   2.108   1.965   4.752  0.0715 -1.2174 -0.5194
    2MOL    C57  279   2.625   1.924   4.943 -0.4695 -0.1406 -0.0994
    2MOL    C58  280   2.537   2.026   4.908 -0.4197 -0.4533 -0.1209
    2MOL    C59  281   2.401   1.994   4.879 -0.1560  0.0067  0.3722
    2MOL    C60  282   2.351   1.866   4.905  0.7522  0.2465  0.7846
    2MOL    C61  283   2.436   1.766   4.948  0.0468 -0.0954  0.2001
    2MOL    C62  284   2.572   1.794   4.965  0.2343 -0.8523 -0.3522
    2MOL    O63  285   2.660   1.695   5.007  0.5531  1.2654 -0.4455
    2MOL    H64  286   2.730   1.945   4.957 -0.2109 -0.1043 -1.9447
    2MOL    H65  287   2.579   2.125   4.893  0.9307 -0.6710  2.0944
    2MOL    H66  288   2.246   1.842   4.898  1.2460 -1.8279  0.2930
    2MOL    H67  289   2.394   1.675   4.990 -3.4436  0.6024 -1.5556
    2MOL    C68  290   2.722   1.359   4.888 -0.1937  0.1845 -0.7105
    2MOL    C69  291   2.690   1.465   4.965 -0.1333  0.5335 -0.1196
    2MOL    C70  292   2.701   1.598   4.921  0.3245 -0.3835 -0.4123
    2MOL    C71  293   2.767   1.627   4.796  0.0950  0.1853  0.0524
    2MOL    C72  294   2.795   1.516   4.710 -0.2823  0.7759 -0.4879
    2MOL    C73  295   2.777   1.384   4.756 -0.4420 -0.0771 -0.1692
    2MOL    O74  296   2.801   1.282   4.663  0.1314  0.2089 -0.3582
    2MOL    H75  297   2.712   1.254   4.915  2.2132 -0.0735 -0.6824
    2MOL    H76  298   2.668   1.458   5.070 -1.8925  1.5886 -0.3969
    2MOL    H77  299   2.769   1.729   4.760  0.1510  0.0428 -0.3466
    2MOL    H78  300   2.820   1.531   4.607 -0.9583 -0.3739 -0.8327
    2MOL    C79  301   2.988   0.961   4.732  0.3648  0.8067 -0.7005
    2MOL    C80  302   2.887   1.055   4.694  0.1866 -0.0754  0.4555
    2MOL    C81  303   2.902   1.194   4.700  0.1497  0.3499  0.1154
    2MOL    C82  304   3.030   1.241   4.742  0.1701  0.1166  0.0284
    2MOL    C83  305   3.129   1.150   4.778  0.4950 -0.3112 -0.5445
    2MOL    C84  306   3.111   1.008   4.786 -0.4389 -0.6370  0.2251
    2MOL    O85  307   3.214   0.916   4.798 -0.3595 -0.1501  0.0180
    2MOL    H86  308   2.961   0.857   4.724  1.9152  0.4320 -1.2683
    2MOL    H87  309   2.790   1.016   4.664  0.4285 -1.0883  0.9537
    2MOL    H88  310   3.039   1.346   4.765  0.7962 -0.5028  2.7095
    2MOL    H89  311   3.218   1.194   4.820  0.3093 -0.9375  0.5306
    2MOL    C90  312   3.560   1.023   4.887 -0.1823 -0.1875 -0.1651
    2MOL    C91  313   3.455   0.964   4.816  0.6930  0.2425 -0.4268
    2MOL    C92  314   3.324   0.956   4.874 -0.0715 -0.6343 -0.0959
    2MOL    C93  315   3.303   1.001   5.006  0.1713  0.3119 -0.1892
    2MOL    C94  316   3.411   1.057   5.080 -0.1328 -0.7422  0.6277
    2MOL    C95  317   3.539   1.065   5.019 -0.4930  0.3592 -0.4720
    2MOL    O96  318   3.644   1.125   5.083  0.3287 -0.0054  0.3467
    2MOL    H97  319   3.656   1.031   4.837 -0.0630 -1.8221 -0.2347
    2MOL    H98  320   3.464   0.937   4.712  1.8970 -0.2369 -0.2022
    2MOL    H99  321   3.207   0.987   5.053  0.4037 -0.7365 -0.0252
    2MOL   H100  322   3.387   1.090   5.180  0.1790 -0.2985  0.5596
    2MOL   C101  323   3.535   1.318   5.379  0.0836 -0.3927  0.5710
    2MOL   C102  324   3.566   1.282   5.244  0.2975  0.6648  0.5659
    2MOL   C103  325   3.626   1.160   5.211  0.0736 -0.0594  0.1835
    2MOL   C104  326   3.655   1.068   5.315 -0.4594 -0.0285 -1.2064
    2MOL   C105  327   3.623   1.102   5.448 -0.3335  0.2856 -0.0246
    2MOL   C106  328   3.571   1.230   5.480 -0.2658  0.0625  0.3743
    2MOL   O107  329   3.547   1.261   5.616 -0.2058 -0.0293  0.3223
    2MOL   H108  330   3.501   1.421   5.374  1.4858  0.0331 -0.7068
    2MOL   H109  331   3.521   1.346   5.170 -1.0555  1.7651  2.2785
    2MOL   H110  332   3.700   0.970   5.305 -1.7748 -0.5489 -2.1363
    2MOL   H111  333   3.647   1.030   5.524 -2.9617  0.0521  0.6412
    2MOL   C112  334   3.269   1.104   5.802  0.5829  1.0814  0.6238
    2MOL   C113  335   3.398   1.122   5.744  0.9489 -0.2106 -0.7173
    2MOL   C114  336   3.422   1.240   5.669  0.0379 -0.2757 -0.2082
    2MOL   C115  337   3.321   1.337   5.650 -0.2504  0.5004 -0.3325
    2MOL   C116  338   3.195   1.316   5.704  0.3861 -0.1332 -1.1373
    2MOL   C117  339   3.171   1.204   5.782  0.5561  0.5862  1.2554
    2MOL   O118  340   3.044   1.189   5.838  0.3339  0.0509 -0.1058
    2MOL   H119  341   3.247   1.020   5.866  0.3854  0.5289 -0.1718
    2MOL   H120  342   3.474   1.055   5.778  0.8790  0.9251  1.7569
    2MOL   H121  343   3.333   1.417   5.577 -1.4629  0.7332 -0.2845
    2MOL   H122  344   3.120   1.391   5.685  1.5555  1.8995  1.9032
    2MOL   C123  345   3.085   1.338   6.180  0.3450 -0.4663  0.7109
    2MOL   C124  346   3.113   1.259   6.063 -0.0658  0.4806  0.2524
    2MOL   C125  347   3.029   1.267   5.949 -0.0579 -0.0481  0.3060
    2MOL   C126  348   2.913   1.340   5.956 -0.3497  0.9240 -0.4619
    2MOL   C127  349   2.880   1.411   6.078  0.0477  0.4729  0.4336
    2MOL   C128  350   2.964   1.411   6.182  1.2108  0.5161 -0.5371
    2MOL   O129  351   2.942   1.503   6.279 -0.3126 -1.1662 -0.2673
    2MOL   H130  352   3.145   1.356   6.268 -1.0333  0.5288  1.4907
    2MOL   H131  353   3.203   1.200   6.062  0.9047  1.9304  1.1045
    2MOL   H132  354   2.840   1.331   5.877 -0.2149  3.0111 -0.8696
    2MOL   H133  355   2.787   1.459   6.105 -0.8929 -2.1997  2.0556
    2MOL   C134  356   2.860   1.543   6.627  0.1899  0.2605  0.7482
    2MOL   C135  357   2.915   1.568   6.503  0.3317  0.4944 -0.5829
    2MOL   C136  358   2.910   1.466   6.407 -0.2116 -0.9814 -0.8078
    2MOL   C137  359   2.862   1.337   6.438  0.1692 -0.5245  0.2269
    2MOL   C138  360   2.810   1.314   6.568  0.0223 -0.5296 -0.2006
    2MOL   C139  361   2.806   1.417   6.661 -0.7213  0.1437 -0.3332
    2MOL   O140  362   2.757   1.389   6.784  0.0898 -0.0638  0.2305
    2MOL   H141  363   2.866   1.621   6.701  4.6851 -0.1283  0.9404
    2MOL   H142  364   2.949   1.665   6.472 -1.3500  1.3249  0.1088
    2MOL   H143  365   2.849   1.258   6.365 -3.0356 -0.2483  0.4218
    2MOL   H144  366   2.775   1.213   6.586  0.1792 -0.0694  3.0015
    2MOL   C145  367   2.985   1.185   6.977 -0.0526  0.1880 -0.7576
    2MOL   C146  368   2.899   1.228   6.878  0.4750 -0.3787  0.1780
    2MOL   C147  369   2.844   1.360   6.881  0.0186 -0.2598 -0.0042
    2MOL   C148  370   2.874   1.447   6.987  0.4627  0.2308  0.4860
    2MOL   C149  371   2.961   1.397   7.087 -0.0485  0.6373 -0.5147
    2MOL   C150  372   3.025   1.273   7.075  0.1347 -0.5364  0.2026
    2MOL   O151  373   3.132   1.246   7.153  0.1636  0.2547  0.3244
    2MOL   H152  374   3.031   1.087   6.974  0.6668  0.4791  0.5407
    2MOL   H153  375   2.880   1.160   6.796 -0.4496 -0.9226  0.8376
    2MOL   H154  376   2.828   1.543   7.005  0.0271  0.1445 -0.1751
    2MOL   H155  377   2.975   1.453   7.179 -1.6096 -0.9524  0.7238
    2MOL   C156  378   3.072   1.017   7.431  0.0150 -0.7699  0.6757
    2MOL   C157  379   3.096   1.061   7.300 -0.7787  0.3296 -0.0161
    2MOL   C158  380   3.098   1.198   7.273 -0.4536 -1.2253 -0.2325
    2MOL   C159  381   3.076   1.290   7.378 -0.4119  0.5592  0.5656
    2MOL   C160  382   3.049   1.245   7.510 -0.4382 -0.0524 -0.2509
    2MOL   C161  383   3.046   1.111   7.533 -0.6234  0.3809 -0.0301
    2MOL   O162  384   3.013   1.070   7.661 -0.1705  0.6097  0.2355
    2MOL   H163  385   3.069   0.911   7.453  0.1214 -0.5419  1.7833
    2MOL   H164  386   3.121   0.993   7.220 -2.4898 -1.5211  0.9784
    2MOL   H165  387   3.085   1.396   7.363  1.0967  0.2895 -0.5164
    2MOL   H166  388   3.036   1.327   7.578 -0.5427  0.8347 -1.3302
    2MOL   C167  389   2.870   0.732   7.693  0.0457 -0.5967 -0.3991
    2MOL   C168  390   2.956   0.837   7.705 -0.1846  0.0139  0.0887
    2MOL   C169  391   2.915   0.970   7.673  0.5385 -0.0065 -0.0243
    2MOL   C170  392   2.781   0.990   7.638 -0.1527 -0.0648 -0.6672
    2MOL   C171  393   2.690   0.889   7.620 -0.0048  0.1230  0.0090
    2MOL   C172  394   2.741   0.758   7.640  0.8472  0.1257 -0.1642
    2MOL   O173  395   2.664   0.651   7.622 -0.4152 -0.0021  0.2480
    2MOL   H174  396   2.891   0.626   7.695 -1.0274 -0.8722 -2.3134
    2MOL   H175  397   3.062   0.823   7.722 -0.0401 -3.9642 -3.4235
    2MOL   H176  398   2.760   1.091   7.605  2.3291  0.7663  0.2128
    2MOL   H177  399   2.588   0.913   7.593 -0.1380 -1.2713 -0.7538
    2MOL   C178  400   2.429   0.559   7.890  0.0786 -0.4395 -0.5198
    2MOL   C179  401   2.542   0.570   7.811 -0.2123  0.0286 -0.5055
    2MOL   C180  402   2.547   0.637   7.688 -0.4188  0.0792  0.4893
    2MOL   C181  403   2.423   0.689   7.648  0.0850 -0.2012  0.2258
    2MOL   C182  404   2.307   0.680   7.730  0.1073 -0.2001  0.4733
    2MOL   C183  405   2.307   0.607   7.847 -0.1582 -0.2455  0.7539
    2MOL   O184  406   2.202   0.589   7.930  0.1332  0.6177 -0.5155
    2MOL   H185  407   2.444   0.495   7.976 -2.1535 -0.4757 -0.1286
    2MOL   H186  408   2.637   0.535   7.847 -1.0116 -1.3951  0.2559
    2MOL   H187  409   2.409   0.753   7.563  2.5116  0.5122  0.3308
    2MOL   H188  410   2.208   0.704   7.694  0.0592 -0.9549  0.0949
    2MOL   C189  411   1.956   0.372   7.762 -0.6356 -0.0532 -0.0388
    2MOL   C190  412   2.078   0.419   7.812 -0.2745 -0.0790  0.2482
    2MOL   C191  413   2.085   0.545   7.871 -0.8701  0.3535  0.1763
    2MOL   C192  414   1.969   0.630   7.882 -0.6745 -0.4723  0.5094
    2MOL   C193  415   1.847   0.582   7.826 -0.8033 -0.8994  0.6246
    2MOL   C194  416   1.843   0.454   7.756  0.2636 -0.1938 -0.3306
    2MOL   O195  417   1.744   0.408   7.676 -0.2930 -0.3537  0.1376
    2MOL   H196  418   1.944   0.271   7.726 -1.5152 -0.0047  0.0939
    2MOL   H197  419   2.173   0.368   7.799 -0.8173 -1.0440  0.0222
    2MOL   H198  420   1.974   0.713   7.951 -1.4115 -0.6173  0.7521
    2MOL   H199  421   1.761   0.648   7.830 -0.9188 -1.0633  0.8567
    2MOL   C200  422   1.556   0.666   7.495 -0.4789 -0.6586 -0.2564
    2MOL   C201  423   1.654   0.574   7.530  0.2462 -0.0545 -0.3634
    2MOL   C202  424   1.648   0.503   7.650  1.4200  0.3593 -0.7144
    2MOL   C203  425   1.546   0.526   7.745  0.9501 -0.1667  0.2927
    2MOL   C204  426   1.440   0.614   7.706 -0.9740 -0.1205 -0.3923
    2MOL   C205  427   1.446   0.683   7.581  0.1714  0.2265  0.2980
    2MOL   O206  428   1.353   0.768   7.534 -0.6904 -0.1809  0.1257
    2MOL   H207  429   1.579   0.723   7.406  1.7651 -0.9902  0.0812
    2MOL   H208  430   1.735   0.559   7.460 -0.3891 -0.3488 -1.0264
    2MOL   H209  431   1.524   0.460   7.828 -0.4009 -0.6861 -0.4448
    2MOL   H210  432   1.354   0.630   7.771 -0.8401 -0.2324 -0.1867
    2MOL   C211  433   1.091   0.527   7.455  0.2078  0.3523 -0.3564
    2MOL   C212  434   1.218   0.585   7.459  0.2639 -0.2024 -0.4234
    2MOL   C213  435   1.229   0.706   7.526  0.6118  0.1013  0.4020
    2MOL   C214  436   1.121   0.762   7.591 -0.2060 -0.3991 -0.0716
    2MOL   C215  437   0.998   0.694   7.596  0.5194 -0.0206 -0.1577
    2MOL   C216  438   0.987   0.572   7.529  0.6210  0.5340  0.1300
    2MOL   O217  439   0.863   0.511   7.522 -0.1512 -0.0764 -0.0837
    2MOL   H218  440   1.078   0.426   7.418  0.1409  0.3512 -0.3293
    2MOL   H219  441   1.304   0.559   7.400 -0.0954  0.7724 -1.3980
    2MOL   H220  442   1.133   0.855   7.644  3.2734 -1.3472  0.9426
    2MOL   H221  443   0.920   0.739   7.656  0.3910  0.5471 -0.7523
    2MOL   H222  444   0.869   0.429   7.477  1.5830 -0.1772  0.3205
    3MOL     C1  445   5.936   3.098   5.764 -0.1905  0.0458 -0.0704
    3MOL     C2  446   6.030   2.991   5.749 -0.4993  0.7216  0.1777
    3MOL     C3  447   6.028   2.880   5.836 -0.1155 -0.1139  0.6508
    3MOL     C4  448   5.927   2.873   5.933 -0.9041  0.0456  0.4140
    3MOL     C5  449   5.832   2.978   5.945  0.3390  0.1801 -0.1151
    3MOL     C6  450   5.836   3.091   5.859  0.2761  0.4079  0.3840
    3MOL     O7  451   5.751   3.191   5.877  0.3112  0.0441 -0.2525
    3MOL     H8  452   5.935   3.184   5.699  1.6831  0.4002  0.3592
    3MOL     H9  453   6.109   2.982   5.676  1.0039  0.8950  1.7452
    3MOL    H10  454   5.929   2.799   6.011  2.8854 -0.6223 -0.2200
    3MOL    H11  455   5.769   2.985   6.033  2.0987  0.0600  1.1861
    3MOL    H12  456   6.099   2.799   5.841  0.9311  0.8911  2.4953
    3MOL    C13  457   5.487   3.190   5.621  0.8690 -0.4073  0.2303
    3MOL    C14  458   5.585   3.146   5.709  0.7371 -0.5950  0.3124
    3MOL    C15  459   5.668   3.234   5.773 -0.4840 -0.0583  0.0419
    3MOL    C16  460   5.663   3.369   5.746 -0.1682 -0.3296  0.1537
    3MOL    C17  461   5.563   3.421   5.658 -0.3253  0.1890 -1.2251
    3MOL    C18  462   5.480   3.327   5.588 -0.5820 -0.3511 -0.2692
    3MOL    O19  463   5.381   3.369   5.497 -0.3268 -0.1324 -0.4365
    3MOL    H20  464   5.415   3.123   5.575  0.5741  0.4252 -0.5364
    3MOL    H21  465   5.591   3.042   5.737 -0.8547 -0.6869  0.3382
    3MOL    H22  466   5.730   3.436   5.799  0.2449 -0.0748 -0.6808
    3MOL    H23  467   5.564   3.526   5.634  0.3374  0.6095  0.5442
    3MOL    C24  468   5.416   3.169   5.185 -0.0797 -0.3070 -1.4482
    3MOL    C25  469   5.454   3.238   5.302 -0.1608  0.6790  0.1341
    3MOL    C26  470   5.355   3.298   5.382  0.3733 -0.0180 -0.4367
    3MOL    C27  471   5.219   3.292   5.338 -0.1185 -0.7716 -0.0194
    3MOL    C28  472   5.186   3.239   5.206  0.4237 -0.0491 -0.3675
    3MOL    C29  473   5.284   3.173   5.136  0.1198  0.6283 -0.2700
    3MOL    O30  474   5.255   3.119   5.014 -0.4930 -0.2476 -0.0559
    3MOL    H31  475   5.490   3.116   5.125 -0.1033  0.1275 -1.8622
    3MOL    H32  476   5.560   3.236   5.324 -0.0414 -0.8777 -0.4734
    3MOL    H33  477   5.149   3.335   5.408 -0.9851 -1.7180 -0.2829
    3MOL    H34  478   5.083   3.239   5.173  1.2606  0.6311 -3.1193
    3MOL    C35  479   5.000   2.884   4.919  0.3468 -0.6635  0.4303
    3MOL    C36  480   5.066   3.005   4.933 -1.0350  0.0476  0.1086
    3MOL    C37  481   5.185   3.004   5.012  0.0234 -0.6148  0.3119
    3MOL    C38  482   5.236   2.887   5.060  0.5218 -0.2467  0.3622
    3MOL    C39  483   5.174   2.760   5.041  0.3948 -0.0360  1.0424
    3MOL    C40  484   5.047   2.765   4.973  0.2803  0.2305  0.3957
    3MOL    O41  485   4.975   2.655   4.942  0.3311  0.6359  0.1516
    3MOL    H42  486   4.911   2.878   4.859 -0.9330 -1.1874  2.3617
    3MOL    H43  487   5.026   3.095   4.890 -1.3679 -0.9796 -1.7853
    3MOL    H44  488   5.327   2.880   5.117  0.4781  0.4359  0.5289
    3MOL    H45  489   5.214   2.670   5.086  0.5594 -0.7425 -0.4662
    3MOL    C46  490   4.981   2.348   4.739 -0.3667  0.1184 -0.1456
    3MOL    C47  491   4.940   2.451   4.833 -0.9842  0.1214 -0.0535
    3MOL    C48  492   5.025   2.566   4.849  0.3020  0.2279 -0.6513
    3MOL    C49  493   5.142   2.580   4.771  0.4708 -0.1488 -0.0240
    3MOL    C50  494   5.182   2.474   4.691 -0.0130  0.1100 -0.1332
    3MOL    C51  495   5.105   2.355   4.677 -0.2462 -0.3538  0.6412
    3MOL    O52  496   5.141   2.258   4.584  0.5998 -0.2959  0.4048
    3MOL    H53  497   4.902   2.280   4.711  0.4830 -0.5039 -1.0694
    3MOL    H54  498   4.845   2.455   4.882 -0.7026  2.6546  0.3276
    3MOL    H55  499   5.195   2.674   4.777 -0.9166  0.6468 -0.1750
    3MOL    H56  500   5.278   2.479   4.641  0.2439 -3.6912 -0.1403
    3MOL    C57  501   5.389   2.033   4.732 -0.4745  0.6993 -0.2815
    3MOL    C58  502   5.272   2.103   4.705  0.5784 -0.3437 -0.5544
    3MOL    C59  503   5.263   2.198   4.604  0.8201  0.1226  0.4767
    3MOL    C60  504   5.374   2.228   4.522  0.8312  0.7027  0.2040
    3MOL    C61  505   5.486   2.148   4.542  0.4490  1.2155  0.0973
    3MOL    C62  506   5.495   2.056   4.648  0.1420  0.0623  1.4556
    3MOL    O63  507   5.612   1.992   4.659 -0.5751 -0.8916 -0.2445
    3MOL    H64  508   5.403   1.965   4.814  1.8014 -1.1112 -2.1022
    3MOL    H65  509   5.188   2.084   4.770 -0.9590 -0.3414 -2.4786
    3MOL    H66  510   5.367   2.300   4.443 -1.2438  2.2395  1.7473
    3MOL    H67  511   5.572   2.176   4.482 -1.2561 -0.8146 -3.4353
    3MOL    C68  512   5.835   2.160   4.894  0.2130 -0.4023  0.2758
    3MOL    C69  513   5.716   2.111   4.839  0.3165 -0.3334  0.4902
    3MOL    C70  514   5.722   2.050   4.710 -0.3646 -0.0672 -0.4874
    3MOL    C71  515   5.841   2.056   4.637  0.1458 -0.1392  0.3734
    3MOL    C72  516   5.955   2.122   4.692  0.3691 -0.6717 -0.3157
    3MOL    C73  517   5.955   2.169   4.825  0.0403 -0.1912 -0.1288
    3MOL    O74  518   6.063   2.223   4.884  0.4275  0.3200  0.3453
    3MOL    H75  519   5.834   2.188   4.998  0.1277 -1.3709  0.5378
    3MOL    H76  520   5.620   2.111   4.888 -0.2550 -0.1104 -0.6082
    3MOL    H77  521   5.848   2.008   4.541  2.4567 -0.2150  0.5662
    3MOL    H78  522   6.046   2.135   4.636  2.1065 -2.3905  2.0073
    3MOL    C79  523   6.379   2.240   4.712 -1.1456  0.1881  0.2413
    3MOL    C80  524   6.254   2.278   4.760 -0.9248 -0.9330 -0.8708
    3MOL    C81  525   6.187   2.188   4.840 -0.1341 -0.1001 -0.0316
    3MOL    C82  526   6.238   2.061   4.883 -1.2360  0.6198  0.1031
    3MOL    C83  527   6.367   2.028   4.838 -0.7489  0.2393  0.2040
    3MOL    C84  528   6.432   2.111   4.743  0.4310  0.4284 -0.0029
    3MOL    O85  529   6.559   2.076   4.700 -0.4017 -0.3239  0.4740
    3MOL    H86  530   6.449   2.307   4.664 -1.4210  0.5519  0.3468
    3MOL    H87  531   6.213   2.372   4.728  0.0103  0.0225  0.6808
    3MOL    H88  532   6.185   1.987   4.940  2.0326 -0.4805  1.7831
    3MOL    H89  533   6.420   1.938   4.865 -1.2173  0.6093  2.5188
    3MOL    C90  534   6.596   1.846   4.417 -0.7903  0.4904  0.6219
    3MOL    C91  535   6.589   1.887   4.552  0.6646 -0.3078 -0.6414
    3MOL    C92  536   6.566   2.023   4.574 -0.8082 -0.2438 -0.0344
    3MOL    C93  537   6.568   2.120   4.467 -0.0928  0.4441  0.0669
    3MOL    C94  538   6.573   2.072   4.333 -0.4683  0.3306  0.2159
    3MOL    C95  539   6.595   1.937   4.311  0.0503  0.1667 -0.4501
    3MOL    O96  540   6.602   1.888   4.187  0.0068  0.3670 -0.2891
    3MOL    H97  541   6.584   1.740   4.399  1.5911  0.3682 -0.3821
    3MOL    H98  542   6.581   1.816   4.634 -1.0018 -2.1571 -2.3403
    3MOL    H99  543   6.566   2.227   4.483  3.3431  0.3764  1.5000
    3MOL   H100  544   6.581   2.136   4.246  0.3230  0.3456  0.2919
    3MOL   C101  545   6.262   1.857   4.030 -0.1344  0.0091 -0.2984
    3MOL   C102  546   6.371   1.908   4.100 -0.3320 -0.1045  0.8760
    3MOL   C103  547   6.489   1.836   4.121  0.0537 -0.1926  0.2748
    3MOL   C104  548   6.500   1.704   4.067 -0.1657 -0.9525 -0.1180
    3MOL   C105  549   6.392   1.654   3.994 -0.0752  0.7170  0.7396
    3MOL   C106  550   6.272   1.723   3.974  0.6391  0.1860 -0.0439
    3MOL   O107  551   6.169   1.667   3.907 -0.9334  0.3570 -0.4572
    3MOL   H108  552   6.165   1.903   4.022  0.1675  0.8670  0.8814
    3MOL   H109  553   6.364   2.007   4.143  2.7504  0.3572  0.4139
    3MOL   H110  554   6.585   1.643   4.094  1.5580  2.0729  1.5418
    3MOL   H111  555   6.402   1.553   3.957  1.2215  1.4993 -1.1233
    3MOL   C112  556   6.147   1.412   3.651  0.1436  0.1574 -0.3763
    3MOL   C113  557   6.130   1.489   3.767 -0.2572 -0.1271 -0.3231
    3MOL   C114  558   6.195   1.614   3.784 -0.1529  0.0292 -0.8016
    3MOL   C115  559   6.282   1.657   3.685  0.5335 -1.1819 -0.4390
    3MOL   C116  560   6.294   1.591   3.565  0.3663  0.1382  0.0565
    3MOL   C117  561   6.227   1.466   3.548 -0.3023 -0.0815 -0.0810
    3MOL   O118  562   6.267   1.394   3.433  0.2420 -0.3980  0.4247
    3MOL   H119  563   6.110   1.311   3.644  2.3219 -0.7402  0.4251
    3MOL   H120  564   6.057   1.455   3.840  1.0109 -3.2143 -0.3890
    3MOL   H121  565   6.346   1.742   3.704 -2.3661  0.7239  1.1276
    3MOL   H122  566   6.346   1.635   3.481  0.4289  0.1195  0.0859
    3MOL   C123  567   6.606   1.249   3.410  0.7082 -0.0573 -0.5453
    3MOL   C124  568   6.498   1.344   3.411  0.9824  0.9051 -0.4559
    3MOL   C125  569   6.366   1.299   3.440  0.1810  0.1737  0.2821
    3MOL   C126  570   6.336   1.162   3.460  0.4614  0.5210 -0.5259
    3MOL   C127  571   6.440   1.067   3.451 -0.1164 -0.1610  0.7221
    3MOL   C128  572   6.579   1.110   3.432  0.0717  0.3313  0.4624
    3MOL   O129  573   6.675   1.015   3.417  0.6829 -0.7989  0.1509
    3MOL   H130  574   6.708   1.278   3.387  0.0941  1.5773 -1.2138
    3MOL   H131  575   6.520   1.448   3.388  1.6892  0.5881 -1.2555
    3MOL   H132  576   6.239   1.123   3.486  2.0651 -3.4123 -0.0002
    3MOL   H133  577   6.433   0.960   3.465  0.5979 -0.3178 -0.0309
    3MOL   C134  578   6.599   0.758   3.168  0.3519  0.7336  0.2357
    3MOL   C135  579   6.608   0.828   3.292  0.6258  0.4630 -0.1958
    3MOL   C136  580   6.672   0.950   3.296  0.0394  0.6846 -0.0624
    3MOL   C137  581   6.746   0.991   3.181  1.1233  0.4996 -0.1248
    3MOL   C138  582   6.745   0.923   3.059 -0.0670 -1.4449  0.3094
    3MOL   C139  583   6.665   0.799   3.057  0.3688 -0.9567 -0.0469
    3MOL   O140  584   6.644   0.740   2.935  0.5353  0.0104  0.2996
    3MOL   H141  585   6.536   0.671   3.156 -0.5060  1.1958  1.3384
    3MOL   H142  586   6.553   0.788   3.376  0.0011 -1.1573 -1.3599
    3MOL   H143  587   6.796   1.086   3.189 -1.5432  1.9291  0.2148
    3MOL   H144  588   6.799   0.954   2.971 -0.4348  0.5614  0.7612
    3MOL   C145  589   6.678   0.381   2.852 -0.5241 -0.1364  0.4807
    3MOL   C146  590   6.622   0.507   2.879 -0.0381 -0.2810 -0.2877
    3MOL   C147  591   6.701   0.617   2.915  0.8913  0.0814 -0.8458
    3MOL   C148  592   6.840   0.600   2.928  0.0535 -0.0722  0.5779
    3MOL   C149  593   6.900   0.473   2.902 -0.0216 -0.2847 -0.4681
    3MOL   C150  594   6.820   0.365   2.863 -0.1589 -0.1707  0.2530
    3MOL   O151  595   6.885   0.252   2.812  0.2559  0.2093 -0.0512
    3MOL   H152  596   6.614   0.311   2.800  0.6780  1.3363 -3.1556
    3MOL   H153  597   6.516   0.528   2.875  0.5796  3.7511  1.2383
    3MOL   H154  598   6.909   0.681   2.946  1.2325 -0.2252 -2.9406
    3MOL   H155  599   7.007   0.468   2.913 -0.1626  0.8254  1.9031
    3MOL   C156  600   7.164   0.082   2.994  0.4480 -0.1845  0.1806
    3MOL   C157  601   7.089   0.169   2.908  0.3500  0.1362  0.1930
    3MOL   C158  602   6.948   0.172   2.902  0.2815 -0.4352  0.2879
    3MOL   C159  603   6.881   0.079   2.988  0.3752 -0.6115 -0.4146
    3MOL   C160  604   6.953   8.246   3.078  0.1556 -0.0678 -0.7769
    3MOL   C161  605   7.095   8.244   3.083  0.3131 -0.7072 -0.0460
    3MOL   O162  606   7.170   8.162   3.165 -0.1612 -0.2026 -0.4449
    3MOL   H163  607   7.271   0.094   2.998  0.3628  0.2219  1.4726
    3MOL   H164  608   7.145   0.243   2.851  0.3579 -0.7113 -0.9181
    3MOL   H165  609   6.773   0.074   2.997  0.2599  0.5257 -0.9943
    3MOL   H166  610   6.900   8.167   3.129  0.2794 -0.3102 -1.0165
    3MOL   C167  611   7.059   7.816   3.086  0.2230  0.3618 -0.1951
    3MOL   C168  612   7.095   7.950   3.067 -0.5793  0.7474 -0.2990
    3MOL   C169  613   7.130   8.031   3.178  0.3175 -0.7730  0.4083
    3MOL   C170  614   7.129   7.967   3.303  0.0237 -0.4288 -0.1728
    3MOL   C171  615   7.087   7.834   3.331 -0.6556 -0.0527  0.2664
    3MOL   C172  616   7.051   7.760   3.217  0.0345 -0.1058 -0.6567
    3MOL   O173  617   7.002   7.633   3.236  0.0781 -0.2268 -0.3088
    3MOL   H174  618   7.017   7.760   3.004 -0.4948  1.5404 -0.6458
    3MOL   H175  619   7.094   7.992   2.967  0.5813 -0.3029 -0.7536
    3MOL   H176  620   7.150   8.030   3.388 -0.8041  1.1487 -1.1216
    3MOL   H177  621   7.090   7.785   3.427 -1.3460 -0.2007  0.2144
    3MOL   C178  622   6.858   7.415   2.970 -0.1071 -0.3861 -0.4149
    3MOL   C179  623   6.869   7.510   3.072  0.3594  0.4423 -0.0245
    3MOL   C180  624   6.994   7.551   3.128  0.4076  0.1035  0.2136
    3MOL   C181  625   7.110   7.492   3.072  0.3277 -0.2283  0.1435
    3MOL   C182  626   7.104   7.405   2.961 -0.4321  0.6617 -0.1168
    3MOL   C183  627   6.974   7.368   2.905 -0.2572  0.2179 -0.7917
    3MOL   O184  628   6.968   7.287   2.794 -0.7351  0.6513 -0.2829
    3MOL   H185  629   6.762   7.387   2.929 -0.5456 -2.2286  1.7698
    3MOL   H186  630   6.776   7.546   3.116  0.3541  1.7227 -1.0513
    3MOL   H187  631   7.205   7.530   3.107  1.2668 -0.7327 -1.8112
    3MOL   H188  632   7.196   7.377   2.914  0.3799  1.6790  0.8422
    3MOL   C189  633   6.760   6.993   2.814  0.3030 -0.5683  0.3815
    3MOL   C190  634   6.861   7.084   2.837 -0.5343 -0.3697 -0.2292
    3MOL   C191  635   6.859   7.206   2.775 -0.4954  0.2478  0.4272
    3MOL   C192  636   6.755   7.235   2.680 -0.0656 -0.0616 -0.5537
    3MOL   C193  637   6.641   7.151   2.680 -0.3769 -0.5060 -0.1170
    3MOL   C194  638   6.642   7.030   2.748  0.3219  0.5093 -0.2144
    3MOL   O195  639   6.536   6.940   2.736 -0.3558  0.1759  0.2729
    3MOL   H196  640   6.763   6.890   2.847 -1.8781 -0.4399  1.0227
    3MOL   H197  641   6.940   7.054   2.904  1.5327  1.5622 -1.7229
    3MOL   H198  642   6.753   7.329   2.626 -0.3356  0.3670  0.1839
    3MOL   H199  643   6.559   7.169   2.612 -1.0123  1.2832  1.0848
    3MOL   C200  644   6.326   7.003   3.028 -0.3614  0.4519 -0.0037
    3MOL   C201  645   6.440   6.975   2.954 -0.0085  0.2794 -1.0035
    3MOL   C202  646   6.429   6.972   2.814 -0.3933  0.2380  0.2362
    3MOL   C203  647   6.311   6.997   2.752  0.6799 -0.0482  0.3332
    3MOL   C204  648   6.191   7.029   2.822 -0.1912 -0.1235  0.1236
    3MOL   C205  649   6.199   7.031   2.963  0.3771  0.2328  0.5675
    3MOL   O206  650   6.090   7.054   3.041 -0.0617  0.2390 -0.2286
    3MOL   H207  651   6.337   7.003   3.135  0.3237 -1.0595 -0.0645
    3MOL   H208  652   6.528   6.947   3.010  0.1879 -1.5579 -2.1964
    3MOL   H209  653   6.302   6.995   2.645  1.2914  0.0007  0.2785
    3MOL   H210  654   6.100   7.051   2.769 -0.1261 -1.1302 -0.4211
    3MOL   C211  655   5.877   7.353   2.991  1.0529  0.7425  0.1329
    3MOL   C212  656   5.926   7.217   2.983  0.6596 -0.3065  0.4111
    3MOL   C213  657   6.040   7.179   3.055  0.1161  0.2725 -0.7103
    3MOL   C214  658   6.099   7.270   3.144  0.0073 -0.3400  0.1996
    3MOL   C215  659   6.053   7.400   3.160  0.1584  0.9511  0.1833
    3MOL   C216  660   5.948   7.442   3.076  0.4511  0.3850  0.4865
    3MOL   O217  661   5.905   7.574   3.084 -0.3062 -0.2145 -0.4899
    3MOL   H218  662   5.801   7.396   2.928  1.6922  0.3499 -0.9210
    3MOL   H219  663   5.882   7.156   2.906  1.1881  0.9127 -0.8708
    3MOL   H220  664   6.184   7.235   3.200 -0.9899 -0.2931  1.7523
    3MOL   H221  665   6.116   7.468   3.216  2.2452 -2.1091  1.6881
    3MOL   H222  666   5.976   7.635   3.087 -0.6580  0.1894 -0.3172
    4MOL     C1  667   2.632   1.304   0.056 -0.2360  0.2072  0.1265
    4MOL     C2  668   2.555   1.189   0.061  0.5790 -1.0125 -0.2590
    4MOL     C3  669   2.616   1.064   0.096 -0.3326 -0.0321 -0.1942
    4MOL     C4  670   2.750   1.047   0.132  0.3486  0.1170  0.5140
    4MOL     C5  671   2.823   1.173   0.133 -0.0582 -0.0743  0.5791
    4MOL     C6  672   2.766   1.299   0.095  0.0858  0.2610 -0.2648
    4MOL     O7  673   2.845   1.417   0.092 -0.3202 -0.1069  0.4642
    4MOL     H8  674   2.589   1.400   0.030  0.6220  0.7789  0.7885
    4MOL     H9  675   2.448   1.188   0.043  0.5772  0.3935 -0.3615
    4MOL    H10  676   2.784   0.952   0.170  2.1721  1.1314  1.5109
    4MOL    H11  677   2.930   1.163   0.150 -0.0127 -1.0679 -0.2488
    4MOL    H12  678   2.560   0.972   0.104 -0.6218  0.1349 -0.2914
    4MOL    C13  679   2.824   1.569   0.420 -0.6972 -0.3406 -0.6331
    4MOL    C14  680   2.869   1.487   0.318 -0.0610 -0.0575  0.1004
    4MOL    C15  681   2.828   1.511   0.185  0.2073  0.2206  0.1483
    4MOL    C16  682   2.747   1.626   0.160 -0.2292  0.5224  0.1943
    4MOL    C17  683   2.712   1.712   0.267 -0.6092 -0.3021  1.2868
    4MOL    C18  684   2.746   1.682   0.403  0.0695  0.9800  0.1820
    4MOL    O19  685   2.706   1.761   0.512 -0.1688 -0.2019  0.0363
    4MOL    H20  686   2.851   1.524   0.515 -0.5767 -0.5833 -0.7799
    4MOL    H21  687   2.925   1.400   0.348 -0.1658  0.5903  2.2386
    4MOL    H22  688   2.704   1.657   0.066 -0.2620 -0.1364 -0.0093
    4MOL    H23  689   2.651   1.800   0.250 -1.7170 -1.4203 -0.6621
    4MOL    C24  690   2.953   1.895   0.761  0.8236 -0.3371 -0.0349
    4MOL    C25  691   2.865   1.885   0.649 -0.0628  0.1028  0.0287
    4MOL    C26  692   2.785   1.769   0.623  0.1666 -0.0640  0.0867
    4MOL    C27  693   2.803   1.660   0.716  0.1134  0.3512 -0.5375
    4MOL    C28  694   2.894   1.669   0.822  0.1961  0.3182  0.4461
    4MOL    C29  695   2.974   1.779   0.831 -0.1102  0.0865 -1.1611
    4MOL    O30  696   3.068   1.781   0.931 -0.5301 -0.4196  0.3442
    4MOL    H31  697   3.004   1.990   0.772  0.0347  0.3959 -2.4718
    4MOL    H32  698   2.854   1.971   0.585  0.4771 -1.6881 -2.5410
    4MOL    H33  699   2.754   1.564   0.704  3.6940 -1.4673 -1.5482
    4MOL    H34  700   2.909   1.578   0.879 -1.3804 -0.6184 -0.5975
    4MOL    C35  701   3.387   1.666   0.761  0.0342 -0.2716  0.2245
    4MOL    C36  702   3.271   1.744   0.793  0.2985 -0.8868 -0.0896
    4MOL    C37  703   3.184   1.706   0.900 -0.2672 -0.6370 -0.0690
    4MOL    C38  704   3.214   1.593   0.977 -0.0949 -0.1369 -0.4560
    4MOL    C39  705   3.326   1.516   0.953 -0.2318  0.8617 -0.1840
    4MOL    C40  706   3.415   1.557   0.844 -0.2730 -0.2308 -0.5727
    4MOL    O41  707   3.529   1.480   0.812  0.5424 -0.3506 -0.0904
    4MOL    H42  708   3.442   1.681   0.670 -0.0539 -1.8110 -0.0885
    4MOL    H43  709   3.251   1.829   0.730 -0.8394 -1.2653 -0.2526
    4MOL    H44  710   3.137   1.560   1.046 -0.6325 -0.3886 -1.1638
    4MOL    H45  711   3.343   1.433   1.019 -0.0615  0.7284 -0.3949
    4MOL    C46  712   3.545   1.118   0.858 -0.4477  0.0787 -0.5639
    4MOL    C47  713   3.563   1.253   0.880  1.1276  0.2033  0.3537
    4MOL    C48  714   3.519   1.347   0.777 -0.5834  0.7144 -0.6859
    4MOL    C49  715   3.455   1.300   0.662 -0.6324 -0.8847  0.2142
    4MOL    C50  716   3.453   1.160   0.638  0.0844  0.5064  0.7181
    4MOL    C51  717   3.504   1.070   0.734  0.4977 -0.5958  0.2226
    4MOL    O52  718   3.508   0.939   0.711 -0.1788  0.3499 -0.3837
    4MOL    H53  719   3.571   1.052   0.940 -1.0292  1.7187  0.9778
    4MOL    H54  720   3.604   1.283   0.975  1.6592  0.7267 -0.0306
    4MOL    H55  721   3.413   1.376   0.598 -0.3198 -1.0416 -0.1774
    4MOL    H56  722   3.406   1.127   0.546  2.4062 -0.4235 -0.1795
    4MOL    C57  723   3.730   0.725   0.911  0.5411 -0.0091  0.3434
    4MOL    C58  724   3.617   0.797   0.876  0.1045  0.2196  0.0667
    4MOL    C59  725   3.613   0.868   0.755 -0.2921  0.2559  0.4079
    4MOL    C60  726   3.728   0.874   0.673 -0.2634 -0.3013 -0.3908
    4MOL    C61  727   3.844   0.801   0.710  0.3256  1.7410  0.5599
    4MOL    C62  728   3.836   0.715   0.823 -0.5091  0.5735  0.4506
    4MOL    O63  729   3.931   0.624   0.855 -0.0226  0.5604  0.0796
    4MOL    H64  730   3.731   0.677   1.008 -3.3547  0.7049  0.8302
    4MOL    H65  731   3.527   0.787   0.935  0.7322  0.6593  1.1092
    4MOL    H66  732   3.726   0.930   0.581 -0.8444  1.8510  0.8987
    4MOL    H67  733   3.938   0.799   0.657  0.3238  0.1996  0.5946
    4MOL    C68  734   4.172   0.469   0.628  0.4634  0.5336 -0.1996
    4MOL    C69  735   4.117   0.544   0.731 -0.3389  0.6544  0.5415
    4MOL    C70  736   3.981   0.545   0.758 -0.3981 -0.4816  0.5124
    4MOL    C71  737   3.901   0.462   0.674 -0.6077  0.7175 -0.8519
    4MOL    C72  738   3.956   0.388   0.569  0.1440 -0.0087  0.3480
    4MOL    C73  739   4.093   0.385   0.547 -0.5606 -0.3408 -0.7146
    4MOL    O74  740   4.145   0.299   0.452 -0.0238  0.2931 -0.1152
    4MOL    H75  741   4.278   0.461   0.612  0.5004 -0.3130  0.3978
    4MOL    H76  742   4.172   0.606   0.801  1.1192 -0.1211  0.0947
    4MOL    H77  743   3.795   0.456   0.695 -0.1952 -1.3467  0.8678
    4MOL    H78  744   3.892   0.331   0.503  0.0502  1.6873 -1.0608
    4MOL    C79  745   4.331   8.233   0.431  0.1496  0.0140 -0.2202
    4MOL    C80  746   4.262   0.100   0.400  0.4230  0.3188 -0.0589
    4MOL    C81  747   4.194   0.176   0.500 -0.1557 -0.4392 -0.0098
    4MOL    C82  748   4.200   0.133   0.634  0.0974  0.0415 -0.3748
    4MOL    C83  749   4.270   0.014   0.659  0.2536 -0.0369 -0.6950
    4MOL    C84  750   4.334   8.192   0.565  0.5406 -0.0754  1.1326
    4MOL    O85  751   4.386   8.069   0.596  0.1898 -0.1125  0.0941
    4MOL    H86  752   4.375   8.165   0.360 -1.9346  0.1786 -1.7299
    4MOL    H87  753   4.267   0.131   0.296  0.7048 -2.1391 -0.8331
    4MOL    H88  754   4.153   0.191   0.711  3.4218 -0.3486  2.0287
    4MOL    H89  755   4.276   8.236   0.763  1.6147 -2.3370 -1.4332
    4MOL    C90  756   4.408   7.945   0.935 -0.7742  0.5978  0.4049
    4MOL    C91  757   4.381   7.962   0.800  0.4312 -0.3958 -0.6896
    4MOL    C92  758   4.448   8.055   0.715  0.5030 -0.1151 -0.2991
    4MOL    C93  759   4.554   8.129   0.778  0.6640 -0.5473 -0.1763
    4MOL    C94  760   4.587   8.113   0.917 -0.6861 -0.1400 -0.3366
    4MOL    C95  761   4.524   8.015   0.992  0.2491 -0.0510 -0.1664
    4MOL    O96  762   4.568   7.983   1.119  0.2298 -1.0615  0.0203
    4MOL    H97  763   4.353   7.873   0.995 -0.1394 -0.3577 -0.1334
    4MOL    H98  764   4.303   7.905   0.751  0.0805 -0.1092 -0.4588
    4MOL    H99  765   4.604   8.203   0.717  0.7087  1.3005  2.0360
    4MOL   H100  766   4.673   8.167   0.952 -0.8916 -1.4307  2.2761
    4MOL   C101  767   4.520   8.242   1.382 -0.1616  0.2730  0.5998
    4MOL   C102  768   4.574   8.176   1.272  0.5678 -0.0233  0.0673
    4MOL   C103  769   4.505   8.065   1.215  0.0014 -0.4172  0.3563
    4MOL   C104  770   4.378   8.038   1.268  0.7640  0.1619 -0.0916
    4MOL   C105  771   4.317   8.113   1.373  0.1314  0.4522  0.3718
    4MOL   C106  772   4.391   8.214   1.434  0.4216  0.2326 -0.4229
    4MOL   O107  773   4.340   0.038   1.526 -0.3109 -0.0152 -0.2802
    4MOL   H108  774   4.591   0.057   1.425  1.5362 -0.3052 -1.1849
    4MOL   H109  775   4.677   8.196   1.246  0.0956  0.1653 -1.6857
    4MOL   H110  776   4.330   7.947   1.235  2.3572 -0.2484 -1.3932
    4MOL   H111  777   4.224   8.088   1.421  0.5370  0.5487  1.2233
    4MOL   C112  778   3.973   0.060   1.579 -0.8238  0.5808 -0.8516
    4MOL   C113  779   4.106   0.015   1.591  0.1755 -0.2428 -0.2287
    4MOL   C114  780   4.207   0.076   1.513  0.6709 -0.1530 -0.2152
    4MOL   C115  781   4.172   0.180   1.427 -0.3604  0.1243 -0.1965
    4MOL   C116  782   4.036   0.213   1.404  0.6716 -0.9808  0.6776
    4MOL   C117  783   3.935   0.160   1.489 -0.6070  0.9040 -0.5242
    4MOL   O118  784   3.804   0.197   1.480 -0.3105 -0.0124  0.5983
    4MOL   H119  785   3.903   0.007   1.643 -2.7347 -0.4051 -3.6681
    4MOL   H120  786   4.130   8.197   1.668  0.6410  0.5958  0.4170
    4MOL   H121  787   4.248   0.226   1.364  1.4329 -2.0572  0.3112
    4MOL   H122  788   4.005   0.287   1.332 -2.5504 -0.6539  2.3490
    4MOL   C123  789   3.765   0.443   1.755  0.1539 -0.1966  0.8635
    4MOL   C124  790   3.813   0.382   1.636 -0.1018  0.8509  0.0020
    4MOL   C125  791   3.754   0.264   1.591 -0.4256  0.1073  0.2779
    4MOL   C126  792   3.649   0.211   1.664  0.1985  0.4158  0.3667
    4MOL   C127  793   3.606   0.260   1.785  0.2374 -0.1143  0.0980
    4MOL   C128  794   3.662   0.380   1.827 -0.0226 -0.5261 -0.8870
    4MOL   O129  795   3.615   0.435   1.943  0.3955 -0.0276 -0.8873
    4MOL   H130  796   3.816   0.529   1.797  0.4290  0.1592 -0.2005
    4MOL   H131  797   3.899   0.424   1.584  0.0892  0.9874  0.4267
    4MOL   H132  798   3.614   0.116   1.627 -1.0245  1.0036 -0.0100
    4MOL   H133  799   3.525   0.215   1.842 -2.0111  2.5070 -0.9075
    4MOL   C134  800   3.452   0.745   2.066  0.9881 -0.3713  0.8646
    4MOL   C135  801   3.530   0.630   2.062  0.3271  0.3349  1.2796
    4MOL   C136  802   3.535   0.548   1.943 -0.0094 -0.1844  0.4378
    4MOL   C137  803   3.455   0.593   1.834  0.5039 -0.0728 -0.0250
    4MOL   C138  804   3.370   0.704   1.842 -0.0350 -0.5094 -0.0432
    4MOL   C139  805   3.362   0.777   1.961 -0.7781  0.3949 -0.2487
    4MOL   O140  806   3.282   0.885   1.975 -0.1554 -0.0362 -0.3120
    4MOL   H141  807   3.447   0.803   2.157 -0.2457  1.8462 -0.5761
    4MOL   H142  808   3.596   0.610   2.145  3.2369  2.6780 -0.3771
    4MOL   H143  809   3.466   0.529   1.748  2.8851 -0.7222  0.7100
    4MOL   H144  810   3.315   0.735   1.754  1.7128 -1.2260 -1.3968
    4MOL   C145  811   3.030   0.818   2.233  0.3188  0.0485 -0.5922
    4MOL   C146  812   3.133   0.793   2.139 -0.4347 -0.3114  0.1691
    4MOL   C147  813   3.207   0.903   2.087  0.2229 -0.0346 -0.6747
    4MOL   C148  814   3.172   1.034   2.132 -0.4245  0.3900  0.0209
    4MOL   C149  815   3.078   1.055   2.235 -0.4707 -0.9197  0.4220
    4MOL   C150  816   3.011   0.947   2.291 -0.1060 -0.0261 -0.2819
    4MOL   O151  817   2.915   0.967   2.387 -0.9094  0.0799  0.0035
    4MOL   H152  818   2.973   0.730   2.262 -0.9789  1.3259  0.8554
    4MOL   H153  819   3.149   0.695   2.096  3.0709  0.4806 -0.4546
    4MOL   H154  820   3.230   1.112   2.085  0.2731  0.3805  0.8417
    4MOL   H155  821   3.072   1.156   2.273 -0.2130 -0.7971  0.1472
    4MOL   C156  822   2.788   0.722   2.630 -0.4470 -0.0475 -0.6622
    4MOL   C157  823   2.792   0.807   2.516 -0.1214  0.2435 -0.6762
    4MOL   C158  824   2.911   0.882   2.493 -0.2780 -0.7110  0.1434
    4MOL   C159  825   3.013   0.879   2.590 -0.2738  0.3267 -0.0270
    4MOL   C160  826   3.009   0.794   2.706 -0.3506  0.5165  0.1281
    4MOL   C161  827   2.899   0.707   2.721  0.0405 -0.7685 -0.0885
    4MOL   O162  828   2.898   0.617   2.826 -0.1038  0.7385  0.0123
    4MOL   H163  829   2.703   0.655   2.629  0.1146 -0.7827 -0.1248
    4MOL   H164  830   2.711   0.817   2.446  0.4267  1.0147 -1.2010
    4MOL   H165  831   3.096   0.947   2.584 -2.3143  3.1134  1.8356
    4MOL   H166  832   3.094   0.800   2.771 -0.3557  2.6755 -0.0044
    4MOL   C167  833   2.573   0.465   2.948  0.3088 -0.7040 -0.1820
    4MOL   C168  834   2.688   0.550   2.933  0.3612 -1.2574  0.0756
    4MOL   C169  835   2.789   0.523   2.835 -0.7463 -0.3813 -0.5179
    4MOL   C170  836   2.777   0.413   2.747  0.4333 -0.2181 -0.0822
    4MOL   C171  837   2.672   0.322   2.769 -0.2853 -0.5244  0.1359
    4MOL   C172  838   2.567   0.345   2.864 -0.2485 -0.2852  0.2963
    4MOL   O173  839   2.474   0.248   2.875 -0.6219 -0.1003 -0.0128
    4MOL   H174  840   2.495   0.471   3.022  1.0223 -2.0657  0.7025
    4MOL   H175  841   2.693   0.627   3.009  2.5983 -0.0499 -1.2538
    4MOL   H176  842   2.857   0.397   2.676  0.7539 -1.1444  0.4839
    4MOL   H177  843   2.677   0.229   2.715  1.0583 -0.3642 -0.0387
    4MOL   C178  844   2.162   0.209   3.086 -0.9155 -0.6082 -0.0643
    4MOL   C179  845   2.296   0.198   3.030 -0.8612  0.0526 -0.8758
    4MOL   C180  846   2.347   0.273   2.928 -0.5813  0.0975  0.3417
    4MOL   C181  847   2.258   0.367   2.871  0.2269  0.7560 -0.0082
    4MOL   C182  848   2.127   0.390   2.915 -0.0138 -0.4163  0.5102
    4MOL   C183  849   2.080   0.306   3.025  0.5787 -0.0817 -0.4705
    4MOL   O184  850   1.948   0.325   3.054  0.4926 -0.1254 -0.1554
    4MOL   H185  851   2.131   0.134   3.157  1.4749 -2.6165 -1.0544
    4MOL   H186  852   2.367   0.123   3.063  0.6142  1.5541 -0.5455
    4MOL   H187  853   2.291   0.414   2.780  0.9944  1.9777  0.8949
    4MOL   H188  854   2.064   0.462   2.866  0.0333 -0.6773  0.0635
    4MOL   C189  855   1.833   0.045   3.262 -0.2689 -0.0530  0.2263
    4MOL   C190  856   1.875   0.179   3.229 -0.3359  0.2167  0.0413
    4MOL   C191  857   1.881   0.206   3.094  0.0240 -0.6503  0.6473
    4MOL   C192  858   1.828   0.124   2.996 -0.7160 -0.0670 -0.2724
    4MOL   C193  859   1.778   8.253   3.030 -0.7367 -0.4301  0.0747
    4MOL   C194  860   1.791   8.209   3.167 -0.0324 -0.1358 -0.1952
    4MOL   O195  861   1.753   8.082   3.206  0.7390  0.8620  0.8813
    4MOL   H196  862   1.845   0.002   3.361 -4.8397  2.8417  2.2221
    4MOL   H197  863   1.922   0.242   3.304 -1.2214  2.1978 -1.0431
    4MOL   H198  864   1.839   0.165   2.896  1.4908  3.8319  1.4778
    4MOL   H199  865   1.746   8.186   2.952  1.7737 -0.6328 -0.8083
    4MOL   C200  866   1.435   8.060   3.386  0.1705  0.1140  0.0853
    4MOL   C201  867   1.524   8.093   3.281  0.0096  0.0949  0.2706
    4MOL   C202  868   1.661   8.071   3.301  0.1945 -0.1102  0.0759
    4MOL   C203  869   1.706   8.025   3.425 -0.4675  0.0802 -0.8282
    4MOL   C204  870   1.615   8.010   3.535  0.3709  0.0917 -0.3582
    4MOL   C205  871   1.478   8.020   3.512  0.5387  0.9613 -0.3022
    4MOL   O206  872   1.392   7.975   3.609  0.4144 -0.1472 -0.2536
    4MOL   H207  873   1.331   8.079   3.363  0.3971  1.6871  0.3190
    4MOL   H208  874   1.486   8.122   3.185  0.7878  1.2264  0.2913
    4MOL   H209  875   1.812   8.010   3.439 -0.0250  2.6838 -1.1176
    4MOL   H210  876   1.655   7.990   3.633  0.8339  0.1662 -0.5311
    4MOL   C211  877   1.111   7.733   3.621  0.4721 -0.2463  0.2222
    4MOL   C212  878   1.189   7.851   3.643 -0.8540 -0.5610  0.1389
    4MOL   C213  879   1.324   7.857   3.593  0.5076  0.5624  0.3661
    4MOL   C214  880   1.384   7.746   3.534 -0.0229 -0.1169 -0.1639
    4MOL   C215  881   1.310   7.622   3.525  0.3384 -0.5022  0.1499
    4MOL   C216  882   1.172   7.626   3.559  0.3418  0.4985 -0.5306
    4MOL   O217  883   1.103   7.514   3.533  0.3292 -0.1346  0.2424
    4MOL   H218  884   1.008   7.732   3.653 -0.1608 -1.8844 -1.7675
    4MOL   H219  885   1.148   7.937   3.694  0.6816 -1.3190  2.6988
    4MOL   H220  886   1.487   7.757   3.502 -0.2274  1.2063 -0.3582
    4MOL   H221  887   1.364   7.537   3.486  1.9362  1.9310 -3.1993
    4MOL   H222  888   1.016   7.506   3.568 -0.4809 -3.1493 -2.2505
    5MOL     C1  889   1.831   2.586   0.160  0.3067 -0.0295 -0.6093
    5MOL     C2  890   1.945   2.574   0.076 -0.0861 -0.6409  0.3948
    5MOL     C3  891   2.050   2.672   0.092  0.5197 -0.1438 -0.2336
    5MOL     C4  892   2.029   2.779   0.182 -0.4738 -0.1645  0.2799
    5MOL     C5  893   1.918   2.785   0.269  0.3376 -0.1341 -0.2059
    5MOL     C6  894   1.818   2.691   0.254  0.4151  0.4778 -0.2606
    5MOL     O7  895   1.694   2.701   0.315  0.0913  0.3918  0.3972
    5MOL     H8  896   1.754   2.511   0.150  0.8612 -1.0763  2.4468
    5MOL     H9  897   1.961   2.494   0.005 -1.0141 -1.7115  1.3788
    5MOL    H10  898   2.108   2.853   0.185 -0.9646  0.3044  2.0080
    5MOL    H11  899   1.908   2.864   0.342  3.5183  3.2679 -3.3181
    5MOL    H12  900   2.138   2.669   0.029  0.5623 -0.6011 -0.1504
    5MOL    C13  901   1.757   2.729   0.681 -0.1529 -0.4380  0.7172
    5MOL    C14  902   1.769   2.690   0.543 -0.2271  0.0544  0.3739
    5MOL    C15  903   1.678   2.732   0.448 -0.7010 -0.4240 -0.5612
    5MOL    C16  904   1.573   2.822   0.488  0.5181  0.0935  0.0884
    5MOL    C17  905   1.566   2.869   0.623 -0.2088 -0.6169  1.1398
    5MOL    C18  906   1.653   2.818   0.720  0.1949 -0.4795 -0.5965
    5MOL    O19  907   1.631   2.847   0.855 -0.5124 -0.1943 -0.0025
    5MOL    H20  908   1.834   2.695   0.749 -0.0585 -0.0873  0.7866
    5MOL    H21  909   1.849   2.624   0.513  0.2558  1.5788 -1.7757
    5MOL    H22  910   1.497   2.850   0.417  1.1307 -1.7394 -1.3485
    5MOL    H23  911   1.486   2.935   0.655 -1.1461 -0.6643 -1.0307
    5MOL    C24  912   1.425   2.753   1.153  0.3848  0.1222 -0.0032
    5MOL    C25  913   1.514   2.825   1.065  0.1790  0.2494  0.3247
    5MOL    C26  914   1.542   2.779   0.934  0.7167 -0.8593 -0.5853
    5MOL    C27  915   1.482   2.662   0.889 -0.3904  0.5154 -0.4184
    5MOL    C28  916   1.393   2.595   0.975  0.8932  0.2109 -0.3404
    5MOL    C29  917   1.357   2.638   1.106 -0.0874 -0.4670  0.3238
    5MOL    O30  918   1.271   2.569   1.188 -0.0370 -0.6925  0.0224
    5MOL    H31  919   1.410   2.787   1.254  2.9219  1.3841 -0.0191
    5MOL    H32  920   1.567   2.911   1.104  1.1610 -0.3178  0.2780
    5MOL    H33  921   1.493   2.622   0.790  2.6836 -2.0782  0.8850
    5MOL    H34  922   1.359   2.504   0.928 -1.2892  0.0074  1.5213
    5MOL    C35  923   0.927   2.448   1.100  0.0463  0.7297 -0.1576
    5MOL    C36  924   1.066   2.445   1.134  0.5661  0.3614  0.1015
    5MOL    C37  925   1.138   2.566   1.150 -0.0462 -0.1629  0.3096
    5MOL    C38  926   1.069   2.693   1.140  0.0640  0.3047  0.1071
    5MOL    C39  927   0.928   2.700   1.109  0.1193 -0.2407 -0.8346
    5MOL    C40  928   0.864   2.575   1.094  0.5352 -0.0593 -0.3158
    5MOL    O41  929   0.742   2.563   1.048 -0.1575  0.1658  0.0284
    5MOL    H42  930   0.869   2.358   1.088 -1.1187  1.4343  0.1894
    5MOL    H43  931   1.114   2.350   1.151 -0.1637  0.3698  2.3189
    5MOL    H44  932   1.128   2.780   1.165  1.6619 -0.7453  0.0887
    5MOL    H45  933   0.881   2.797   1.108  0.8195  0.1696  1.9306
    5MOL    C46  934   0.468   2.802   0.972  0.1686 -0.5731  0.1160
    5MOL    C47  935   0.574   2.713   0.951 -0.0199  0.5113 -1.0181
    5MOL    C48  936   0.644   2.655   1.061 -0.3814  1.0714  0.7524
    5MOL    C49  937   0.603   2.682   1.196 -0.1959  0.4969 -0.7386
    5MOL    C50  938   0.498   2.774   1.213 -0.5151 -0.0344 -0.2701
    5MOL    C51  939   0.436   2.841   1.106  1.1133  0.0065  0.1111
    5MOL    O52  940   0.327   2.926   1.120 -0.0119 -0.5119  0.2952
    5MOL    H53  941   0.413   2.841   0.887 -0.6225 -1.5464  0.1837
    5MOL    H54  942   0.599   2.688   0.849  0.3909  0.2720 -0.8568
    5MOL    H55  943   0.654   2.624   1.272  0.2294  1.2243 -0.4706
    5MOL    H56  944   0.469   2.797   1.314  0.5533 -0.5966  0.1726
    5MOL    C57  945   0.451   3.264   1.109 -0.0333 -0.1772 -0.8253
    5MOL    C58  946   0.439   3.130   1.142 -0.3806  0.2004 -0.0795
    5MOL    C59  947   0.335   3.058   1.086 -0.0025  0.0685  0.3831
    5MOL    C60  948   0.233   3.115   0.995 -0.6771 -0.4044 -0.6843
    5MOL    C61  949   0.249   3.247   0.960 -0.1318 -0.5041  0.2626
    5MOL    C62  950   0.359   3.321   1.020  0.2476 -0.2335 -0.6185
    5MOL    O63  951   0.385   3.450   0.994  0.1248 -0.3365 -0.4259
    5MOL    H64  952   0.535   3.320   1.148  0.1074 -0.3294 -0.9088
    5MOL    H65  953   0.503   3.071   1.207 -0.8247 -0.9503 -0.6615
    5MOL    H66  954   0.156   3.045   0.964 -0.9700 -0.2841 -0.2473
    5MOL    H67  955   0.175   3.285   0.892  0.0403  0.1214  0.4232
    5MOL    C68  956   0.130   3.614   0.788 -0.0405 -0.1770  0.5779
    5MOL    C69  957   0.196   3.558   0.897 -1.0763  0.4919  0.2220
    5MOL    C70  958   0.325   3.500   0.886  0.4356 -0.5875 -0.4039
    5MOL    C71  959   0.384   3.490   0.758 -0.3059  0.0440  0.2587
    5MOL    C72  960   0.326   3.551   0.647 -0.1480  0.1509  0.0074
    5MOL    C73  961   0.193   3.607   0.656  0.0280 -0.0143 -0.3191
    5MOL    O74  962   0.120   3.657   0.544 -0.8409  0.9564 -0.2547
    5MOL    H75  963   0.030   3.650   0.805 -0.3540 -1.6216  1.9626
    5MOL    H76  964   0.127   3.567   0.980 -0.8680  1.5984  0.2883
    5MOL    H77  965   0.485   3.451   0.751  0.8089  2.7227  0.8953
    5MOL    H78  966   0.365   3.531   0.548 -1.4324 -2.2093 -0.0707
    5MOL    C79  967   8.211   3.968   0.437  0.2936  0.1354  0.2042
    5MOL    C80  968   8.245   3.830   0.465  0.1805  0.9530  0.7768
    5MOL    C81  969   0.109   3.795   0.525 -0.0898  0.5573 -0.6128
    5MOL    C82  970   0.202   3.891   0.564  0.4290 -0.0465  0.5461
    5MOL    C83  971   0.180   4.032   0.540  0.3148  1.1481  0.0138
    5MOL    C84  972   0.055   4.070   0.476  0.4486 -0.1834 -0.2489
    5MOL    O85  973   0.021   4.196   0.441 -0.3570 -0.7464  0.0886
    5MOL    H86  974   8.116   3.989   0.390 -0.6473 -0.2057  1.9146
    5MOL    H87  975   8.181   3.750   0.429  2.0329  0.4344 -1.4958
    5MOL    H88  976   0.290   3.863   0.620  1.5112 -0.2653 -1.2226
    5MOL    H89  977   0.250   4.098   0.588  3.6054 -1.7848 -0.5416
    5MOL    C90  978   0.250   4.489   0.435 -0.1539 -0.1429  0.5488
    5MOL    C91  979   0.172   4.384   0.390 -0.6771  0.1919  0.2030
    5MOL    C92  980   0.094   4.308   0.483  0.1881 -0.4955  0.3270
    5MOL    C93  981   0.093   4.344   0.619  0.0172  0.6816 -0.0256
    5MOL    C94  982   0.166   4.452   0.655 -0.5113  0.2269 -0.4812
    5MOL    C95  983   0.244   4.529   0.568 -0.4384  0.2002  0.6468
    5MOL    O96  984   0.331   4.624   0.613  0.5601 -0.0164  1.0522
    5MOL    H97  985   0.318   4.545   0.372 -0.3370  0.0357  0.5106
    5MOL    H98  986   0.174   4.355   0.286 -1.8957 -2.1587  0.7887
    5MOL    H99  987   0.037   4.276   0.681  2.0663 -2.1195 -1.1361
    5MOL   H100  988   0.171   4.485   0.757  0.2015 -1.6892  0.1193
    5MOL   C101  989   0.573   4.408   0.793 -0.5436  0.4782 -0.1970
    5MOL   C102  990   0.494   4.460   0.689 -0.5918  0.7391  0.8844
    5MOL   C103  991   0.420   4.576   0.712  0.4124 -0.5514  0.2583
    5MOL   C104  992   0.426   4.641   0.839  0.4018 -0.2968 -0.8837
    5MOL   C105  993   0.506   4.585   0.941  0.2456 -0.0163  0.3526
    5MOL   C106  994   0.576   4.470   0.920  0.7607  0.1335  0.4246
    5MOL   O107  995   0.655   4.424   1.023 -0.0680 -0.0087  0.4829
    5MOL   H108  996   0.639   4.324   0.773  0.6762  1.2311  0.5929
    5MOL   H109  997   0.486   4.416   0.591  0.7560  1.7403  0.3013
    5MOL   H110  998   0.368   4.729   0.864  2.0162  0.9273 -1.3521
    5MOL   H111  999   0.513   4.642   1.033 -1.3183  0.9060 -0.0773
    5MOL   C112 1000   1.010   4.398   0.923 -0.3875 -0.0540  0.5065
    5MOL   C113 1001   0.872   4.399   0.910 -0.7396 -0.9728 -0.8287
    5MOL   C114 1002   0.793   4.428   1.023 -0.5377  0.1831  0.1936
    5MOL   C115 1003   0.855   4.447   1.149 -1.0179  0.7278  0.4367
    5MOL   C116 1004   0.996   4.443   1.164  0.2229 -0.2659 -0.1837
    5MOL   C117 1005   1.074   4.414   1.048 -0.0861  0.2872 -0.2716
    5MOL   O118 1006   1.212   4.398   1.059  0.2379 -0.0991  0.2034
    5MOL   H119 1007   1.080   4.385   0.842  0.4986 -0.1531  1.2717
    5MOL   H120 1008   0.837   4.407   0.808 -0.6088 -0.9538 -0.8722
    5MOL   H121 1009   0.795   4.468   1.237 -0.0235  0.0662  1.2935
    5MOL   H122 1010   1.040   4.454   1.262  1.3100 -1.3248 -0.5351
    5MOL   C123 1011   1.370   4.721   1.154 -0.1006  0.0868 -0.2982
    5MOL   C124 1012   1.288   4.629   1.081  0.3464  0.6259  0.5236
    5MOL   C125 1013   1.280   4.497   1.124 -0.0953 -0.4235  0.7004
    5MOL   C126 1014   1.344   4.450   1.235  0.3275 -0.2920  0.0467
    5MOL   C127 1015   1.426   4.540   1.308 -0.5881  0.2065  0.7007
    5MOL   C128 1016   1.443   4.676   1.269  0.8146  0.4192 -0.0685
    5MOL   O129 1017   1.522   4.769   1.328 -0.0582 -0.0044 -0.0199
    5MOL   H130 1018   1.376   4.821   1.115  0.2946 -1.0014 -3.1405
    5MOL   H131 1019   1.239   4.665   0.991  2.2563  2.0507  0.0086
    5MOL   H132 1020   1.336   4.349   1.274  1.2433  0.0755  1.2382
    5MOL   H133 1021   1.474   4.494   1.394 -0.2827 -1.2175 -0.2038
    5MOL   C134 1022   1.574   4.733   1.692 -0.1452 -0.1931  0.8887
    5MOL   C135 1023   1.527   4.775   1.567 -0.6158  0.7587 -0.1812
    5MOL   C136 1024   1.589   4.738   1.449 -0.3877 -0.1395  0.7805
    5MOL   C137 1025   1.711   4.669   1.444 -0.7925 -0.2982 -0.3383
    5MOL   C138 1026   1.763   4.635   1.569  0.1651 -0.2734 -0.6409
    5MOL   C139 1027   1.700   4.666   1.694  0.5150 -0.3072  0.0095
    5MOL   O140 1028   1.769   4.634   1.808 -0.0082 -0.2917  0.0699
    5MOL   H141 1029   1.528   4.766   1.784  0.3348 -1.3106  1.5419
    5MOL   H142 1030   1.435   4.831   1.556  0.7265  3.4027  1.6652
    5MOL   H143 1031   1.770   4.651   1.356  0.8504  4.2157 -0.2639
    5MOL   H144 1032   1.855   4.581   1.581 -0.5970 -1.1367  1.8405
    5MOL   C145 1033   1.556   4.505   2.094 -0.1038 -0.6045 -0.0116
    5MOL   C146 1034   1.621   4.591   2.003 -0.3475  0.1506  0.0548
    5MOL   C147 1035   1.705   4.547   1.893 -0.4749 -0.4748 -0.2278
    5MOL   C148 1036   1.723   4.405   1.888 -0.4529 -0.1014  0.4596
    5MOL   C149 1037   1.662   4.313   1.982  0.0848 -0.1459  0.0741
    5MOL   C150 1038   1.580   4.363   2.087 -0.4349 -0.1206 -0.4289
    5MOL   O151 1039   1.524   4.273   2.177 -0.4826  0.0409 -0.5869
    5MOL   H152 1040   1.502   4.537   2.182 -1.2245 -1.0975 -0.5104
    5MOL   H153 1041   1.612   4.698   2.002  1.5111  0.3331  0.5100
    5MOL   H154 1042   1.787   4.357   1.816 -1.0420 -0.2154  0.0081
    5MOL   H155 1043   1.670   4.206   1.971  1.8171  0.0641 -0.8971
    5MOL   C156 1044   1.694   4.302   2.516 -0.7371  0.4763  0.4644
    5MOL   C157 1045   1.636   4.339   2.392  0.5262 -0.0243  0.9509
    5MOL   C158 1046   1.587   4.244   2.300  0.7621 -0.0005  0.0720
    5MOL   C159 1047   1.579   4.110   2.343  0.4068  0.2254 -0.0706
    5MOL   C160 1048   1.639   4.067   2.465 -0.6248  0.0707  0.2732
    5MOL   C161 1049   1.698   4.168   2.550 -0.3169 -0.4089 -0.7572
    5MOL   O162 1050   1.758   4.141   2.668  0.4583 -0.0311  0.2611
    5MOL   H163 1051   1.745   4.379   2.572 -2.4766 -0.1278  2.9511
    5MOL   H164 1052   1.632   4.443   2.363 -0.7436 -0.7408 -1.6569
    5MOL   H165 1053   1.531   4.046   2.270  0.5993 -0.0616  0.0540
    5MOL   H166 1054   1.639   3.964   2.497  0.3380 -0.6068 -1.7886
    5MOL   C167 1055   1.650   4.229   3.011  0.0302 -0.0598  0.4289
    5MOL   C168 1056   1.729   4.222   2.897 -0.0833  0.4966 -0.1457
    5MOL   C169 1057   1.681   4.148   2.782 -0.3788  0.1085  0.1499
    5MOL   C170 1058   1.557   4.086   2.796  0.2839  0.1143 -0.0196
    5MOL   C171 1059   1.476   4.112   2.909  0.3073  0.4243 -0.1463
    5MOL   C172 1060   1.524   4.180   3.018  0.1283 -0.5917  0.3022
    5MOL   O173 1061   1.449   4.193   3.133 -0.6798 -0.3214 -0.3456
    5MOL   H174 1062   1.681   4.297   3.089 -1.7031  1.6987 -0.3629
    5MOL   H175 1063   1.823   4.276   2.892  1.0428 -1.5562 -2.1342
    5MOL   H176 1064   1.514   4.026   2.716 -0.8034 -1.5159  1.7398
    5MOL   H177 1065   1.378   4.068   2.908  0.1816  0.6902  0.2947
    5MOL   C178 1066   1.226   4.459   3.216 -0.4168  0.5230 -0.1903
    5MOL   C179 1067   1.340   4.384   3.192  0.4086  0.0265 -0.1485
    5MOL   C180 1068   1.333   4.258   3.132  0.5785  0.1820  0.3252
    5MOL   C181 1069   1.213   4.202   3.082  0.0191  0.1701 -0.4924
    5MOL   C182 1070   1.097   4.278   3.103 -0.2969  0.1355  0.2599
    5MOL   C183 1071   1.103   4.401   3.172  0.3849 -0.3163  0.0645
    5MOL   O184 1072   0.991   4.476   3.190  0.3270  0.0532  0.3416
    5MOL   H185 1073   1.228   4.560   3.253  1.3375  1.1231 -1.8459
    5MOL   H186 1074   1.429   4.414   3.246 -0.7719  1.6182  0.9590
    5MOL   H187 1075   1.204   4.106   3.033 -1.3238 -0.0927  0.2552
    5MOL   H188 1076   1.001   4.241   3.071  0.0756 -1.9159  1.4435
    5MOL   C189 1077   0.977   4.671   2.884  0.3821  0.6498 -0.6124
    5MOL   C190 1078   1.015   4.627   3.015 -0.2025 -0.3649  0.3689
    5MOL   C191 1079   0.938   4.527   3.078 -0.0915  0.0834  0.1720
    5MOL   C192 1080   0.820   4.479   3.031  0.7856  0.1553  0.1601
    5MOL   C193 1081   0.777   4.524   2.902  0.1142 -0.0127 -0.1146
    5MOL   C194 1082   0.857   4.619   2.830  0.1375  0.0728 -1.0196
    5MOL   O195 1083   0.806   4.666   2.705 -0.0256  0.0255  0.1296
    5MOL   H196 1084   1.046   4.731   2.827  0.9473  0.2783 -0.3118
    5MOL   H197 1085   1.111   4.660   3.050  0.2699 -0.1054 -1.1532
    5MOL   H198 1086   0.767   4.419   3.104  0.9903  1.8134  1.6827
    5MOL   H199 1087   0.686   4.483   2.862 -0.1167 -0.2325  0.6326
    5MOL   C200 1088   1.011   4.607   2.405  0.1765 -0.4900  0.0133
    5MOL   C201 1089   0.954   4.674   2.513 -0.3280  0.0609  0.4118
    5MOL   C202 1090   0.851   4.616   2.585 -0.3721 -0.0127 -0.1876
    5MOL   C203 1091   0.790   4.505   2.532 -0.2259  0.1156  0.4520
    5MOL   C204 1092   0.836   4.450   2.410 -0.1028  0.0871 -0.3066
    5MOL   C205 1093   0.955   4.496   2.351  0.1491  0.3149 -0.2420
    5MOL   O206 1094   1.002   4.441   2.232  0.2861 -0.0145  0.5660
    5MOL   H207 1095   1.097   4.650   2.357  0.1143  0.1883  0.5041
    5MOL   H208 1096   0.991   4.769   2.549  0.0947 -0.3557  1.0879
    5MOL   H209 1097   0.709   4.459   2.587 -1.4435  0.6804 -0.8514
    5MOL   H210 1098   0.786   4.362   2.372  0.8677 -0.7158  0.2509
    5MOL   C211 1099   0.973   4.080   2.181  0.1341 -0.4320 -0.4655
    5MOL   C212 1100   0.939   4.218   2.195 -0.3386 -0.6875  0.0349
    5MOL   C213 1101   1.040   4.313   2.230  0.8585  0.5253  0.1835
    5MOL   C214 1102   1.174   4.271   2.240  0.4587 -0.4035 -0.2110
    5MOL   C215 1103   1.210   4.135   2.230  0.4381  0.2325  0.1068
    5MOL   C216 1104   1.109   4.043   2.197  0.7975 -0.3059 -0.4633
    5MOL   O217 1105   1.142   3.910   2.200 -0.6223  0.0756  0.3710
    5MOL   H218 1106   0.902   4.012   2.136  0.2360 -1.3187  0.6919
    5MOL   H219 1107   0.848   4.261   2.157 -0.6114 -0.3198  1.0995
    5MOL   H220 1108   1.240   4.348   2.276  0.5360  0.0774 -1.3640
    5MOL   H221 1109   1.310   4.099   2.250  1.3391  2.5741 -0.1199
    5MOL   H222 1110   1.065   3.856   2.197 -0.2723 -0.4809  1.1176
    6MOL     C1 1111   3.469   5.236   0.832 -0.3300 -0.4859 -0.1651
    6MOL     C2 1112   3.562   5.131   0.818  0.1833 -0.8317 -0.2375
    6MOL     C3 1113   3.583   5.036   0.916  0.4510 -0.3891  0.0850
    6MOL     C4 1114   3.522   5.052   1.044 -0.2504 -0.4565 -0.2588
    6MOL     C5 1115   3.429   5.159   1.067  0.9003  0.2952  0.9798
    6MOL     C6 1116   3.410   5.250   0.958  0.3035 -0.2532 -0.2809
    6MOL     O7 1117   3.336   5.358   0.974  0.5188  0.3350 -0.1558
    6MOL     H8 1118   3.455   5.310   0.754 -1.8591 -1.6876 -1.0460
    6MOL     H9 1119   3.626   5.114   0.733  0.1081 -2.3348 -0.0179
    6MOL    H10 1120   3.547   4.991   1.129 -0.8299  0.7596  0.8040
    6MOL    H11 1121   3.374   5.165   1.160  1.1596 -2.4827  1.3794
    6MOL    H12 1122   3.650   4.952   0.910  0.7040 -0.2097  0.4370
    6MOL    C13 1123   3.004   5.474   0.841  0.5406 -0.5409  0.2479
    6MOL    C14 1124   3.141   5.471   0.884  0.4048  0.1294  0.6250
    6MOL    C15 1125   3.203   5.352   0.934  0.0073 -0.0959  0.0851
    6MOL    C16 1126   3.121   5.234   0.946 -0.7244 -0.0594  0.4862
    6MOL    C17 1127   2.993   5.236   0.886  0.9015 -0.4901 -0.2271
    6MOL    C18 1128   2.928   5.355   0.846  0.1385  0.2206 -0.0926
    6MOL    O19 1129   2.801   5.357   0.792 -0.1402  0.6490 -0.2744
    6MOL    H20 1130   2.946   5.560   0.814  0.4771 -0.8325 -0.5511
    6MOL    H21 1131   3.199   5.562   0.875 -0.7368  0.8510  0.4724
    6MOL    H22 1132   3.165   5.139   0.974 -1.0136 -1.2297 -2.8709
    6MOL    H23 1133   2.930   5.149   0.899 -0.3449  0.3653 -0.3806
    6MOL    C24 1134   2.784   5.285   0.431 -0.2452 -0.2683 -0.2178
    6MOL    C25 1135   2.812   5.361   0.550  0.4614 -0.5730  0.3196
    6MOL    C26 1136   2.784   5.289   0.672  0.4281 -0.6409 -0.2055
    6MOL    C27 1137   2.706   5.172   0.671  0.6839  0.6801 -0.3683
    6MOL    C28 1138   2.676   5.104   0.551 -1.0113  0.8887 -0.1941
    6MOL    C29 1139   2.723   5.162   0.429 -0.7456  0.3269 -0.1810
    6MOL    O30 1140   2.681   5.115   0.303 -0.3290  0.1282  0.0172
    6MOL    H31 1141   2.818   5.318   0.334  1.2246 -3.3524 -0.8220
    6MOL    H32 1142   2.853   5.461   0.547 -0.3018 -0.1737  2.6365
    6MOL    H33 1143   2.667   5.127   0.761  0.1673  0.6713 -0.5976
    6MOL    H34 1144   2.625   5.009   0.553  0.5759  0.0312  0.8198
    6MOL    C35 1145   2.915   5.125   0.016 -0.3603  0.8069 -0.0652
    6MOL    C36 1146   2.797   5.149   0.096 -0.1569 -0.3303 -0.5209
    6MOL    C37 1147   2.784   5.078   0.213 -0.2256 -0.1593  0.3694
    6MOL    C38 1148   2.866   4.966   0.239 -0.0506  0.1607 -0.0621
    6MOL    C39 1149   2.983   4.940   0.157 -0.2849 -0.0939 -0.3449
    6MOL    C40 1150   3.008   5.028   0.050  0.1579 -0.1813 -1.3732
    6MOL    O41 1151   3.114   4.994   8.230 -0.1186  1.0889 -1.1251
    6MOL    H42 1152   2.935   5.177   8.177 -1.2324  1.8811  0.3340
    6MOL    H43 1153   2.722   5.222   0.067 -1.5381 -2.3510 -2.1954
    6MOL    H44 1154   2.849   4.905   0.326  1.9005 -1.1165 -0.5384
    6MOL    H45 1155   3.059   4.868   0.182 -1.8894 -1.3413  1.0379
    6MOL    C46 1156   3.399   5.222   0.038  0.7332 -0.5254 -0.5155
    6MOL    C47 1157   3.265   5.179   0.019  0.5530 -0.7270 -0.3624
    6MOL    C48 1158   3.238   5.039   0.008 -0.2916 -0.5692 -0.3697
    6MOL    C49 1159   3.350   4.946   0.028  0.5762  0.3341  0.0964
    6MOL    C50 1160   3.479   4.998   0.055 -0.2303  0.5357  0.1204
    6MOL    C51 1161   3.508   5.134   0.058 -0.0798  0.2329  0.0995
    6MOL    O52 1162   3.631   5.193   0.069  0.0144 -0.3342  0.3214
    6MOL    H53 1163   3.421   5.327   0.024 -1.5135  0.1705  0.8779
    6MOL    H54 1164   3.185   5.250   0.009  1.0909  0.2278  1.7665
    6MOL    H55 1165   3.330   4.840   0.029 -2.3042  0.8147  1.0684
    6MOL    H56 1166   3.558   4.926   0.077 -0.1975  0.2027 -1.0391
    6MOL    C57 1167   3.746   5.173   7.964 -0.7820 -0.2620 -0.5268
    6MOL    C58 1168   3.663   5.181   8.073 -0.2081  0.7915  0.0059
    6MOL    C59 1169   3.709   5.183   8.210 -0.5504  0.2658 -0.4188
    6MOL    C60 1170   3.849   5.174   8.228  0.4689 -0.0794 -0.9714
    6MOL    C61 1171   3.933   5.174   8.121  0.0965  0.1998 -0.0815
    6MOL    C62 1172   3.888   5.172   7.987  0.4720 -0.1033  0.4263
    6MOL    O63 1173   3.971   5.181   7.879 -0.5850  0.3567  0.0886
    6MOL    H64 1174   3.703   5.195   7.868  0.1930  2.6411 -0.3545
    6MOL    H65 1175   3.557   5.189   8.057  0.0746 -0.8440 -3.2142
    6MOL    H66 1176   3.890   5.173   0.074 -2.2873 -3.0757  0.2027
    6MOL    H67 1177   4.040   5.165   8.134  0.1205  2.3329  1.3359
    6MOL    C68 1178   4.286   5.029   7.757 -0.6799 -0.0212 -0.7201
    6MOL    C69 1179   4.178   5.113   7.773  0.0872  0.0903 -0.3737
    6MOL    C70 1180   4.064   5.082   7.854  0.4200  0.3230  0.5726
    6MOL    C71 1181   4.061   4.957   7.922 -0.0548  1.0605 -0.2178
    6MOL    C72 1182   4.162   4.860   7.892 -0.4939 -1.0494 -0.0067
    6MOL    C73 1183   4.277   4.897   7.812 -0.1515  0.5760 -0.4309
    6MOL    O74 1184   4.378   4.814   7.786 -0.3167 -0.0879  0.5996
    6MOL    H75 1185   4.375   5.063   7.705  1.0836 -1.1934  1.4439
    6MOL    H76 1186   4.177   5.214   7.735 -0.3714 -0.0116 -0.6358
    6MOL    H77 1187   3.970   4.924   7.970  1.3144  0.0122  1.7452
    6MOL    H78 1188   4.146   4.764   7.938 -0.7733 -1.1063 -0.2209
    6MOL    C79 1189   4.335   4.683   7.439  0.0645 -0.5085 -0.3746
    6MOL    C80 1190   4.352   4.778   7.545  0.4224  0.2072 -0.3428
    6MOL    C81 1191   4.366   4.731   7.676 -0.1276  0.1481  0.3900
    6MOL    C82 1192   4.367   4.591   7.701  0.0909  0.1109  1.0391
    6MOL    C83 1193   4.367   4.499   7.594  0.4429 -0.5183  0.0933
    6MOL    C84 1194   4.346   4.545   7.466 -0.5657  0.3198  1.0442
    6MOL    O85 1195   4.354   4.461   7.359 -0.0787  0.5420 -0.6254
    6MOL    H86 1196   4.328   4.716   7.337 -0.3320  1.5040  0.2672
    6MOL    H87 1197   4.345   4.885   7.529  0.9655  0.4001  0.6689
    6MOL    H88 1198   4.375   4.549   7.800 -0.3633  2.5437  2.1511
    6MOL    H89 1199   4.402   4.398   7.611 -0.4398 -0.5760  1.6136
    6MOL    C90 1200   4.290   4.109   7.395 -0.0200  0.3798 -0.5724
    6MOL    C91 1201   4.359   4.232   7.401  0.2238 -0.7540 -0.2983
    6MOL    C92 1202   4.286   4.345   7.369 -0.4824 -0.3578 -0.4613
    6MOL    C93 1203   4.147   4.347   7.342  0.4868 -0.7872 -0.3304
    6MOL    C94 1204   4.085   4.225   7.343 -0.0174  0.1101 -0.1003
    6MOL    C95 1205   4.156   4.105   7.364 -0.3483 -0.1706 -0.6369
    6MOL    O96 1206   4.088   3.986   7.347  0.5395 -0.2336  0.3824
    6MOL    H97 1207   4.337   4.014   7.417 -0.8656 -0.1064 -0.8643
    6MOL    H98 1208   4.461   4.257   7.424  0.1175  0.6804 -1.3340
    6MOL    H99 1209   4.090   4.428   7.300  0.9199  0.6535  1.7902
    6MOL   H100 1210   3.981   4.218   7.314 -0.2545 -0.9009  0.9447
    6MOL   C101 1211   4.216   3.636   7.380  0.2034 -0.3064 -0.2704
    6MOL   C102 1212   4.166   3.763   7.412 -0.0224  0.1780 -0.2724
    6MOL   C103 1213   4.149   3.866   7.319  0.3713  0.1745 -0.2296
    6MOL   C104 1214   4.199   3.842   7.192 -0.4179  0.9123  0.3738
    6MOL   C105 1215   4.255   3.715   7.157 -0.0408 -0.0184  0.0740
    6MOL   C106 1216   4.268   3.608   7.251  0.3319  0.2254 -0.6984
    6MOL   O107 1217   4.327   3.479   7.229 -0.1855 -0.3453 -0.1917
    6MOL   H108 1218   4.233   3.571   7.464 -0.4763  1.5813  1.3801
    6MOL   H109 1219   4.142   3.786   7.515 -1.9624  0.6440 -0.8016
    6MOL   H110 1220   4.200   3.926   7.124  1.0465  0.5436 -0.0875
    6MOL   H111 1221   4.300   3.712   7.058 -1.1982  0.0687 -0.4615
    6MOL   C112 1222   4.592   3.429   7.476 -0.4667  0.7025 -0.3507
    6MOL   C113 1223   4.512   3.486   7.379 -0.7130  0.2984 -0.4077
    6MOL   C114 1224   4.396   3.418   7.331  0.5314  0.5456  0.0894
    6MOL   C115 1225   4.357   3.291   7.386 -0.2001  0.4860 -0.5115
    6MOL   C116 1226   4.440   3.228   7.484 -0.2969 -0.1282  0.5987
    6MOL   C117 1227   4.560   3.299   7.528 -0.6554  0.1416 -0.0027
    6MOL   O118 1228   4.652   3.250   7.624 -0.0555  0.0175 -0.1709
    6MOL   H119 1229   4.671   3.495   7.510 -0.7094  0.9277 -0.2269
    6MOL   H120 1230   4.540   3.582   7.338 -1.9793  0.3534 -1.1965
    6MOL   H121 1231   4.269   3.237   7.356 -0.1536 -0.3849  0.8567
    6MOL   H122 1232   4.412   3.126   7.505  0.6752 -0.5459 -0.1095
    6MOL   C123 1233   4.575   2.937   7.820 -0.0883  0.2626 -0.1282
    6MOL   C124 1234   4.577   3.075   7.780 -1.0744  0.2113  0.0872
    6MOL   C125 1235   4.649   3.121   7.668 -0.0030 -0.5650 -0.5453
    6MOL   C126 1236   4.731   3.032   7.603  0.4925 -0.6966  0.1879
    6MOL   C127 1237   4.728   2.899   7.635 -0.4642 -0.0668 -0.4315
    6MOL   C128 1238   4.654   2.843   7.746  0.3531  0.7298 -0.2708
    6MOL   O129 1239   4.643   2.710   7.777 -0.1183 -0.6370  0.3819
    6MOL   H130 1240   4.524   2.888   7.902 -0.6491  0.3731 -0.4009
    6MOL   H131 1241   4.530   3.144   7.849 -1.9547 -0.6334  0.3295
    6MOL   H132 1242   4.794   3.063   7.521 -0.8567  0.6830 -0.3360
    6MOL   H133 1243   4.792   2.839   7.572  0.5667 -0.0082  0.5400
    6MOL   C134 1244   4.711   2.446   7.529 -0.5256  0.3251 -0.3069
    6MOL   C135 1245   4.640   2.538   7.616 -0.6633  0.4308 -0.0047
    6MOL   C136 1246   4.710   2.619   7.705  1.0121 -0.3417 -0.4956
    6MOL   C137 1247   4.852   2.604   7.713  0.3909  0.4994 -0.3250
    6MOL   C138 1248   4.923   2.518   7.623 -0.1517  0.2340  1.0030
    6MOL   C139 1249   4.852   2.441   7.533  0.5441  0.1813  0.5341
    6MOL   O140 1250   4.925   2.362   7.445 -0.0327  0.2759  0.1094
    6MOL   H141 1251   4.661   2.385   7.455  0.1932 -0.5955 -0.0467
    6MOL   H142 1252   4.534   2.557   7.604 -1.0822 -1.5844  0.3450
    6MOL   H143 1253   4.911   2.653   7.790 -0.6516  2.4668 -0.7440
    6MOL   H144 1254   5.029   2.505   7.635  0.0194 -0.1538 -0.7916
    6MOL   C145 1255   5.065   2.558   7.167 -0.9510 -0.5948 -0.2657
    6MOL   C146 1256   5.039   2.504   7.296  0.4749  0.3441 -0.2712
    6MOL   C147 1257   4.938   2.419   7.320  0.6529 -0.1222 -0.9853
    6MOL   C148 1258   4.861   2.376   7.207 -0.6209  0.0841 -0.2805
    6MOL   C149 1259   4.888   2.425   7.077 -0.1217  0.0148  0.4475
    6MOL   C150 1260   4.991   2.519   7.058 -1.0363  0.2083 -1.0355
    6MOL   O151 1261   5.016   2.577   6.933  0.3057 -0.3793 -0.4192
    6MOL   H152 1262   5.153   2.621   7.164  1.6906 -4.0935  0.6761
    6MOL   H153 1263   5.108   2.516   7.378  0.2498 -0.5334  0.0589
    6MOL   H154 1264   4.774   2.313   7.223 -0.4570 -0.0040  0.2773
    6MOL   H155 1265   4.831   2.393   6.991  0.1023  1.8708 -0.4157
    6MOL   C156 1266   5.318   2.383   6.823 -0.1154 -0.3104  0.3896
    6MOL   C157 1267   5.218   2.427   6.906 -0.4479  0.3462  0.2736
    6MOL   C158 1268   5.121   2.525   6.859  0.3331 -0.0602 -0.1065
    6MOL   C159 1269   5.142   2.570   6.725  0.6486 -0.1004 -0.0988
    6MOL   C160 1270   5.250   2.533   6.644  0.3798 -0.0705  0.0487
    6MOL   C161 1271   5.338   2.436   6.695 -0.3981 -0.4907  0.2277
    6MOL   O162 1272   5.447   2.399   6.627  0.0237  0.1835 -0.6973
    6MOL   H163 1273   5.389   2.318   6.872 -1.0050 -0.7830  1.0641
    6MOL   H164 1274   5.221   2.390   7.007 -0.7410 -3.9787 -1.2054
    6MOL   H165 1275   5.085   2.652   6.685 -1.5154 -0.8084  1.4361
    6MOL   H166 1276   5.276   2.584   6.553 -0.6029 -0.4758 -0.4632
    6MOL   C167 1277   5.287   2.136   6.418  0.0393  0.5301 -0.2659
    6MOL   C168 1278   5.308   2.226   6.523  0.4747  0.6375 -0.1023
    6MOL   C169 1279   5.419   2.314   6.520  0.1262 -0.5872  0.0883
    6MOL   C170 1280   5.505   2.304   6.411  0.0858 -0.0633  0.0419
    6MOL   C171 1281   5.486   2.213   6.303  1.1968 -0.5203  0.3067
    6MOL   C172 1282   5.376   2.125   6.310  0.2336  0.2627  0.0946
    6MOL   O173 1283   5.356   2.047   6.199 -0.3011  0.2490  0.1229
    6MOL   H174 1284   5.208   2.063   6.418  1.4838 -1.1472  2.7199
    6MOL   H175 1285   5.250   2.221   6.613 -0.6195  0.9180 -0.7796
    6MOL   H176 1286   5.596   2.362   6.412  0.8935 -1.3442  0.7626
    6MOL   H177 1287   5.555   2.214   6.220 -1.2654  2.2235 -1.8054
    6MOL   C178 1288   5.021   2.012   6.052  0.1313  0.1316  0.3827
    6MOL   C179 1289   5.142   1.985   6.123  0.4744  0.3291  0.2347
    6MOL   C180 1290   5.244   2.079   6.125 -0.3225  0.4513 -0.0781
    6MOL   C181 1291   5.222   2.201   6.056 -0.5660 -0.3608 -0.5330
    6MOL   C182 1292   5.101   2.227   5.990 -0.2056  0.2421 -0.1059
    6MOL   C183 1293   5.000   2.130   5.984 -0.2815  0.2535 -0.2846
    6MOL   O184 1294   4.881   2.146   5.917 -0.0258 -0.7918  0.1576
    6MOL   H185 1295   4.941   1.941   6.047 -0.0540  0.3852 -0.2887
    6MOL   H186 1296   5.160   1.888   6.166 -0.2070  1.1872  2.5217
    6MOL   H187 1297   5.301   2.275   6.060 -0.6630 -0.2954  0.0914
    6MOL   H188 1298   5.080   2.323   5.946 -0.4622 -0.8262 -2.4403
    6MOL   C189 1299   4.534   2.051   6.002 -0.6628 -0.2320  1.0796
    6MOL   C190 1300   4.666   2.051   5.949  0.3267  0.4358 -0.1175
    6MOL   C191 1301   4.763   2.138   5.992 -0.0834 -0.2012 -0.3939
    6MOL   C192 1302   4.729   2.225   6.097  0.2261  0.1336  0.1593
    6MOL   C193 1303   4.599   2.231   6.152 -0.0282  0.0567  0.6650
    6MOL   C194 1304   4.499   2.136   6.109 -0.6368 -0.0570  0.8700
    6MOL   O195 1305   4.380   2.123   6.177 -0.9402  0.3977 -0.2325
    6MOL   H196 1306   4.460   1.980   5.969 -0.5637  0.2768 -0.2701
    6MOL   H197 1307   4.691   1.980   5.872  0.7891 -0.5427  0.9319
    6MOL   H198 1308   4.805   2.293   6.133 -1.7863  1.8748  1.2037
    6MOL   H199 1309   4.584   2.293   6.240  0.8437  2.0115 -0.5198
    6MOL   C200 1310   4.214   2.457   6.154  0.0168 -0.1220 -0.2072
    6MOL   C201 1311   4.311   2.356   6.125  0.4208 -0.2798  0.4328
    6MOL   C202 1312   4.291   2.227   6.186 -0.3386 -0.9274 -0.6631
    6MOL   C203 1313   4.183   2.203   6.266  0.2824 -0.6397  0.2045
    6MOL   C204 1314   4.087   2.304   6.293  0.6987  0.5643 -0.5519
    6MOL   C205 1315   4.106   2.428   6.236 -0.2344  0.0356 -0.0054
    6MOL   O206 1316   4.021   2.531   6.270 -0.1930 -0.2788 -1.0081
    6MOL   H207 1317   4.224   2.556   6.113 -0.0856  0.1042  0.3004
    6MOL   H208 1318   4.396   2.388   6.068  0.3555 -0.5890  0.1617
    6MOL   H209 1319   4.172   2.115   6.328 -1.4566 -1.2964 -1.0187
    6MOL   H210 1320   4.016   2.288   6.372  0.5284  1.2517 -0.5684
    6MOL   C211 1321   3.819   2.661   5.989  0.8158 -0.5728 -0.1718
    6MOL   C212 1322   3.930   2.628   6.065  0.9363 -0.2289  0.1160
    6MOL   C213 1323   3.918   2.552   6.181  0.1438  0.0209 -0.9364
    6MOL   C214 1324   3.794   2.490   6.214  0.8205 -0.2136  0.2822
    6MOL   C215 1325   3.683   2.518   6.133 -0.2855 -0.2748  0.3141
    6MOL   C216 1326   3.690   2.605   6.021  0.1436  0.2638  0.2061
    6MOL   O217 1327   3.584   2.636   5.944  0.0898  0.3644 -0.5089
    6MOL   H218 1328   3.833   2.732   5.910  1.1922  0.8369  1.1365
    6MOL   H219 1329   4.022   2.680   6.041  0.6422  0.0625 -0.3802
    6MOL   H220 1330   3.786   2.421   6.296  1.4094 -0.2037  0.3508
    6MOL   H221 1331   3.592   2.470   6.168  0.4618 -0.6988  1.6954
    6MOL   H222 1332   3.624   2.684   5.873  0.1521 -1.3419 -1.6335
    7MOL     C1 1333   4.164   7.107   3.586 -0.1691  0.6483 -0.4516
    7MOL     C2 1334   4.105   7.130   3.716 -0.1099 -0.5037  0.5501
    7MOL     C3 1335   4.126   7.253   3.783  0.3849  0.0754 -0.7188
    7MOL     C4 1336   4.201   7.352   3.719 -0.3200 -0.8354  0.3598
    7MOL     C5 1337   4.269   7.326   3.599  0.2759  0.0619  0.8116
    7MOL     C6 1338   4.254   7.200   3.540  0.1465 -0.1043  0.1095
    7MOL     O7 1339   4.335   7.162   3.432 -0.2769  0.7696  0.2355
    7MOL     H8 1340   4.149   7.011   3.540 -0.3014  0.7479 -0.6170
    7MOL     H9 1341   4.045   7.051   3.758  1.1754 -2.2163 -0.8051
    7MOL    H10 1342   4.200   7.452   3.759 -0.9571 -1.0809  0.9865
    7MOL    H11 1343   4.324   7.403   3.548 -0.8895  0.1192 -0.3926
    7MOL    H12 1344   4.085   7.265   3.882  0.3713 -3.1771 -0.2632
    7MOL    C13 1345   4.613   6.968   3.577 -0.2869  1.0344  0.0443
    7MOL    C14 1346   4.525   7.069   3.549 -0.6236 -0.6170  0.6610
    7MOL    C15 1347   4.420   7.056   3.457  0.6831 -0.6976  0.4527
    7MOL    C16 1348   4.395   6.926   3.402 -0.8950 -0.5899  0.1289
    7MOL    C17 1349   4.483   6.822   3.430 -0.8408 -0.1303  0.6004
    7MOL    C18 1350   4.593   6.844   3.521  0.1517  0.0900 -0.2833
    7MOL    O19 1351   4.671   6.739   3.563  0.1453 -1.1103 -0.2417
    7MOL    H20 1352   4.681   6.975   3.660  0.1583 -0.4962 -0.1873
    7MOL    H21 1353   4.537   7.164   3.600  1.3472  1.1285 -2.9004
    7MOL    H22 1354   4.308   6.899   3.344 -1.7474  1.5222  0.3742
    7MOL    H23 1355   4.472   6.726   3.382  0.6419 -0.6791  1.3347
    7MOL    C24 1356   4.838   6.627   3.248  0.2293 -0.1438 -0.4988
    7MOL    C25 1357   4.805   6.704   3.366 -0.0894 -0.5819  0.1082
    7MOL    C26 1358   4.712   6.658   3.463  0.4503  0.2472  0.0313
    7MOL    C27 1359   4.653   6.528   3.447  0.1096 -0.0535 -0.1930
    7MOL    C28 1360   4.687   6.449   3.340 -0.2378 -0.5017  0.6637
    7MOL    C29 1361   4.778   6.499   3.240  0.5680  0.6743  0.5766
    7MOL    O30 1362   4.797   6.418   3.130  0.6743 -0.4934  0.1045
    7MOL    H31 1363   4.907   6.659   3.171 -0.2905 -1.0106 -1.3496
    7MOL    H32 1364   4.856   6.797   3.385  1.9595 -1.3241 -1.5546
    7MOL    H33 1365   4.574   6.496   3.514 -0.6325  1.3143 -0.4043
    7MOL    H34 1366   4.639   6.352   3.332 -2.0965  0.1111  3.9156
    7MOL    C35 1367   4.495   6.499   2.941  0.0516  0.5535 -0.6573
    7MOL    C36 1368   4.611   6.515   3.011 -0.0791  0.5068  0.2256
    7MOL    C37 1369   4.691   6.405   3.043  0.3163 -0.1324 -0.2996
    7MOL    C38 1370   4.667   6.280   2.988  0.1130  0.6924 -0.1483
    7MOL    C39 1371   4.562   6.276   2.896 -0.4225 -0.3592  0.5058
    7MOL    C40 1372   4.469   6.382   2.872 -0.2742  0.0954  0.7067
    7MOL    O41 1373   4.364   6.362   2.786 -0.1516 -0.0615  0.5127
    7MOL    H42 1374   4.431   6.585   2.930  1.0893  1.4368  0.0687
    7MOL    H43 1375   4.630   6.610   3.060  0.6811  0.1297  0.6568
    7MOL    H44 1376   4.736   6.199   3.006 -0.7862  0.0223  0.3532
    7MOL    H45 1377   4.541   6.193   2.830 -1.3526  1.2070 -1.2420
    7MOL    C46 1378   4.026   6.502   2.898 -0.8023  0.5026 -0.7894
    7MOL    C47 1379   4.160   6.498   2.849  0.1572  0.0252 -0.7535
    7MOL    C48 1380   4.235   6.374   2.846  0.6147  0.2037  0.4143
    7MOL    C49 1381   4.178   6.262   2.915 -0.0960 -0.3962  0.5349
    7MOL    C50 1382   4.048   6.272   2.964 -0.6157  0.0168  0.1808
    7MOL    C51 1383   3.973   6.388   2.955 -0.2010  0.1704  0.2149
    7MOL    O52 1384   3.847   6.382   3.011 -0.3434  0.3635 -0.1497
    7MOL    H53 1385   3.974   6.596   2.898 -1.1358  0.3314 -2.7851
    7MOL    H54 1386   4.206   6.589   2.812 -1.0659  0.2306 -1.7936
    7MOL    H55 1387   4.247   6.182   2.937  1.5895  0.8174 -0.2017
    7MOL    H56 1388   3.995   6.183   2.996 -1.9782  1.3244  1.6677
    7MOL    C57 1389   3.533   6.432   2.812  0.2772  0.0181  0.2019
    7MOL    C58 1390   3.648   6.465   2.888 -0.4824 -0.0030 -0.2868
    7MOL    C59 1391   3.734   6.360   2.932 -0.3066  0.3902  0.2347
    7MOL    C60 1392   3.709   6.233   2.881  0.7113  0.2687 -0.3285
    7MOL    C61 1393   3.603   6.201   2.794  0.5821  0.0458 -0.8269
    7MOL    C62 1394   3.514   6.306   2.759 -0.2569  0.5124 -0.2134
    7MOL    O63 1395   3.396   6.273   2.684 -0.0710  0.2250 -0.6479
    7MOL    H64 1396   3.459   6.509   2.800 -0.1075 -0.1795  1.3008
    7MOL    H65 1397   3.660   6.562   2.934  0.4200  0.6109 -1.7765
    7MOL    H66 1398   3.777   6.152   2.904 -0.9875 -0.7058  1.4809
    7MOL    H67 1399   3.595   6.100   2.756 -2.2571 -0.6467  1.4612
    7MOL    C68 1400   3.430   6.340   2.332  1.0115  0.3203  0.4115
    7MOL    C69 1401   3.411   6.363   2.465  0.5182  0.4192 -0.8514
    7MOL    C70 1402   3.401   6.247   2.552 -0.4309 -0.2768 -0.7286
    7MOL    C71 1403   3.384   6.117   2.501  0.3864 -0.2027  0.2944
    7MOL    C72 1404   3.389   6.101   2.366 -0.3545  0.3875  0.5608
    7MOL    C73 1405   3.418   6.211   2.277 -0.3960 -0.0442 -0.5427
    7MOL    O74 1406   3.408   6.206   2.140 -0.4782  0.0281  0.7587
    7MOL    H75 1407   3.450   6.424   2.269 -2.1809 -0.8655 -2.3040
    7MOL    H76 1408   3.410   6.462   2.510 -1.6120 -1.2277  2.9032
    7MOL    H77 1409   3.362   6.037   2.570  0.3458 -0.5967 -0.1778
    7MOL    H78 1410   3.373   6.001   2.328  0.0059  0.2644  0.7275
    7MOL    C79 1411   3.613   5.905   2.034 -0.0584  0.8588 -0.5683
    7MOL    C80 1412   3.580   6.032   2.088 -0.0379  0.0599 -0.1470
    7MOL    C81 1413   3.452   6.089   2.073 -0.4133  0.3066 -0.8404
    7MOL    C82 1414   3.359   6.016   1.991 -0.4887 -0.0025 -0.4412
    7MOL    C83 1415   3.389   5.892   1.938  0.4928  0.3777  0.0283
    7MOL    C84 1416   3.513   5.833   1.964  0.1489 -0.2499 -0.0672
    7MOL    O85 1417   3.541   5.705   1.927 -0.2375 -0.1063 -0.3462
    7MOL    H86 1418   3.712   5.861   2.044 -0.4743 -0.3809 -1.6577
    7MOL    H87 1419   3.654   6.079   2.150 -0.3154 -0.9191  0.9254
    7MOL    H88 1420   3.262   6.053   1.961 -0.4158  0.0740 -0.5839
    7MOL    H89 1421   3.315   5.834   1.885  0.3360  1.3803 -0.8795
    7MOL    C90 1422   3.667   5.686   1.585 -0.1467  0.0713 -0.2948
    7MOL    C91 1423   3.661   5.723   1.716  0.1443 -0.4654  0.5616
    7MOL    C92 1424   3.552   5.680   1.791  0.1549 -0.6294  0.4060
    7MOL    C93 1425   3.455   5.596   1.737  0.5438  0.1883 -0.8964
    7MOL    C94 1426   3.461   5.563   1.603 -0.1439  1.2218  0.2894
    7MOL    C95 1427   3.563   5.614   1.524 -0.2412 -0.0763  0.0096
    7MOL    O96 1428   3.564   5.597   1.384  0.3120 -0.1353 -0.7984
    7MOL    H97 1429   3.748   5.714   1.519  0.6482  1.4149  1.2099
    7MOL    H98 1430   3.733   5.795   1.754 -1.9585  2.8871 -1.4693
    7MOL    H99 1431   3.373   5.557   1.796  0.4948  1.9455  0.2108
    7MOL   H100 1432   3.387   5.497   1.562  1.8012 -1.1492  0.5095
    7MOL   C101 1433   3.737   5.397   1.134  0.5594  0.2529 -0.0082
    7MOL   C102 1434   3.678   5.502   1.204 -0.6873  0.3451  0.7400
    7MOL   C103 1435   3.621   5.486   1.333  1.0988  0.3658  0.3200
    7MOL   C104 1436   3.642   5.364   1.396 -0.6340 -0.6072  0.3015
    7MOL   C105 1437   3.692   5.254   1.322 -0.4452 -0.2780  0.3538
    7MOL   C106 1438   3.739   5.269   1.192 -0.1508 -0.7336 -0.5632
    7MOL   O107 1439   3.782   5.153   1.128  0.6367  0.4431 -0.3334
    7MOL   H108 1440   3.780   5.421   1.038  0.5627 -0.0977 -0.0928
    7MOL   H109 1441   3.683   5.603   1.166 -1.4028  0.6681  1.4876
    7MOL   H110 1442   3.625   5.363   1.503 -0.1916  0.2441  0.3881
    7MOL   H111 1443   3.711   5.161   1.372  1.0679 -0.9113 -1.3439
    7MOL   C112 1444   4.151   5.162   1.157 -0.0484  0.6707  0.5053
    7MOL   C113 1445   4.021   5.208   1.161 -0.0241  0.6629  0.0393
    7MOL   C114 1446   3.915   5.132   1.110  0.1300  0.2152 -0.6010
    7MOL   C115 1447   3.948   5.019   1.027 -0.0107  1.0138 -0.4026
    7MOL   C116 1448   4.084   4.968   1.029  0.0705 -0.4861 -0.3198
    7MOL   C117 1449   4.186   5.039   1.094  0.0990 -0.4175 -0.6110
    7MOL   O118 1450   4.323   5.018   1.078  0.9169 -0.6447  0.2816
    7MOL   H119 1451   4.222   5.236   1.190  1.4312 -0.4843 -0.0166
    7MOL   H120 1452   4.003   5.303   1.209  0.3118  0.3969  0.7064
    7MOL   H121 1453   3.870   4.953   0.994  1.0565 -1.4732  1.7883
    7MOL   H122 1454   4.110   4.878   0.976 -0.4594 -1.5954  1.2835
    7MOL   C123 1455   4.519   4.731   0.966  0.3065 -0.3390 -0.9093
    7MOL   C124 1456   4.455   4.853   0.975  0.6407  0.0528  0.1180
    7MOL   C125 1457   4.372   4.891   1.082  0.3525  0.4530 -0.4157
    7MOL   C126 1458   4.360   4.803   1.188  0.2989 -0.0875 -0.6698
    7MOL   C127 1459   4.416   4.675   1.181  0.2248 -0.1461  0.1783
    7MOL   C128 1460   4.500   4.636   1.073  0.8405  0.5162 -1.1228
    7MOL   O129 1461   4.545   4.510   1.078  0.2810 -0.2898  0.0936
    7MOL   H130 1462   4.584   4.713   0.881  0.8784  1.3863 -0.8641
    7MOL   H131 1463   4.472   4.932   0.903  1.1935 -0.6029 -0.4696
    7MOL   H132 1464   4.309   4.836   1.277 -1.6766 -0.9874 -1.4486
    7MOL   H133 1465   4.395   4.606   1.261  0.3567 -0.3365  0.0491
    7MOL   C134 1466   4.506   4.269   0.799  1.0492  0.5324  0.0529
    7MOL   C135 1467   4.484   4.346   0.916 -0.1269 -0.3532  0.5156
    7MOL   C136 1468   4.572   4.446   0.963 -0.1293  0.0485  0.5841
    7MOL   C137 1469   4.691   4.476   0.886  0.2564  0.4519 -0.6982
    7MOL   C138 1470   4.698   4.411   0.765 -0.2988 -0.5589  0.2753
    7MOL   C139 1471   4.605   4.318   0.720 -0.0580  0.3825  0.4626
    7MOL   O140 1472   4.622   4.262   0.597  0.0855  0.0108 -0.2632
    7MOL   H141 1473   4.438   4.188   0.773  0.2592  0.3220  2.6524
    7MOL   H142 1474   4.394   4.326   0.972  0.2884 -2.9437  0.3382
    7MOL   H143 1475   4.759   4.547   0.930  0.5367 -0.6055  0.5977
    7MOL   H144 1476   4.782   4.411   0.697 -1.5526  0.5062 -1.3022
    7MOL   C145 1477   4.705   4.453   0.302 -0.9595  0.0090  0.4884
    7MOL   C146 1478   4.722   4.373   0.415  0.1776 -0.1577  0.4020
    7MOL   C147 1479   4.612   4.343   0.487 -0.0498  0.0109 -0.2765
    7MOL   C148 1480   4.484   4.405   0.462  0.4131 -0.0331 -0.2371
    7MOL   C149 1481   4.467   4.480   0.344  0.0376  0.0929  0.5264
    7MOL   C150 1482   4.581   4.502   0.261 -0.4274  0.8836 -0.4771
    7MOL   O151 1483   4.560   4.572   0.149 -0.1802 -0.6017  0.1563
    7MOL   H152 1484   4.788   4.477   0.238 -1.4884 -1.2484 -0.7034
    7MOL   H153 1485   4.820   4.338   0.443  1.5756  2.0410 -1.5142
    7MOL   H154 1486   4.397   4.384   0.522  1.0722 -0.1828  0.6633
    7MOL   H155 1487   4.376   4.522   0.304  0.1368  0.5956  0.8193
    7MOL   C156 1488   4.461   4.339   8.125 -0.9170  0.2544  0.3252
    7MOL   C157 1489   4.461   4.400   8.248 -0.0528  0.0941 -0.0939
    7MOL   C158 1490   4.551   4.503   0.027  0.1820 -0.3418  0.3102
    7MOL   C159 1491   4.640   4.541   8.173  0.0988 -0.3023  0.1613
    7MOL   C160 1492   4.644   4.480   8.047 -0.0032 -0.1460 -0.1102
    7MOL   C161 1493   4.556   4.374   8.024  0.3799  0.2701 -0.0488
    7MOL   O162 1494   4.558   4.321   7.896  0.8761  0.0607 -0.1472
    7MOL   H163 1495   4.391   4.260   8.102  0.1739 -0.6335  0.0060
    7MOL   H164 1496   4.383   4.378   0.065  0.5473  0.0403  0.5605
    7MOL   H165 1497   4.709   4.624   8.180  0.4232 -0.5934  0.4073
    7MOL   H166 1498   4.712   4.517   7.972  0.2223  2.2862  1.2474
    7MOL   C167 1499   4.800   4.043   7.884  0.0701  0.0671  0.3514
    7MOL   C168 1500   4.701   4.132   7.937  0.3044  0.1389  0.2249
    7MOL   C169 1501   4.665   4.242   7.859  0.4659 -0.3256  0.1613
    7MOL   C170 1502   4.731   4.280   7.743  0.5215 -0.4629 -0.4319
    7MOL   C171 1503   4.837   4.195   7.699 -0.2344  0.0535  0.6769
    7MOL   C172 1504   4.874   4.073   7.767 -0.0671  0.2878  0.3913
    7MOL   O173 1505   4.977   4.002   7.729 -0.3301  0.0074  0.1389
    7MOL   H174 1506   4.838   3.963   7.947  0.6827  1.1157  1.3383
    7MOL   H175 1507   4.645   4.121   8.029  0.8485  0.8902  0.6519
    7MOL   H176 1508   4.711   4.372   7.689  0.2069 -1.0881 -1.3727
    7MOL   H177 1509   4.900   4.222   7.616 -0.1760  1.2355  1.0864
    7MOL   C178 1510   5.318   4.129   7.665  0.0346  0.4789  0.5153
    7MOL   C179 1511   5.188   4.076   7.650 -0.1479  0.1959  1.2617
    7MOL   C180 1512   5.093   4.069   7.747 -0.4405  0.1996  0.7900
    7MOL   C181 1513   5.134   4.103   7.879  0.3636 -0.2447  0.2088
    7MOL   C182 1514   5.260   4.151   7.904  0.0827 -0.1814  0.2293
    7MOL   C183 1515   5.353   4.162   7.797 -0.3265 -0.3044 -0.1149
    7MOL   O184 1516   5.480   4.214   7.809 -0.3557 -0.4376 -0.4649
    7MOL   H185 1517   5.386   4.129   7.581 -0.8025 -2.0216 -0.1794
    7MOL   H186 1518   5.145   4.043   7.557 -1.4495  1.3463  1.4321
    7MOL   H187 1519   5.066   4.101   7.962  1.5393 -0.7812  1.1868
    7MOL   H188 1520   5.294   4.176   8.003  1.0628  0.5013 -0.2601
    7MOL   C189 1521   5.570   4.477   8.048  0.9614  0.2076 -0.2156
    7MOL   C190 1522   5.534   4.352   7.997  0.3832 -0.3558  0.1470
    7MOL   C191 1523   5.492   4.338   7.864 -0.1581  0.1121  0.2272
    7MOL   C192 1524   5.475   4.451   7.781  0.0508 -0.1916  0.2900
    7MOL   C193 1525   5.505   4.573   7.830  0.4143  0.4535  0.2581
    7MOL   C194 1526   5.558   4.587   7.962 -0.5059 -0.3553  0.0713
    7MOL   O195 1527   5.602   4.717   8.000  0.0024  0.3267  0.1734
    7MOL   H196 1528   5.609   4.481   8.148  1.3245 -0.6182 -0.3207
    7MOL   H197 1529   5.545   4.266   8.062  0.4760 -0.2529  0.2652
    7MOL   H198 1530   5.441   4.423   7.683  2.3963  0.1622 -0.6618
    7MOL   H199 1531   5.498   4.662   7.769 -0.6208  0.9891  1.1544
    7MOL   C200 1532   5.863   4.811   8.238 -0.1035  0.2799 -0.2190
    7MOL   C201 1533   5.738   4.787   8.179  0.4787  0.1758  0.5105
    7MOL   C202 1534   5.724   4.720   8.059  0.0552  0.1282 -0.3263
    7MOL   C203 1535   5.839   4.675   7.988 -0.2775 -0.5278  0.1292
    7MOL   C204 1536   5.971   4.694   8.044  0.0276 -0.2388 -0.0438
    7MOL   C205 1537   5.981   4.769   8.168 -0.1160  0.2560  0.7375
    7MOL   O206 1538   6.108   4.792   8.234  1.0354 -0.6083 -0.2978
    7MOL   H207 1539   5.888   4.854   0.079  0.9272 -0.8986  0.0530
    7MOL   H208 1540   5.655   4.832   8.230  1.6181  0.2294  2.3465
    7MOL   H209 1541   5.833   4.626   7.893 -1.6728 -0.1650  0.0245
    7MOL   H210 1542   6.063   4.662   7.998  0.8823  2.2488 -0.1932
    7MOL   C211 1543   6.413   4.610   8.181  0.6214  0.9371 -0.0957
    7MOL   C212 1544   6.284   4.653   8.232  0.8884  1.0355  1.3080
    7MOL   C213 1545   6.222   4.761   8.170  0.1530  0.2774  0.3785
    7MOL   C214 1546   6.272   4.828   8.061 -0.3412  0.0404  0.2801
    7MOL   C215 1547   6.398   4.787   8.012  0.0993 -0.3140  0.5267
    7MOL   C216 1548   6.467   4.680   8.072  0.3455  0.1000  0.8587
    7MOL   O217 1549   6.580   4.631   8.009  0.2835  0.6756 -0.3080
    7MOL   H218 1550   6.473   4.527   8.215  1.3255  1.0637 -1.0075
    7MOL   H219 1551   6.227   4.602   0.054 -0.4825 -1.7473 -1.4911
    7MOL   H220 1552   6.228   4.923   8.036 -2.1011 -0.8682 -0.1228
    7MOL   H221 1553   6.443   4.848   7.935  0.0468 -0.1347  0.6372
    7MOL   H222 1554   6.599   4.546   8.048  1.5908  2.2045  2.5881
    8MOL     C1 1555   8.150   5.078   8.217  0.1363 -0.3407 -0.2271
    8MOL     C2 1556   8.023   5.021   8.195 -0.7700  0.2453 -0.7676
    8MOL     C3 1557   7.923   5.104   8.135  0.3295  0.3098  0.3956
    8MOL     C4 1558   7.957   5.232   8.095 -0.8401 -0.2524  0.0442
    8MOL     C5 1559   8.086   5.286   8.105 -1.0084  0.0266 -0.1052
    8MOL     C6 1560   8.183   5.210   8.171  0.3920  0.7251 -0.2321
    8MOL     O7 1561   0.055   5.264   8.196  0.0234 -0.3009 -0.3992
    8MOL     H8 1562   8.231   5.024   0.008  1.0093  1.4518  0.3762
    8MOL     H9 1563   8.007   4.920   8.233 -1.8356  1.6690  2.7801
    8MOL    H10 1564   7.879   5.295   8.056  0.7568  0.5621 -1.9600
    8MOL    H11 1565   8.108   5.383   8.064  1.3757  0.1198  1.2965
    8MOL    H12 1566   7.833   5.050   8.109  1.0086 -0.5740 -0.1578
    8MOL    C13 1567   0.278   5.269   7.897 -0.4481  0.8061  0.0016
    8MOL    C14 1568   0.195   5.222   8.000 -0.4610 -0.8465  0.4736
    8MOL    C15 1569   0.138   5.311   8.095  0.1626  0.1191  0.1851
    8MOL    C16 1570   0.174   5.448   8.093  0.3279  0.0729  0.1349
    8MOL    C17 1571   0.267   5.492   7.999  0.8597  0.4654  0.0705
    8MOL    C18 1572   0.320   5.402   7.906 -0.2552  0.3678 -0.6611
    8MOL    O19 1573   0.412   5.455   7.820 -0.0012 -0.3625  0.1821
    8MOL    H20 1574   0.319   5.199   7.825 -1.2094 -0.3983  0.7223
    8MOL    H21 1575   0.176   5.117   8.011  1.7384 -1.3323 -0.2613
    8MOL    H22 1576   0.137   5.517   8.168 -0.4968 -0.9204  0.6582
    8MOL    H23 1577   0.302   5.594   8.002 -0.3286  1.0803 -4.1681
    8MOL    C24 1578   0.420   5.338   7.468 -0.0077  0.1683 -0.0640
    8MOL    C25 1579   0.374   5.403   7.584  0.3562  0.3157  0.6055
    8MOL    C26 1580   0.448   5.391   7.704 -0.4712 -0.2089  0.8586
    8MOL    C27 1581   0.572   5.325   7.703 -0.6705  0.0459  0.1461
    8MOL    C28 1582   0.625   5.265   7.583  0.5880 -0.4260  0.4253
    8MOL    C29 1583   0.546   5.271   7.466 -0.0885  0.6961  0.4184
    8MOL    O30 1584   0.587   5.213   7.346 -0.3853 -0.0052  0.1103
    8MOL    H31 1585   0.370   5.351   7.374  3.4362  1.2117 -1.8541
    8MOL    H32 1586   0.284   5.462   7.580 -1.1247 -1.9651 -2.2246
    8MOL    H33 1587   0.639   5.311   7.787  0.1466  3.3404  0.0960
    8MOL    H34 1588   0.722   5.219   7.593  0.4544 -0.9688 -0.6793
    8MOL    C35 1589   0.472   4.864   7.367  0.2363  0.5516  0.4939
    8MOL    C36 1590   0.531   4.985   7.396  0.2224  0.3624 -0.8518
    8MOL    C37 1591   0.523   5.098   7.310 -0.2107  0.1716 -0.0515
    8MOL    C38 1592   0.449   5.087   7.195 -0.6091  0.4728  0.0692
    8MOL    C39 1593   0.389   4.965   7.165  0.3941  0.2719 -0.1886
    8MOL    C40 1594   0.388   4.857   7.252  0.7924  0.3688 -0.7037
    8MOL    O41 1595   0.314   4.746   7.232  0.6681  0.1717  0.7156
    8MOL    H42 1596   0.491   4.779   7.430  0.4223  0.3629  0.1873
    8MOL    H43 1597   0.592   4.998   7.484  0.3503  1.5920 -1.1102
    8MOL    H44 1598   0.443   5.175   7.133 -1.8720  0.6489  0.4237
    8MOL    H45 1599   0.336   4.973   7.071  0.5512  0.8432 -0.2316
    8MOL    C46 1600   0.496   4.439   7.298  0.6468  0.3735 -0.8482
    8MOL    C47 1601   0.464   4.565   7.246 -0.0095  0.0720 -0.4425
    8MOL    C48 1602   0.349   4.628   7.290 -0.3203 -0.5307  0.1211
    8MOL    C49 1603   0.262   4.567   7.378  0.5048 -0.1314  0.1550
    8MOL    C50 1604   0.296   4.443   7.437 -0.4171  0.4462 -0.6378
    8MOL    C51 1605   0.408   4.378   7.389  0.0613  0.0863  0.1776
    8MOL    O52 1606   0.443   4.262   7.453  0.1557  0.2248  0.0619
    8MOL    H53 1607   0.589   4.389   7.279  1.3849  0.9354  1.1232
    8MOL    H54 1608   0.526   4.607   7.169 -0.2991  1.6093  0.1548
    8MOL    H55 1609   0.169   4.618   7.398  0.2498 -0.2610 -0.6911
    8MOL    H56 1610   0.246   4.393   7.518  1.2101  0.2416  0.2612
    8MOL    C57 1611   0.484   3.931   7.318 -0.5918 -0.1623  0.4779
    8MOL    C58 1612   0.509   4.058   7.357  0.5469  0.5221 -0.1887
    8MOL    C59 1613   0.410   4.143   7.401 -0.7937  0.1013  0.6242
    8MOL    C60 1614   0.283   4.093   7.403 -0.2433  0.4264  0.2365
    8MOL    C61 1615   0.249   3.964   7.360 -0.4603  0.4857 -0.3338
    8MOL    C62 1616   0.352   3.879   7.320 -0.3369 -0.2827 -0.3547
    8MOL    O63 1617   0.330   3.743   7.293  0.3815 -0.0622 -0.1216
    8MOL    H64 1618   0.566   3.866   7.293 -0.3386 -0.3826  1.8744
    8MOL    H65 1619   0.611   4.093   7.361  0.5808  0.4800 -0.6544
    8MOL    H66 1620   0.209   4.155   7.452 -0.6513  1.8088 -2.0610
    8MOL    H67 1621   0.152   3.918   7.372 -0.3098  0.2897  0.1564
    8MOL    C68 1622   0.439   3.529   7.567 -0.1824  0.3757  0.5213
    8MOL    C69 1623   0.362   3.622   7.494  0.1259  0.1778 -0.3898
    8MOL    C70 1624   0.404   3.652   7.365 -0.0939  0.4613 -0.2048
    8MOL    C71 1625   0.520   3.602   7.311 -0.1221 -0.1607 -0.0443
    8MOL    C72 1626   0.594   3.505   7.374 -0.8949  0.3038 -0.5447
    8MOL    C73 1627   0.563   3.482   7.506  0.0294  0.1850  0.2825
    8MOL    O74 1628   0.647   3.400   7.577  0.0216  0.9547  0.5734
    8MOL    H75 1629   0.394   3.499   7.661  1.3508 -0.0976  1.1252
    8MOL    H76 1630   0.272   3.666   7.535  0.4621 -0.5202  1.1537
    8MOL    H77 1631   0.548   3.627   7.210  0.1912 -1.8530 -0.3862
    8MOL    H78 1632   0.686   3.465   7.335  0.0463  2.1301 -0.2357
    8MOL    C79 1633   0.625   3.098   7.782  0.3627 -0.4306 -0.3780
    8MOL    C80 1634   0.667   3.223   7.732 -0.5056 -0.5329 -0.7015
    8MOL    C81 1635   0.603   3.281   7.623 -0.1781  0.5575  0.0539
    8MOL    C82 1636   0.493   3.218   7.566  0.0780 -0.0543 -0.4301
    8MOL    C83 1637   0.449   3.092   7.611 -0.3562  0.4852 -0.0938
    8MOL    C84 1638   0.515   3.034   7.725  0.2258 -0.2933 -0.7963
    8MOL    O85 1639   0.472   2.916   7.781  0.0950  0.0288 -0.3383
    8MOL    H86 1640   0.674   3.055   7.867 -0.8402 -0.8937  0.0926
    8MOL    H87 1641   0.749   3.271   7.782  0.4991 -0.3519 -2.5084
    8MOL    H88 1642   0.437   3.250   7.480 -0.7578  0.9156  0.4581
    8MOL    H89 1643   0.368   3.042   7.561 -0.0960  1.9800 -2.0515
    8MOL    C90 1644   0.460   2.643   7.527 -0.1550 -0.0943 -0.1438
    8MOL    C91 1645   0.510   2.748   7.600 -0.4517  0.3994  0.7307
    8MOL    C92 1646   0.429   2.820   7.692 -0.1006  0.2321  0.5627
    8MOL    C93 1647   0.298   2.764   7.716 -0.0071  0.6303  0.4252
    8MOL    C94 1648   0.244   2.661   7.636  0.6523  0.7569 -0.4372
    8MOL    C95 1649   0.328   2.600   7.538 -0.7994  0.0976  0.1688
    8MOL    O96 1650   0.294   2.505   7.449  0.0170  0.2952  0.1858
    8MOL    H97 1651   0.529   2.597   7.458 -0.0383  0.8393 -0.6637
    8MOL    H98 1652   0.614   2.777   7.603  0.0797 -1.3055 -0.4530
    8MOL    H99 1653   0.232   2.812   7.786 -1.8472  1.1688 -1.6411
    8MOL   H100 1654   0.146   2.619   7.655  0.7332  0.3324 -0.9387
    8MOL   C101 1655   0.420   2.155   7.473 -0.4011 -0.2887 -0.4368
    8MOL   C102 1656   0.405   2.283   7.424 -0.4179  0.5625 -0.5428
    8MOL   C103 1657   0.311   2.372   7.484  0.2684 -0.2550  0.2153
    8MOL   C104 1658   0.211   2.315   7.568 -0.7342  0.7682  0.1550
    8MOL   C105 1659   0.234   2.189   7.624  0.5063  0.2203 -0.4250
    8MOL   C106 1660   0.341   2.109   7.577 -0.4439 -0.0643 -0.3176
    8MOL   O107 1661   0.359   1.980   7.624  0.3251  0.3106  0.4552
    8MOL   H108 1662   0.480   2.094   7.407 -0.8335 -0.5144 -0.6236
    8MOL   H109 1663   0.469   2.325   7.348  0.5087  0.0945 -0.0194
    8MOL   H110 1664   0.125   2.373   7.594 -0.0328  1.8586  0.0771
    8MOL   H111 1665   0.156   2.150   7.688 -0.6154  0.2396 -1.7688
    8MOL   C112 1666   0.112   1.728   7.742 -0.1111 -0.0126  0.4779
    8MOL   C113 1667   0.211   1.828   7.748 -0.2768 -0.0787  0.3113
    8MOL   C114 1668   0.252   1.896   7.627 -0.4581  0.2186  0.8273
    8MOL   C115 1669   0.188   1.862   7.504  0.5968  0.5349 -0.9753
    8MOL   C116 1670   0.097   1.757   7.502 -0.8961  0.2839 -0.5206
    8MOL   C117 1671   0.062   1.684   7.613 -0.2420  0.3817 -0.3162
    8MOL   O118 1672   8.235   1.573   7.592  0.1971 -0.1542 -1.2396
    8MOL   H119 1673   0.083   1.679   7.834  1.6354 -0.1465  0.9830
    8MOL   H120 1674   0.256   1.855   7.842 -0.1820  1.3967 -0.1461
    8MOL   H121 1675   0.213   1.917   7.415  0.2760  2.8146  0.3089
    8MOL   H122 1676   0.060   1.719   7.407 -0.0476 -0.6777 -0.4770
    8MOL   C123 1677   7.896   1.730   7.564 -0.6217  0.1809  0.3948
    8MOL   C124 1678   8.029   1.714   7.607 -0.7636  0.3154 -0.1252
    8MOL   C125 1679   8.104   1.593   7.557  0.0661 -0.3865 -0.0857
    8MOL   C126 1680   8.045   1.505   7.467 -0.3878  0.1272 -0.3590
    8MOL   C127 1681   7.912   1.524   7.431 -0.4243  0.5449  0.7503
    8MOL   C128 1682   7.837   1.634   7.478  0.3657  0.1733 -0.8294
    8MOL   O129 1683   7.714   1.650   7.427  0.0322 -0.0345 -0.0217
    8MOL   H130 1684   7.850   1.825   7.586 -0.7225  0.9399 -2.8796
    8MOL   H131 1685   8.090   1.793   7.649 -0.3122  1.6569 -3.1365
    8MOL   H132 1686   8.110   1.434   7.419  2.3172  0.9657  1.9523
    8MOL   H133 1687   7.864   1.461   7.359 -1.1489  1.0957  0.7444
    8MOL   C134 1688   7.531   1.939   7.533 -0.6240 -0.5534  0.0079
    8MOL   C135 1689   7.612   1.858   7.453  0.0653 -0.3884  0.0081
    8MOL   C136 1690   7.626   1.729   7.493  0.4561  0.0620  0.3096
    8MOL   C137 1691   7.570   1.676   7.607 -0.1825  0.0779  0.1711
    8MOL   C138 1692   7.493   1.757   7.693  0.1236 -0.3798  0.3571
    8MOL   C139 1693   7.478   1.893   7.660 -0.9137 -0.1952  0.6638
    8MOL   O140 1694   7.414   1.980   7.740  0.5527  0.4765  0.6901
    8MOL   H141 1695   7.518   2.043   7.506  1.9027  0.4783  2.4561
    8MOL   H142 1696   7.648   1.887   7.356 -0.1563  0.1678  0.0899
    8MOL   H143 1697   7.580   1.569   7.623 -0.0976  0.2597  1.3664
    8MOL   H144 1698   7.435   1.713   7.772 -0.3345 -0.8373 -0.2241
    8MOL   C145 1699   7.631   2.020   8.033 -0.5523  0.7233  0.5058
    8MOL   C146 1700   7.548   1.961   7.943  0.2009  0.2053 -0.0443
    8MOL   C147 1701   7.495   2.038   7.831 -0.2129 -0.2946 -0.1139
    8MOL   C148 1702   7.543   2.172   7.809  0.8893  0.0403  0.1745
    8MOL   C149 1703   7.633   2.230   7.901  0.4135  0.8390 -0.7022
    8MOL   C150 1704   7.670   2.153   8.014  0.1548 -0.3775 -0.3143
    8MOL   O151 1705   7.772   2.203   8.093  0.4945  0.3420  0.5170
    8MOL   H152 1706   7.668   1.962   8.116 -0.1647  2.5745  1.6394
    8MOL   H153 1707   7.540   1.853   7.947 -1.2426  0.1887 -2.2621
    8MOL   H154 1708   7.504   2.229   7.726 -2.4014 -0.7714  1.1034
    8MOL   H155 1709   7.669   2.331   7.892  2.1531  0.2135 -0.8940
    8MOL   C156 1710   7.860   2.335   0.166 -0.4659 -0.1640  0.2931
    8MOL   C157 1711   7.864   2.277   0.038 -0.0730  0.4782  0.5124
    8MOL   C158 1712   7.751   2.236   8.222  0.6278 -0.3588 -0.1576
    8MOL   C159 1713   7.624   2.244   0.031  0.1279 -0.7565  0.0885
    8MOL   C160 1714   7.616   2.312   0.159 -0.2396  0.5488  0.4528
    8MOL   C161 1715   7.737   2.359   0.224  0.3692  0.2077  0.5878
    8MOL   O162 1716   7.735   2.428   0.343 -0.3538  0.3625  0.1121
    8MOL   H163 1717   7.956   2.364   0.206 -0.4101  2.8102 -1.7991
    8MOL   H164 1718   7.960   2.256   8.247  0.5386  0.4534  1.8023
    8MOL   H165 1719   7.528   2.221   8.242  0.7540 -2.2132 -0.5742
    8MOL   H166 1720   7.523   2.339   0.208 -1.0303  0.0140 -0.7249
    8MOL   C167 1721   7.557   2.238   0.599 -0.2796  0.3538 -0.4266
    8MOL   C168 1722   7.619   2.262   0.477 -0.4433 -0.2331  0.0814
    8MOL   C169 1723   7.668   2.395   0.458 -0.8584 -0.9160  0.6092
    8MOL   C170 1724   7.649   2.500   0.550  0.3282  0.1913 -0.1373
    8MOL   C171 1725   7.580   2.477   0.672 -0.6287  0.0745 -0.0126
    8MOL   C172 1726   7.541   2.343   0.695  0.0936  0.0214  0.5503
    8MOL   O173 1727   7.470   2.305   0.811 -0.0255  0.6734  0.1010
    8MOL   H174 1728   7.532   2.135   0.618  0.0363 -0.0581 -2.1771
    8MOL   H175 1729   7.620   2.185   0.401 -0.5528  1.0003 -1.1856
    8MOL   H176 1730   7.680   2.598   0.515  0.0551  0.9503  1.6735
    8MOL   H177 1731   7.564   2.560   0.740 -2.0153 -0.7104  0.6448
    8MOL   C178 1732   7.415   2.547   1.088 -0.1744 -0.0375  0.8406
    8MOL   C179 1733   7.480   2.453   1.002  0.2894  0.9804  0.3047
    8MOL   C180 1734   7.405   2.398   0.896 -0.3679  0.3100 -0.7309
    8MOL   C181 1735   7.273   2.430   0.870  0.3276 -0.3025  0.0333
    8MOL   C182 1736   7.208   2.520   0.954 -0.4099 -0.2450 -0.0962
    8MOL   C183 1737   7.281   2.581   1.061  0.6321 -0.0967  0.4770
    8MOL   O184 1738   7.227   2.677   1.145  0.6529  0.0274 -0.5930
    8MOL   H185 1739   7.467   2.598   1.167  1.8482  1.0201 -1.1072
    8MOL   H186 1740   7.584   2.428   1.022  0.7398  1.4256 -1.3800
    8MOL   H187 1741   7.222   2.378   0.790  0.9560 -2.1357  0.7943
    8MOL   H188 1742   7.108   2.548   0.927  0.3800 -0.6571 -3.6272
    8MOL   C189 1743   7.018   2.885   0.924 -0.0233 -0.3042 -0.4893
    8MOL   C190 1744   7.134   2.830   0.978  0.2186 -0.2793  0.2931
    8MOL   C191 1745   7.120   2.751   1.091  0.1008  0.1903  0.4826
    8MOL   C192 1746   7.001   2.752   1.164  0.2991  0.4533 -0.1672
    8MOL   C193 1747   6.888   2.812   1.112  0.0154 -0.0026 -0.1373
    8MOL   C194 1748   6.899   2.878   0.994  0.4379  0.1996  0.7206
    8MOL   O195 1749   6.789   2.936   0.945  0.7903  0.6111  0.3807
    8MOL   H196 1750   7.033   2.949   0.838  3.9249 -1.7763 -1.0273
    8MOL   H197 1751   7.226   2.841   0.923  1.9065  0.1550  3.1046
    8MOL   H198 1752   6.984   2.696   1.255 -0.8127  1.5338  0.3110
    8MOL   H199 1753   6.800   2.817   1.174  1.0182 -0.7125  1.3774
    8MOL   C200 1754   6.836   3.299   0.978 -0.3072  0.2338  0.5556
    8MOL   C201 1755   6.849   3.166   0.923 -0.1868  0.3464 -0.1498
    8MOL   C202 1756   6.777   3.066   0.985  0.2431  0.2709 -0.3820
    8MOL   C203 1757   6.696   3.098   1.097 -0.1265  0.5782 -0.3585
    8MOL   C204 1758   6.685   3.228   1.149  0.6898  0.2280  0.4895
    8MOL   C205 1759   6.752   3.332   1.086  0.5249 -0.5453  0.7526
    8MOL   O206 1760   6.733   3.463   1.126  0.5742  0.4419  0.3201
    8MOL   H207 1761   6.885   3.378   0.922 -0.4311  0.6819  1.0723
    8MOL   H208 1762   6.911   3.142   0.838  0.8541 -2.2716  1.2706
    8MOL   H209 1763   6.637   3.021   1.145 -2.8259  1.2365 -2.5119
    8MOL   H210 1764   6.619   3.231   1.234  1.1143 -1.4120  0.8981
    8MOL   C211 1765   6.465   3.566   1.362 -0.8263 -0.4502 -0.1062
    8MOL   C212 1766   6.595   3.528   1.311 -0.4337 -0.6511  0.4403
    8MOL   C213 1767   6.608   3.491   1.176 -0.2763 -0.0986 -0.4807
    8MOL   C214 1768   6.500   3.468   1.094 -0.6489  1.0411  0.4269
    8MOL   C215 1769   6.375   3.500   1.145 -0.1082 -0.2587  0.4432
    8MOL   C216 1770   6.355   3.542   1.280  0.2179 -0.3719 -0.2609
    8MOL   O217 1771   6.231   3.573   1.323 -0.0826  0.0701  0.1009
    8MOL   H218 1772   6.461   3.601   1.464 -0.4422 -0.7026 -0.0025
    8MOL   H219 1773   6.678   3.546   1.377  0.7030 -2.8588 -0.3393
    8MOL   H220 1774   6.527   3.442   0.993 -2.3715  0.1992  0.1581
    8MOL   H221 1775   6.284   3.489   1.087  0.1551 -0.0400 -0.0141
    8MOL   H222 1776   6.199   3.556   1.410 -1.8236 -0.2830 -0.5959
    9MOL     C1 1777   5.706   6.396   2.912 -0.4516 -0.3115 -0.1462
    9MOL     C2 1778   5.575   6.419   2.940  0.7520  0.1504 -0.3401
    9MOL     C3 1779   5.485   6.315   2.921 -0.0209 -0.1116 -0.0958
    9MOL     C4 1780   5.532   6.186   2.879 -0.2747  0.0708 -0.0848
    9MOL     C5 1781   5.667   6.167   2.844 -0.6355 -0.4398  0.0876
    9MOL     C6 1782   5.752   6.275   2.867  0.0494 -0.6373  0.1344
    9MOL     O7 1783   5.888   6.250   2.852  0.4362  0.0837  0.1595
    9MOL     H8 1784   5.783   6.467   2.940  0.3721  0.5016 -4.1455
    9MOL     H9 1785   5.537   6.515   2.972 -0.4397 -0.6815  0.7788
    9MOL    H10 1786   5.458   6.108   2.865 -2.8666  1.7733  3.1970
    9MOL    H11 1787   5.697   6.069   2.810 -0.0182  0.2994 -1.5256
    9MOL    H12 1788   5.381   6.332   2.941  0.1726  1.3276 -0.2473
    9MOL    C13 1789   5.926   6.329   2.491 -0.1919 -0.4901  0.8783
    9MOL    C14 1790   5.877   6.335   2.623  0.3876 -0.5835 -0.8232
    9MOL    C15 1791   5.933   6.252   2.721 -0.7129 -0.6348  0.0607
    9MOL    C16 1792   6.033   6.158   2.682  0.0974  0.0082  0.5277
    9MOL    C17 1793   6.087   6.163   2.555  0.0614  0.1560  0.7773
    9MOL    C18 1794   6.035   6.249   2.456  0.1234  0.1681 -0.0064
    9MOL    O19 1795   6.085   6.242   2.329  0.3987  0.0162 -0.3723
    9MOL    H20 1796   5.892   6.401   2.418 -0.6466 -0.3918  1.1867
    9MOL    H21 1797   5.801   6.408   2.646 -0.7976 -0.7685 -3.9706
    9MOL    H22 1798   6.072   6.082   2.749  1.4116  0.4293  0.2614
    9MOL    H23 1799   6.164   6.090   2.534 -1.7226 -1.1530 -1.5991
    9MOL    C24 1800   6.406   6.242   2.156 -0.2883  1.0598  0.2648
    9MOL    C25 1801   6.278   6.204   2.194  0.5523 -0.7811  0.1272
    9MOL    C26 1802   6.212   6.271   2.300  0.4514 -0.0592 -0.2739
    9MOL    C27 1803   6.297   6.357   2.377 -0.1772 -0.4019 -0.1637
    9MOL    C28 1804   6.431   6.382   2.346 -0.1163 -0.5914 -0.5091
    9MOL    C29 1805   6.484   6.327   2.227 -0.2458 -0.1653 -0.8530
    9MOL    O30 1806   6.607   6.360   2.179  0.3622  0.4067  0.0402
    9MOL    H31 1807   6.447   6.195   2.068 -2.3467  1.3382 -0.8587
    9MOL    H32 1808   6.225   6.130   2.136  0.6403 -0.4070 -0.4294
    9MOL    H33 1809   6.254   6.406   2.463 -0.6599 -0.1100 -0.5644
    9MOL    H34 1810   6.483   6.456   2.406 -0.3983 -1.9116  1.3826
    9MOL    C35 1811   6.877   6.364   2.419 -0.6897  0.7328  0.4724
    9MOL    C36 1812   6.761   6.398   2.354  0.4852  0.0949 -0.5855
    9MOL    C37 1813   6.712   6.316   2.253 -0.0956 -0.1471  0.7366
    9MOL    C38 1814   6.775   6.197   2.222 -0.3075 -0.2763 -0.2447
    9MOL    C39 1815   6.882   6.149   2.301 -0.2386  0.2196  0.2146
    9MOL    C40 1816   6.937   6.237   2.397 -0.6455  0.0074 -0.2489
    9MOL    O41 1817   7.043   6.202   2.476  0.3172  0.1849 -0.1278
    9MOL    H42 1818   6.928   6.433   2.485  0.6712  1.3495 -1.1835
    9MOL    H43 1819   6.719   6.495   2.375  0.7543  0.0726  0.0496
    9MOL    H44 1820   6.734   6.132   2.146  0.0611 -1.9567  0.9383
    9MOL    H45 1821   6.923   6.054   2.271  0.3999  1.1680 -2.0294
    9MOL    C46 1822   6.913   6.047   2.797 -0.1451  0.3529 -0.1142
    9MOL    C47 1823   6.927   6.083   2.660 -0.4023 -0.3443 -0.3494
    9MOL    C48 1824   7.012   6.184   2.610  0.4397  0.1292 -0.2164
    9MOL    C49 1825   7.090   6.250   2.706 -0.3375 -0.0681  0.3459
    9MOL    C50 1826   7.076   6.225   2.844 -0.2952 -0.2502 -0.1524
    9MOL    C51 1827   6.991   6.121   2.892 -0.5816 -0.7686 -0.7655
    9MOL    O52 1828   6.970   6.094   3.027 -0.0112 -0.2316  0.0615
    9MOL    H53 1829   6.843   5.976   2.839  0.3709  0.7554  1.4705
    9MOL    H54 1830   6.867   6.031   2.587  0.1666 -0.1663 -0.9533
    9MOL    H55 1831   7.163   6.317   2.665 -0.7111 -0.3750 -0.8431
    9MOL    H56 1832   7.126   6.282   2.921  0.0490 -0.6036 -0.1115
    9MOL    C57 1833   6.902   6.310   3.308  0.0700 -0.3596 -0.3456
    9MOL    C58 1834   6.955   6.208   3.228  0.0541  0.1151  0.1365
    9MOL    C59 1835   6.897   6.183   3.101  0.8658  0.2606  0.4359
    9MOL    C60 1836   6.789   6.261   3.059  0.6401  0.4449  0.2830
    9MOL    C61 1837   6.731   6.357   3.139  0.2927 -0.3197  0.3613
    9MOL    C62 1838   6.786   6.381   3.270 -0.0697 -0.3055  0.3826
    9MOL    O63 1839   6.731   6.484   3.349  0.0167  0.4711  0.1721
    9MOL    H64 1840   6.945   6.323   3.406 -0.1641 -3.0714  0.1286
    9MOL    H65 1841   7.042   6.156   3.265  0.5234  2.2384  2.1752
    9MOL    H66 1842   6.754   6.245   2.958  0.1618  1.7015  0.2520
    9MOL    H67 1843   6.650   6.419   3.101  1.3487  1.7631  1.4680
    9MOL    C68 1844   6.722   6.843   3.228  0.1836  0.4521 -0.1937
    9MOL    C69 1845   6.679   6.708   3.259  0.4376  0.3308 -0.7188
    9MOL    C70 1846   6.773   6.613   3.314 -0.2409 -0.8729  0.0653
    9MOL    C71 1847   6.904   6.650   3.338  0.0323  0.6093 -0.1496
    9MOL    C72 1848   6.946   6.783   3.297  0.3423  0.3074 -0.0819
    9MOL    C73 1849   6.857   6.872   3.236  0.2503 -0.4579  0.0254
    9MOL    O74 1850   6.897   6.987   3.176 -0.0303 -0.6256  0.2876
    9MOL    H75 1851   6.651   6.915   3.191  0.1411 -0.0804 -1.1834
    9MOL    H76 1852   6.574   6.689   3.241  0.2013  0.2443  0.7018
    9MOL    H77 1853   6.976   6.578   3.375  0.3110  0.6153 -0.6755
    9MOL    H78 1854   7.048   6.811   3.321  1.4953 -2.3791 -1.5743
    9MOL    C79 1855   6.929   7.235   3.460  0.0123 -0.2262 -0.8757
    9MOL    C80 1856   6.875   7.130   3.376 -0.1897 -0.7686  0.2251
    9MOL    C81 1857   6.942   7.096   3.256  0.2473 -0.2471 -0.1476
    9MOL    C82 1858   7.052   7.167   3.214  0.2012 -0.1202  0.3779
    9MOL    C83 1859   7.104   7.268   3.295  1.1835 -0.3812  0.1088
    9MOL    C84 1860   7.042   7.302   3.416 -0.8998  0.4401  0.3344
    9MOL    O85 1861   7.104   7.405   3.484  0.3459  0.3585  0.1251
    9MOL    H86 1862   6.887   7.259   3.556  0.7326 -0.2851 -0.5440
    9MOL    H87 1863   6.778   7.085   3.395 -0.1638 -0.6467  0.6481
    9MOL    H88 1864   7.089   7.151   3.114  1.0467 -0.8927  0.8016
    9MOL    H89 1865   7.194   7.317   3.261  2.1400 -0.9438  1.7646
    9MOL    C90 1866   7.277   7.323   3.801  0.5468 -0.8112  0.6963
    9MOL    C91 1867   7.174   7.356   3.710  0.5525  0.1102  0.1690
    9MOL    C92 1868   7.206   7.378   3.572 -0.3853 -0.5457  0.7194
    9MOL    C93 1869   7.344   7.378   3.537 -0.2660 -0.8036  0.5132
    9MOL    C94 1870   7.444   7.343   3.627  0.0143  1.5289  0.0570
    9MOL    C95 1871   7.404   7.302   3.760 -0.3718  0.4004  0.3112
    9MOL    O96 1872   7.496   7.245   3.843  0.1599 -0.3824  0.3254
    9MOL    H97 1873   7.248   7.303   3.904 -0.4962 -3.4196 -0.0582
    9MOL    H98 1874   7.069   7.351   3.735  0.7005 -1.5303  0.4942
    9MOL    H99 1875   7.366   7.385   3.431 -1.7139  3.6790  0.3937
    9MOL   H100 1876   7.545   7.331   3.592 -0.6662  0.6566 -1.6487
    9MOL   C101 1877   7.748   7.020   3.697 -0.2646 -0.3353  0.3323
    9MOL   C102 1878   7.620   7.066   3.736  0.4617 -0.0730  0.5024
    9MOL   C103 1879   7.612   7.190   3.795 -0.6594  0.3383  0.3197
    9MOL   C104 1880   7.730   7.262   3.820 -0.3082  0.5150  0.3411
    9MOL   C105 1881   7.856   7.222   3.774  0.1853  0.2246  0.2664
    9MOL   C106 1882   7.863   7.095   3.710 -0.5461 -0.1656 -0.6659
    9MOL   O107 1883   7.982   7.051   3.663 -0.1363 -0.2872  0.1379
    9MOL   H108 1884   7.755   6.917   3.664  0.4414  0.2338 -1.3787
    9MOL   H109 1885   7.526   7.015   3.726  0.8932 -0.9459  0.8415
    9MOL   H110 1886   7.725   7.356   3.874  0.2273  0.0289  1.2556
    9MOL   H111 1887   7.948   7.279   3.783  0.5407 -0.5098  1.3102
    9MOL   C112 1888   8.040   6.692   3.686 -0.1107  0.0327 -0.3669
    9MOL   C113 1889   7.992   6.811   3.633  0.0456 -0.4879  0.3891
    9MOL   C114 1890   8.019   6.922   3.714 -0.3036 -0.0745 -0.0408
    9MOL   C115 1891   8.095   6.910   3.833 -0.0454 -0.1438  0.6804
    9MOL   C116 1892   8.147   6.794   3.879  0.4000 -0.3206  0.0473
    9MOL   C117 1893   8.115   6.677   3.805  0.4971 -0.0661  0.7498
    9MOL   O118 1894   8.151   6.551   3.847 -0.0291  0.3442  0.1548
    9MOL   H119 1895   8.018   6.600   3.634  2.0943 -0.0859 -1.1293
    9MOL   H120 1896   7.945   6.821   3.536  2.2980 -0.5622 -0.7469
    9MOL   H121 1897   8.126   7.006   3.874  1.8993 -0.0207 -1.0331
    9MOL   H122 1898   8.214   6.792   3.964  0.8684  2.2882 -0.2190
    9MOL   C123 1899   0.165   6.441   3.621  0.2594 -0.0047  0.0241
    9MOL   C124 1900   0.095   6.515   3.715 -0.8400 -0.5702  0.4095
    9MOL   C125 1901   8.220   6.474   3.753  0.8374 -0.1603  0.4344
    9MOL   C126 1902   8.158   6.358   3.686 -0.2710 -0.5938  0.0326
    9MOL   C127 1903   8.237   6.278   3.599 -0.1508 -0.0318 -0.1476
    9MOL   C128 1904   0.112   6.319   3.564  0.5798  0.5989 -0.0965
    9MOL   O129 1905   0.197   6.238   3.487  0.2478  0.1016  0.0913
    9MOL   H130 1906   0.256   6.477   3.575  1.8183 -2.1515  1.3372
    9MOL   H131 1907   0.147   6.600   3.755 -0.6537 -0.6247  0.2819
    9MOL   H132 1908   8.059   6.324   3.709 -0.3720  0.4999  1.2717
    9MOL   H133 1909   8.188   6.192   3.557 -0.7329  0.5825 -0.7439
    9MOL   C134 1910   0.046   5.911   3.391  0.3997  0.1357 -0.2345
    9MOL   C135 1911   0.091   6.018   3.467  0.8041 -0.4948 -0.1066
    9MOL   C136 1912   0.146   6.137   3.409 -0.0269  0.4238  0.6525
    9MOL   C137 1913   0.146   6.146   3.263 -0.1105 -0.1614  0.2605
    9MOL   C138 1914   0.096   6.036   3.189  0.4725  0.2076 -0.4586
    9MOL   C139 1915   0.038   5.922   3.251 -0.7775  0.8200 -0.3575
    9MOL   O140 1916   8.241   5.822   3.177 -0.2690 -0.0373  0.3338
    9MOL   H141 1917   0.015   5.820   3.440  1.4357 -0.4792 -0.7017
    9MOL   H142 1918   0.096   6.012   3.575 -0.6292  0.2677  0.0186
    9MOL   H143 1919   0.205   6.224   3.219  0.6847  0.2558  2.0158
    9MOL   H144 1920   0.094   6.047   3.082  4.1659  0.8209 -0.5294
    9MOL   C145 1921   0.234   5.551   3.189  0.0471  0.1734  0.0268
    9MOL   C146 1922   0.178   5.679   3.169  0.2345 -0.0420  0.2371
    9MOL   C147 1923   0.039   5.696   3.198 -0.3027 -0.3073  0.0911
    9MOL   C148 1924   8.216   5.591   3.247 -0.0750  0.2504  0.0006
    9MOL   C149 1925   0.024   5.467   3.277 -0.2094  0.6342  0.9647
    9MOL   C150 1926   0.158   5.447   3.240 -0.5661  0.2721 -0.3065
    9MOL   O151 1927   0.202   5.320   3.241 -0.1294 -0.0467  0.0348
    9MOL   H152 1928   0.337   5.534   3.159 -0.0431  0.4648 -0.4535
    9MOL   H153 1929   0.244   5.757   3.134  1.5923 -1.0270  0.5646
    9MOL   H154 1930   8.112   5.602   3.273 -0.3213 -2.4666  0.3208
    9MOL   H155 1931   8.234   5.377   3.319 -0.3134 -0.2886 -1.0307
    9MOL   C156 1932   0.188   5.010   3.044  0.0151 -0.0430 -0.5182
    9MOL   C157 1933   0.198   5.099   3.153 -0.3371 -0.1168  0.1089
    9MOL   C158 1934   0.177   5.235   3.136 -0.7852 -0.0064  0.4702
    9MOL   C159 1935   0.139   5.287   3.009  0.5313  0.1624 -0.4923
    9MOL   C160 1936   0.125   5.195   2.904  1.0157 -0.9675  0.4910
    9MOL   C161 1937   0.151   5.055   2.916  0.5768 -0.7078 -1.2660
    9MOL   O162 1938   0.146   4.972   2.814 -0.7881  0.2005  0.3782
    9MOL   H163 1939   0.204   4.904   3.055 -0.4123 -0.4728 -3.6818
    9MOL   H164 1940   0.220   5.063   3.253 -1.3871 -2.2542 -0.4153
    9MOL   H165 1941   0.125   5.393   2.996  0.3796 -0.0018 -1.6837
    9MOL   H166 1942   0.095   5.240   2.810  1.2048  0.9948  1.3351
    9MOL   C167 1943   8.162   4.769   2.632 -0.6977 -0.6232 -0.0448
    9MOL   C168 1944   0.016   4.853   2.656 -1.2560 -0.1427 -0.8048
    9MOL   C169 1945   0.035   4.900   2.788  0.9334 -0.1143  0.7616
    9MOL   C170 1946   8.189   4.883   2.884  0.2174  0.0248 -0.0513
    9MOL   C171 1947   8.077   4.799   2.856  0.2922 -0.1968 -0.0403
    9MOL   C172 1948   8.056   4.753   2.728 -0.1527 -0.4502 -0.1566
    9MOL   O173 1949   7.946   4.687   2.687  0.1506  0.5943  0.2397
    9MOL   H174 1950   8.150   4.726   2.534 -0.3484  0.9487 -0.7827
    9MOL   H175 1951   0.084   4.873   2.575  1.1431  0.4178  1.2691
    9MOL   H176 1952   8.209   4.936   2.975  0.3070 -2.1020  1.2120
    9MOL   H177 1953   8.004   4.777   2.933 -1.2320  2.5489 -0.6253
    9MOL   C178 1954   8.054   4.333   2.747  0.4640  0.5169  0.7649
    9MOL   C179 1955   8.045   4.471   2.762  0.0540  0.2033 -0.0249
    9MOL   C180 1956   7.962   4.547   2.676 -0.3610  0.4971 -0.0991
    9MOL   C181 1957   7.891   4.485   2.569  0.1407 -0.1087  0.5121
    9MOL   C182 1958   7.901   4.343   2.552  0.1236 -1.1343  0.3647
    9MOL   C183 1959   7.980   4.274   2.642  0.7017 -0.5513 -0.6366
    9MOL   O184 1960   7.978   4.137   2.634 -0.3714  0.5096  0.0036
    9MOL   H185 1961   8.117   4.279   2.817  2.2036  1.7111  0.1473
    9MOL   H186 1962   8.090   4.510   2.852 -0.2160  1.4205 -0.4113
    9MOL   H187 1963   7.832   4.542   2.499  0.1179 -0.3468  0.3366
    9MOL   H188 1964   7.857   4.301   2.462  0.5089  2.3554 -1.5206
    9MOL   C189 1965   8.240   4.071   2.385 -0.8633  0.0997 -0.0689
    9MOL   C190 1966   8.169   4.132   2.493  0.5050 -0.3384 -0.3677
    9MOL   C191 1967   8.041   4.085   2.527  0.0413 -0.4663 -0.5117
    9MOL   C192 1968   7.981   3.990   2.449  0.8722  0.4417  0.4957
    9MOL   C193 1969   8.052   3.928   2.344 -1.0243 -0.5237 -0.2195
    9MOL   C194 1970   8.182   3.973   2.306  0.5937  0.6127  0.1505
    9MOL   O195 1971   8.252   3.911   2.202 -0.1382 -0.0458 -0.2467
    9MOL   H196 1972   0.087   4.099   2.360 -0.9278 -0.4591 -0.9806
    9MOL   H197 1973   8.220   4.208   2.550  0.1495  0.1700 -0.7223
    9MOL   H198 1974   7.877   3.965   2.465  1.1564  0.4633  2.4544
    9MOL   H199 1975   8.001   3.853   2.284  0.1612 -0.1917 -1.6706
    9MOL   C200 1976   8.034   3.904   1.904  0.5747  0.0251 -0.2350
    9MOL   C201 1977   8.119   3.949   2.007 -0.0619  0.5860  0.4485
    9MOL   C202 1978   8.176   3.860   2.100  0.0790  0.4652 -0.0964
    9MOL   C203 1979   8.131   3.725   2.099 -0.8236 -0.7054 -0.2245
    9MOL   C204 1980   8.044   3.683   1.996  0.3602 -1.1254  0.1590
    9MOL   C205 1981   7.989   3.774   1.899 -1.2285 -0.0955 -0.5617
    9MOL   O206 1982   7.910   3.724   1.794 -0.0278 -0.2365 -0.0872
    9MOL   H207 1983   7.992   3.968   1.827 -0.6197 -0.5050 -0.0396
    9MOL   H208 1984   8.153   4.051   2.017  0.7994  0.1941  1.6133
    9MOL   H209 1985   8.173   3.660   2.174  1.7719  0.1264 -0.8937
    9MOL   H210 1986   8.008   3.581   1.993  0.3863 -1.2572  3.1187
    9MOL   C211 1987   8.030   3.641   1.471 -0.0259 -0.3318 -0.1548
    9MOL   C212 1988   7.978   3.716   1.580 -0.1229  0.4344 -0.3160
    9MOL   C213 1989   7.956   3.650   1.697 -0.0393  0.1125  0.0259
    9MOL   C214 1990   7.987   3.508   1.712  0.8428 -0.7794  0.2595
    9MOL   C215 1991   8.035   3.435   1.604  0.3191  0.3647  0.7998
    9MOL   C216 1992   8.059   3.508   1.481 -0.3539  0.5399 -0.8237
    9MOL   O217 1993   8.117   3.449   1.369  0.1026  0.0619 -0.3608
    9MOL   H218 1994   8.054   3.692   1.379  0.5761 -0.9517 -0.3474
    9MOL   H219 1995   7.948   3.819   1.567  0.9741  0.9000  0.7520
    9MOL   H220 1996   7.957   3.465   1.806 -2.3232 -0.3856 -0.5296
    9MOL   H221 1997   8.059   3.332   1.624 -2.3664 -0.7584 -1.3837
    9MOL   H222 1998   8.166   3.369   1.384 -0.1364 -0.1105 -0.4878
   10MOL     C1 1999   7.097   5.462   7.888 -0.6022 -0.4050 -0.6179
   10MOL     C2 2000   6.990   5.444   7.977 -0.0295  0.7771  0.2012
   10MOL     C3 2001   6.871   5.376   7.929 -0.5459 -0.2056 -0.4254
   10MOL     C4 2002   6.871   5.344   7.794 -0.2810  0.0123 -0.3538
   10MOL     C5 2003   6.975   5.381   7.707 -0.0261  0.3834  0.0216
   10MOL     C6 2004   7.091   5.438   7.758  0.0287  0.5625 -0.3400
   10MOL     O7 2005   7.197   5.469   7.672  0.5838  0.8336  0.0278
   10MOL     H8 2006   7.192   5.492   7.929 -0.2978 -0.1383 -1.5185
   10MOL     H9 2007   7.010   5.471   8.080  0.7757  0.8506  0.0269
   10MOL    H10 2008   6.784   5.287   7.764 -0.2867  0.4226 -1.1172
   10MOL    H11 2009   6.963   5.363   7.601 -1.5189  1.8673 -0.0808
   10MOL    H12 2010   6.791   5.356   7.999 -0.5537 -0.8754 -0.6232
   10MOL    C13 2011   7.063   5.577   7.341  0.2023 -0.5344  0.1669
   10MOL    C14 2012   7.125   5.500   7.447  1.0314  0.3608  0.0837
   10MOL    C15 2013   7.150   5.552   7.571 -0.5716  0.6689  0.4790
   10MOL    C16 2014   7.128   5.685   7.589  0.0631 -0.0831  0.0953
   10MOL    C17 2015   7.071   5.769   7.486 -0.3110 -0.3663  0.4322
   10MOL    C18 2016   7.042   5.716   7.364  0.8944 -0.0272  0.8188
   10MOL    O19 2017   6.997   5.800   7.265  0.0614 -0.4194  0.2385
   10MOL    H20 2018   7.047   5.541   7.241  1.9659 -0.9124  0.0010
   10MOL    H21 2019   7.141   5.394   7.434  1.7694  0.5718 -0.7347
   10MOL    H22 2020   7.145   5.730   7.686  2.7058  2.2240 -1.3607
   10MOL    H23 2021   7.052   5.872   7.509 -0.1911 -0.6127  1.6839
   10MOL    C24 2022   6.716   6.036   7.285  0.1109  0.3120 -0.1017
   10MOL    C25 2023   6.847   5.984   7.280 -0.2043  0.4022 -0.0558
   10MOL    C26 2024   6.868   5.845   7.266  0.6573 -0.2682  0.1502
   10MOL    C27 2025   6.753   5.761   7.258  0.1534  0.3345  0.0971
   10MOL    C28 2026   6.621   5.809   7.252  0.1407  0.3857  0.2729
   10MOL    C29 2027   6.606   5.951   7.258  0.3478 -0.1100  0.4031
   10MOL    O30 2028   6.483   6.010   7.262 -0.1922 -0.6177  0.1015
   10MOL    H31 2029   6.714   6.143   7.301  0.3609  0.0930  1.5120
   10MOL    H32 2030   6.930   6.047   7.307  0.3930 -0.3123 -0.2027
   10MOL    H33 2031   6.759   5.653   7.256 -1.0085  0.2892 -1.5306
   10MOL    H34 2032   6.534   5.746   7.249  0.4448 -0.0090 -0.5584
   10MOL    C35 2033   6.274   6.211   7.041 -0.1227 -0.1108  0.1898
   10MOL    C36 2034   6.323   6.143   7.154 -0.1710  0.3375  0.2642
   10MOL    C37 2035   6.446   6.081   7.149  0.5825 -0.1583  0.7881
   10MOL    C38 2036   6.523   6.080   7.028 -0.2866 -0.4385 -0.0861
   10MOL    C39 2037   6.474   6.141   6.914  1.0644 -0.2366  0.5385
   10MOL    C40 2038   6.354   6.215   6.929  0.1978  0.0797 -0.0134
   10MOL    O41 2039   6.316   6.303   6.831 -0.1119 -0.3742 -0.3647
   10MOL    H42 2040   6.184   6.266   7.063  0.2887  0.9340 -0.6789
   10MOL    H43 2041   6.265   6.138   7.246  0.7159  0.3758  0.8323
   10MOL    H44 2042   6.617   6.026   7.025  0.5054  0.9730 -1.6822
   10MOL    H45 2043   6.530   6.146   6.822  2.8343  1.3997  1.6568
   10MOL    C46 2044   6.376   6.224   6.479  0.2134  0.6436  0.9400
   10MOL    C47 2045   6.394   6.281   6.604 -0.0551 -0.7406 -0.0457
   10MOL    C48 2046   6.302   6.254   6.711  0.1221 -0.2901  0.1324
   10MOL    C49 2047   6.192   6.171   6.684  0.2057  0.0373  0.0482
   10MOL    C50 2048   6.176   6.118   6.555  0.2263 -0.1972  0.4235
   10MOL    C51 2049   6.266   6.137   6.452  0.2216 -0.1911  0.5331
   10MOL    O52 2050   6.236   6.102   6.321  0.1186 -0.1079 -0.0956
   10MOL    H53 2051   6.444   6.247   6.399 -0.6151 -0.0992  0.0200
   10MOL    H54 2052   6.472   6.355   6.620 -1.2946  0.2797  1.4514
   10MOL    H55 2053   6.116   6.153   6.758  0.5308 -0.9385  0.1515
   10MOL    H56 2054   6.081   6.082   6.520 -0.0579  0.8207  0.1233
   10MOL    C57 2055   6.259   5.737   6.327  0.3089 -0.1367  0.7310
   10MOL    C58 2056   6.223   5.868   6.349  0.7545  0.1674 -0.0648
   10MOL    C59 2057   6.281   5.976   6.290 -0.0804 -0.7719  0.5542
   10MOL    C60 2058   6.386   5.951   6.195 -0.3313 -0.4835 -0.6640
   10MOL    C61 2059   6.426   5.820   6.165  0.3648  0.2272 -0.4344
   10MOL    C62 2060   6.361   5.709   6.225  0.3537 -0.1358 -0.1177
   10MOL    O63 2061   6.395   5.580   6.190  0.2515 -0.2032  0.0857
   10MOL    H64 2062   6.210   5.653   6.373  0.4701 -0.2548  0.6900
   10MOL    H65 2063   6.144   5.884   6.421  1.4656  0.5417  0.6409
   10MOL    H66 2064   6.432   6.038   6.151 -0.4149 -0.7226 -1.2320
   10MOL    H67 2065   6.496   5.794   6.087 -0.0609 -1.3804 -0.3079
   10MOL    C68 2066   6.625   5.513   5.907 -0.2893  0.1811 -0.5435
   10MOL    C69 2067   6.510   5.555   5.982 -0.2840  0.1416 -0.0990
   10MOL    C70 2068   6.514   5.555   6.125 -0.4252 -0.1911  0.8129
   10MOL    C71 2069   6.630   5.535   6.198 -0.5719 -0.0571  0.3737
   10MOL    C72 2070   6.749   5.510   6.124  0.3359 -0.1284  0.1043
   10MOL    C73 2071   6.743   5.490   5.981  0.1995 -0.5083 -0.2293
   10MOL    O74 2072   6.863   5.456   5.921  0.0103 -0.3596 -0.6785
   10MOL    H75 2073   6.618   5.495   5.801 -2.4598 -2.7256  0.0419
   10MOL    H76 2074   6.416   5.566   5.931  0.5015 -2.2953 -2.1635
   10MOL    H77 2075   6.638   5.553   6.304  1.1356  0.2996  0.2039
   10MOL    H78 2076   6.844   5.485   6.171  1.1533 -1.2898 -2.0871
   10MOL    C79 2077   7.025   5.143   6.039  0.4498 -0.4897 -0.1744
   10MOL    C80 2078   6.997   5.278   6.023 -0.2805  0.7148  0.4398
   10MOL    C81 2079   6.894   5.319   5.937 -0.4833 -0.5212  0.3501
   10MOL    C82 2080   6.822   5.218   5.868 -0.1356  0.2303 -0.0879
   10MOL    C83 2081   6.855   5.083   5.885  0.0412  0.4014 -0.2431
   10MOL    C84 2082   6.949   5.043   5.976 -0.1157  0.1970 -0.2176
   10MOL    O85 2083   6.963   4.907   6.008 -0.3363 -0.2002  0.1953
   10MOL    H86 2084   7.105   5.114   6.105  1.0115  1.3948  0.0104
   10MOL    H87 2085   7.066   5.347   6.069  0.7101  0.4579 -0.6438
   10MOL    H88 2086   6.736   5.233   5.805  0.5982 -1.9171 -1.6448
   10MOL    H89 2087   6.782   5.016   5.842  0.4484  0.6470 -1.3349
   10MOL    C90 2088   6.950   4.696   6.300 -0.4211 -0.3394  0.2658
   10MOL    C91 2089   6.974   4.741   6.175 -0.5584 -0.3230 -0.3646
   10MOL    C92 2090   6.910   4.856   6.125  0.7099 -0.0082  0.2389
   10MOL    C93 2091   6.804   4.901   6.197 -0.0165 -0.1388 -0.1489
   10MOL    C94 2092   6.769   4.845   6.326 -0.7584  0.0790  0.4467
   10MOL    C95 2093   6.850   4.745   6.376  0.6021 -0.5425 -0.1522
   10MOL    O96 2094   6.826   4.696   6.502  0.0683  0.2113 -0.1867
   10MOL    H97 2095   7.014   4.623   6.346  0.8970 -0.6041 -1.8903
   10MOL    H98 2096   7.045   4.693   6.110  3.0317  1.0226  2.4019
   10MOL    H99 2097   6.748   4.982   6.152  0.5517  1.0349  1.2264
   10MOL   H100 2098   6.695   4.890   6.390  0.4839  0.1336  1.8747
   10MOL   C101 2099   6.944   4.949   6.746  0.8485 -0.2376  0.4746
   10MOL   C102 2100   6.943   4.852   6.641 -0.4281 -0.6765  0.5201
   10MOL   C103 2101   6.822   4.786   6.604  0.0844 -0.5062 -0.6556
   10MOL   C104 2102   6.703   4.821   6.673 -0.9405  0.4489  0.2685
   10MOL   C105 2103   6.701   4.917   6.779 -0.3378  0.0811 -0.6153
   10MOL   C106 2104   6.825   4.982   6.813 -0.4425 -0.4772 -0.2252
   10MOL   O107 2105   6.825   5.085   6.902  0.5107  0.0912  0.7316
   10MOL   H108 2106   7.028   5.014   6.767  1.8384 -0.4715 -2.4633
   10MOL   H109 2107   7.040   4.839   6.594 -1.2149  1.6110 -1.8324
   10MOL   H110 2108   6.614   4.775   6.635 -1.0072 -0.1191  1.0988
   10MOL   H111 2109   6.610   4.933   6.834 -0.2699  1.5689 -0.9364
   10MOL   C112 2110   6.904   5.183   7.238 -0.0954 -0.6183 -0.1746
   10MOL   C113 2111   6.903   5.180   7.102  0.7783  0.4609  0.1650
   10MOL   C114 2112   6.850   5.068   7.036 -0.5728  0.3241 -0.2260
   10MOL   C115 2113   6.830   4.947   7.106  0.9158  0.4649 -0.1710
   10MOL   C116 2114   6.836   4.949   7.248 -0.6865  0.4102  0.7976
   10MOL   C117 2115   6.880   5.067   7.312  0.2703 -0.2448  0.0966
   10MOL   O118 2116   6.896   5.069   7.449 -0.3505  0.1197 -0.2807
   10MOL   H119 2117   6.930   5.278   7.283 -2.5709  0.7957 -1.6495
   10MOL   H120 2118   6.925   5.270   7.045  2.0914 -0.6791 -1.1835
   10MOL   H121 2119   6.789   4.858   7.060 -0.4122  1.1465 -0.3273
   10MOL   H122 2120   6.806   4.857   7.295  1.5653 -1.1763 -0.7508
   10MOL   C123 2121   6.658   5.071   7.744  0.0582 -0.0512 -0.4777
   10MOL   C124 2122   6.766   5.033   7.650  0.8613  0.0768 -0.0404
   10MOL   C125 2123   6.785   5.096   7.526  0.4963  0.0276 -0.2738
   10MOL   C126 2124   6.683   5.190   7.489 -0.0170  0.3180 -0.5493
   10MOL   C127 2125   6.571   5.218   7.577 -0.0299 -0.3913 -0.0017
   10MOL   C128 2126   6.559   5.159   7.706 -0.1584  0.6275 -0.6890
   10MOL   O129 2127   6.452   5.173   7.788 -0.3995 -0.2150 -0.5806
   10MOL   H130 2128   6.656   5.014   7.836 -1.6706 -0.2385 -0.6235
   10MOL   H131 2129   6.841   4.965   7.686  1.4209 -0.2316 -1.7356
   10MOL   H132 2130   6.697   5.247   7.399 -0.8387  0.0504 -0.8480
   10MOL   H133 2131   6.483   5.266   7.538  0.8309 -0.2578 -1.7961
   10MOL   C134 2132   6.463   5.480   7.980 -0.4824  0.2984  0.0927
   10MOL   C135 2133   6.470   5.393   7.873 -0.2825 -0.4414 -0.7588
   10MOL   C136 2134   6.474   5.257   7.893 -0.0800 -0.1502 -0.1527
   10MOL   C137 2135   6.482   5.203   8.024  1.0551  0.2341  0.5016
   10MOL   C138 2136   6.476   5.289   8.132 -0.4032 -0.5727  0.4367
   10MOL   C139 2137   6.471   5.429   8.107  0.0718 -0.1075  0.2879
   10MOL   O140 2138   6.475   5.524   8.209  0.3192  0.0839 -0.0469
   10MOL   H141 2139   6.452   5.587   7.976  3.4605  0.8094  1.1323
   10MOL   H142 2140   6.457   5.437   7.775  0.2572  1.2817 -0.0876
   10MOL   H143 2141   6.469   5.096   8.027 -0.7606  0.4766  3.0737
   10MOL   H144 2142   6.476   5.261   8.236 -0.4105  0.3226  0.6816
   10MOL   C145 2143   6.837   5.614   8.251  0.8871 -0.5742 -0.2736
   10MOL   C146 2144   6.713   5.598   8.192  0.1974 -0.0983 -0.2562
   10MOL   C147 2145   6.599   5.540   0.009  0.4380  0.5628 -0.1812
   10MOL   C148 2146   6.626   5.502   0.142  0.4446 -0.6506 -0.3491
   10MOL   C149 2147   6.753   5.517   0.200  0.4658 -0.1299  0.0817
   10MOL   C150 2148   6.858   5.583   0.135  0.0089 -0.2716 -0.2802
   10MOL   O151 2149   6.975   5.597   0.204  0.7324 -0.4727  0.2169
   10MOL   H152 2150   6.911   5.660   8.187  0.1943  1.0852  0.0901
   10MOL   H153 2151   6.713   5.646   8.095  0.9348 -0.4551 -0.4427
   10MOL   H154 2152   6.549   5.448   0.195  0.9558 -0.5680  0.4857
   10MOL   H155 2153   6.760   5.488   0.304 -3.1898 -0.7456  0.2189
   10MOL   C156 2154   7.323   5.610   0.066  0.4639 -0.0777 -0.2903
   10MOL   C157 2155   7.206   5.564   0.138 -0.1197  0.3318  0.1951
   10MOL   C158 2156   7.090   5.636   0.137  0.5596  0.5292 -0.2292
   10MOL   C159 2157   7.097   5.766   0.068  0.0114 -0.3182 -0.9808
   10MOL   C160 2158   7.215   5.819   0.011 -0.0463 -0.1535  0.1209
   10MOL   C161 2159   7.326   5.732   0.007 -0.8588 -0.7410 -0.2063
   10MOL   O162 2160   7.444   5.772   8.203  0.6657  0.2918 -0.4503
   10MOL   H163 2161   7.415   5.553   0.071 -0.0803 -0.8990  0.3429
   10MOL   H164 2162   7.216   5.479   0.203 -0.1547  0.6797  0.6570
   10MOL   H165 2163   7.010   5.828   0.079 -0.3702 -0.8771 -0.8170
   10MOL   H166 2164   7.220   5.914   8.216 -0.4721  0.1847  0.7260
   10MOL   C167 2165   7.535   5.982   7.919  0.5150  0.4355 -0.0651
   10MOL   C168 2166   7.523   5.936   8.051  0.0308  0.4282  0.2049
   10MOL   C169 2167   7.446   5.818   8.074 -0.5556 -0.1168 -0.3014
   10MOL   C170 2168   7.390   5.742   7.966 -0.1691  0.3798  0.3834
   10MOL   C171 2169   7.408   5.792   7.835  0.2319  0.7695 -0.4902
   10MOL   C172 2170   7.480   5.911   7.814  0.1728  0.6392  0.6916
   10MOL   O173 2171   7.504   5.956   7.685 -0.0339  0.1342 -0.4123
   10MOL   H174 2172   7.588   6.076   7.910 -0.8345  1.3373  1.1074
   10MOL   H175 2173   7.583   5.965   8.136 -1.6748  1.4287  1.1082
   10MOL   H176 2174   7.328   5.657   7.989  0.9497 -1.0238 -1.5951
   10MOL   H177 2175   7.365   5.738   7.752  0.3779  0.8667 -0.6301
   10MOL   C178 2176   7.590   5.709   7.421 -0.1531 -0.3513 -0.1025
   10MOL   C179 2177   7.524   5.815   7.486 -0.8261 -0.5916 -0.3516
   10MOL   C180 2178   7.575   5.874   7.602 -0.5648  0.2519 -0.0452
   10MOL   C181 2179   7.699   5.822   7.648  0.6016  0.2282 -0.0445
   10MOL   C182 2180   7.768   5.713   7.587 -0.1569  0.0034 -0.3437
   10MOL   C183 2181   7.706   5.653   7.476  0.6758  0.0718 -0.3899
   10MOL   O184 2182   7.775   5.550   7.409 -0.0935 -0.4623 -0.6037
   10MOL   H185 2183   7.542   5.672   7.332  2.3780  1.4181 -2.2863
   10MOL   H186 2184   7.429   5.854   7.454 -0.7774 -0.0973  0.0889
   10MOL   H187 2185   7.739   5.873   7.734  1.6039 -0.6410  0.0110
   10MOL   H188 2186   7.861   5.677   7.628 -0.7008  1.5389  2.3674
   10MOL   C189 2187   7.970   5.710   7.131  0.2278 -0.2304 -0.2677
   10MOL   C190 2188   7.867   5.677   7.223  0.1353 -0.4910  0.5833
   10MOL   C191 2189   7.878   5.580   7.323  1.0411 -0.1005  0.2557
   10MOL   C192 2190   8.002   5.507   7.327 -0.5475  0.2228  0.0829
   10MOL   C193 2191   8.104   5.536   7.235 -0.6454  0.0296  0.1901
   10MOL   C194 2192   8.095   5.644   7.144 -0.6080  0.1038  0.5145
   10MOL   O195 2193   8.202   5.686   7.075 -0.0769 -0.2778 -0.0324
   10MOL   H196 2194   7.967   5.795   7.065 -1.9482  0.2845  0.4410
   10MOL   H197 2195   7.774   5.728   7.202 -1.1157 -3.3048 -1.1515
   10MOL   H198 2196   8.012   5.422   7.393 -0.5760 -0.4579 -0.7789
   10MOL   H199 2197   8.198   5.484   7.239 -1.6682 -1.9377 -0.6972
   10MOL   C200 2198   0.005   6.053   7.077 -0.5019 -0.1064  0.2772
   10MOL   C201 2199   8.211   5.922   7.038  0.6504 -0.5854  0.3371
   10MOL   C202 2200   0.000   5.805   7.109 -0.3142 -0.2394  0.6455
   10MOL   C203 2201   0.086   5.816   7.220 -0.0088 -0.3200 -0.5629
   10MOL   C204 2202   0.126   5.944   7.261  0.6008 -0.0522  0.5686
   10MOL   C205 2203   0.087   6.060   7.191 -0.6571  0.2871 -0.0621
   10MOL   O206 2204   0.137   6.182   7.237  0.3985 -0.1336 -0.9029
   10MOL   H207 2205   8.234   6.136   7.013 -0.2277  0.1384  0.4854
   10MOL   H208 2206   8.154   5.912   6.947  1.0038 -0.7491  0.1368
   10MOL   H209 2207   0.107   5.737   7.290  1.8185  1.6542  1.1725
   10MOL   H210 2208   0.192   5.969   7.343  1.2808 -0.5155  0.1703
   10MOL   C211 2209   8.127   6.418   7.316 -0.4621  0.0013 -0.5403
   10MOL   C212 2210   8.229   6.346   7.249 -0.5440  0.3390 -0.2955
   10MOL   C213 2211   0.043   6.245   7.312  0.3368  0.8331  0.1994
   10MOL   C214 2212   0.012   6.214   7.442 -0.1004  0.0783 -0.5699
   10MOL   C215 2213   8.158   6.279   7.508  0.1789 -0.1028  0.0559
   10MOL   C216 2214   8.095   6.388   7.447 -0.0290 -0.0836  0.4003
   10MOL   O217 2215   7.998   6.453   7.512  0.2073 -0.3909  0.1256
   10MOL   H218 2216   8.078   6.496   7.260 -1.1043  0.2498  0.3436
   10MOL   H219 2217   8.253   6.381   7.150 -0.5812  1.7156  0.1658
   10MOL   H220 2218   0.072   6.133   7.483  0.9622  0.6665 -0.9548
   10MOL   H221 2219   8.128   6.252   7.608  1.0250  0.1933  0.3899
   10MOL   H222 2220   7.978   6.424   7.599 -2.3825 -0.7475 -0.5403
   11MOL     C1 2221   5.172   3.518   6.523  0.0826  0.3040  0.6513
   11MOL     C2 2222   5.299   3.570   6.495 -0.3828 -0.1909 -0.1044
   11MOL     C3 2223   5.336   3.588   6.358 -0.1692  0.1250 -0.0286
   11MOL     C4 2224   5.241   3.567   6.255  0.1341  0.2232  0.1672
   11MOL     C5 2225   5.116   3.512   6.289  0.3434 -0.1702 -0.7776
   11MOL     C6 2226   5.081   3.486   6.420  0.1247 -0.6289  0.2190
   11MOL     O7 2227   4.955   3.448   6.456 -0.5085  0.6427  0.5697
   11MOL     H8 2228   5.140   3.499   6.625 -2.2922 -0.2723 -0.1679
   11MOL     H9 2229   5.366   3.603   6.574  0.7447 -0.5052 -0.9096
   11MOL    H10 2230   5.276   3.579   6.154  0.4530 -1.3774  0.0724
   11MOL    H11 2231   5.047   3.501   6.207  2.9645  0.0079 -3.1153
   11MOL    H12 2232   5.426   3.642   6.331 -2.2736  3.0120 -1.5923
   11MOL    C13 2233   4.769   3.151   6.576 -0.1029 -0.1287  0.0107
   11MOL    C14 2234   4.799   3.281   6.531  0.2613  0.1933  0.1889
   11MOL    C15 2235   4.927   3.320   6.493  0.6716  0.1923  0.1937
   11MOL    C16 2236   5.025   3.216   6.489  0.1833 -0.0842 -0.6021
   11MOL    C17 2237   4.995   3.083   6.524 -0.3550  0.5527 -0.0519
   11MOL    C18 2238   4.868   3.048   6.570 -0.4495  0.5253  0.3228
   11MOL    O19 2239   4.841   2.920   6.610  0.2559 -0.1739  0.1020
   11MOL    H20 2240   4.665   3.131   6.598 -0.2275 -0.7598 -1.1368
   11MOL    H21 2241   4.719   3.352   6.517 -0.4713 -1.0153 -2.0784
   11MOL    H22 2242   5.121   3.248   6.451  0.3314 -0.8710 -0.8968
   11MOL    H23 2243   5.071   3.007   6.515 -1.0067 -0.1140  0.0481
   11MOL    C24 2244   4.905   2.893   6.966  0.8739  0.5006  0.3648
   11MOL    C25 2245   4.933   2.926   6.836 -0.0305  0.9050 -0.1732
   11MOL    C26 2246   4.823   2.899   6.747 -0.6151  1.1264  0.3195
   11MOL    C27 2247   4.697   2.854   6.787 -0.4995  0.6263 -0.0715
   11MOL    C28 2248   4.676   2.817   6.920 -0.2813  0.5555 -0.0453
   11MOL    C29 2249   4.783   2.832   7.012 -0.0763 -0.6567  0.0558
   11MOL    O30 2250   4.778   2.797   7.146 -0.4958  0.2281  0.4146
   11MOL    H31 2251   4.990   2.912   7.030  1.6458 -0.6246 -0.3123
   11MOL    H32 2252   5.028   2.965   6.804  1.2490 -1.4451  0.6539
   11MOL    H33 2253   4.615   2.841   6.719 -0.3055 -1.6749  0.0916
   11MOL    H34 2254   4.589   2.763   6.954  1.6045 -2.3473  0.3408
   11MOL    C35 2255   4.487   2.970   7.284  0.4793 -0.3494  0.0674
   11MOL    C36 2256   4.606   2.944   7.209  0.7055  0.5592  0.1382
   11MOL    C37 2257   4.666   2.818   7.214  0.0240 -0.0283  0.6088
   11MOL    C38 2258   4.621   2.722   7.303 -0.0278  0.1118 -0.5208
   11MOL    C39 2259   4.505   2.747   7.372 -0.2435  0.1193 -0.6605
   11MOL    C40 2260   4.431   2.863   7.360 -0.6796  0.6247  0.2248
   11MOL    O41 2261   4.315   2.877   7.426  0.5865  0.0281 -0.0504
   11MOL    H42 2262   4.432   3.063   7.279  2.4709  0.9040  1.1340
   11MOL    H43 2263   4.639   3.034   7.160  1.6049  0.4343  0.4908
   11MOL    H44 2264   4.676   2.630   7.317 -0.3308 -0.0679 -0.5143
   11MOL    H45 2265   4.459   2.662   7.421  0.5771  0.7027  1.1528
   11MOL    C46 2266   3.968   2.744   7.402 -0.5666  0.1655 -0.1078
   11MOL    C47 2267   4.093   2.791   7.456  0.0273  0.2368 -0.3066
   11MOL    C48 2268   4.204   2.816   7.369 -0.2180 -0.4649  0.5517
   11MOL    C49 2269   4.183   2.791   7.226 -0.0797 -1.1214 -0.1313
   11MOL    C50 2270   4.060   2.736   7.177  0.1389 -0.1323  0.0134
   11MOL    C51 2271   3.961   2.709   7.262 -0.7152  0.3008  0.0708
   11MOL    O52 2272   3.846   2.653   7.209 -0.3020  0.1195 -0.1167
   11MOL    H53 2273   3.885   2.732   7.470 -0.5531  2.3009  0.3316
   11MOL    H54 2274   4.109   2.824   7.558 -1.0919  1.6509 -0.5750
   11MOL    H55 2275   4.260   2.816   7.154  1.2316 -1.6533  1.0626
   11MOL    H56 2276   4.051   2.717   7.071  2.6166  0.3531 -0.2922
   11MOL    C57 2277   3.632   2.828   6.960 -0.1067 -0.2724 -0.3802
   11MOL    C58 2278   3.727   2.742   7.017 -0.2143  0.3616 -0.1832
   11MOL    C59 2279   3.750   2.734   7.157 -0.1216 -0.4042 -0.0162
   11MOL    C60 2280   3.661   2.809   7.236 -0.4310 -0.5399 -0.3423
   11MOL    C61 2281   3.567   2.900   7.181  0.4065  0.1324 -0.4762
   11MOL    C62 2282   3.550   2.914   7.037 -0.0950  0.4858 -0.1579
   11MOL    O63 2283   3.463   2.999   6.978 -0.7878  0.1223  0.4710
   11MOL    H64 2284   3.610   2.818   6.855 -1.0033 -1.6877 -0.0686
   11MOL    H65 2285   3.798   2.683   6.961 -0.8869 -2.3088  1.7039
   11MOL    H66 2286   3.663   2.812   7.344  0.0432 -0.3612 -0.3546
   11MOL    H67 2287   3.496   2.946   7.249  0.4246 -0.9536  0.2922
   11MOL    C68 2288   3.613   3.330   7.056 -0.7540  0.3239 -0.1539
   11MOL    C69 2289   3.608   3.191   7.029  0.3294  0.3975  0.0506
   11MOL    C70 2290   3.482   3.130   7.004 -0.6308  0.4262 -0.9097
   11MOL    C71 2291   3.367   3.212   7.008  0.3893 -0.3598  0.1667
   11MOL    C72 2292   3.375   3.348   7.040  0.7059  0.4401  1.2246
   11MOL    C73 2293   3.498   3.412   7.069 -0.7194  0.0461  1.0561
   11MOL    O74 2294   3.507   3.544   7.101  0.0270  0.1570  0.7373
   11MOL    H75 2295   3.711   3.374   7.075 -1.3552  1.9809 -0.7651
   11MOL    H76 2296   3.695   3.134   7.003  0.0767  0.1397 -0.2314
   11MOL    H77 2297   3.278   3.163   6.972  1.4635 -2.4580  0.2752
   11MOL    H78 2298   3.279   3.396   7.049 -1.3262 -3.1969 -0.0918
   11MOL    C79 2299   3.820   3.666   7.246  0.7102  0.2676  0.1042
   11MOL    C80 2300   3.714   3.629   7.157 -0.4429  0.0501  0.6122
   11MOL    C81 2301   3.592   3.575   7.199 -0.1988  0.1752 -0.0969
   11MOL    C82 2302   3.570   3.548   7.343  0.1346 -0.4768 -0.2925
   11MOL    C83 2303   3.671   3.581   7.429  0.5481 -0.0525  0.4274
   11MOL    C84 2304   3.796   3.639   7.380 -0.9475  0.2815  0.3270
   11MOL    O85 2305   3.902   3.646   7.470 -0.1889  0.2482  0.3601
   11MOL    H86 2306   3.908   3.722   7.219  0.3225 -0.1000 -1.9988
   11MOL    H87 2307   3.729   3.653   7.053  1.0198  1.1113  1.0427
   11MOL    H88 2308   3.484   3.488   7.369 -0.0072  0.2183  0.8624
   11MOL    H89 2309   3.670   3.553   7.533 -1.1194 -1.5956  0.0191
   11MOL    C90 2310   3.803   3.932   7.691  0.8966 -0.4490  0.1230
   11MOL    C91 2311   3.834   3.859   7.578  0.2922 -0.3288 -0.0838
   11MOL    C92 2312   3.878   3.720   7.585  0.4346  0.4946 -1.0528
   11MOL    C93 2313   3.889   3.658   7.709 -0.0396  0.4753  0.0505
   11MOL    C94 2314   3.868   3.744   7.824 -0.6426  0.6285  0.2539
   11MOL    C95 2315   3.823   3.880   7.818 -0.1072 -0.2350  0.3297
   11MOL    O96 2316   3.796   3.951   7.934  0.2187  0.5092  0.3407
   11MOL    H97 2317   3.774   4.036   7.687  2.8170  0.1063 -0.1491
   11MOL    H98 2318   3.824   3.912   7.485 -1.8650 -3.1292 -1.5301
   11MOL    H99 2319   3.917   3.554   7.710  0.2903  0.5610  1.5153
   11MOL   H100 2320   3.886   3.695   7.918  0.3163  1.1933  0.3775
   11MOL   C101 2321   3.648   4.302   7.888  0.1088  0.1215  0.1420
   11MOL   C102 2322   3.746   4.196   7.907 -0.9658  0.3743 -0.1503
   11MOL   C103 2323   3.713   4.058   7.931 -0.2836 -0.5546  0.2739
   11MOL   C104 2324   3.579   4.035   7.963 -0.6134  0.0311 -0.4977
   11MOL   C105 2325   3.477   4.134   7.943  0.2023  0.6117  0.4058
   11MOL   C106 2326   3.512   4.263   7.900  0.2333  0.7641  0.2528
   11MOL   O107 2327   3.410   4.359   7.897  0.5901 -0.1280  0.3394
   11MOL   H108 2328   3.677   4.405   7.875  0.3589  0.0965  0.4988
   11MOL   H109 2329   3.849   4.218   7.886 -0.7933  0.8353  1.1167
   11MOL   H110 2330   3.545   3.936   7.989  2.6449 -1.9550 -3.3422
   11MOL   H111 2331   3.375   4.120   7.975 -0.5710  2.2615 -1.2429
   11MOL   C112 2332   3.160   4.317   7.626  0.0974  0.1361 -0.6334
   11MOL   C113 2333   3.222   4.305   7.754 -0.3056  0.1693  1.2734
   11MOL   C114 2334   3.344   4.376   7.781  0.4651  0.3957  0.4136
   11MOL   C115 2335   3.394   4.465   7.681  0.7147  0.6075 -0.7788
   11MOL   C116 2336   3.327   4.476   7.558 -0.4984 -0.1581 -0.4259
   11MOL   C117 2337   3.215   4.393   7.525 -0.7903 -0.1273 -0.0086
   11MOL   O118 2338   3.157   4.403   7.403  0.8053  0.4600 -0.1839
   11MOL   H119 2339   3.075   4.256   7.601  0.4305 -0.6010  0.0277
   11MOL   H120 2340   3.179   4.246   7.834 -1.7053  0.7269  0.9413
   11MOL   H121 2341   3.489   4.508   7.708  1.4265 -0.8929 -0.8304
   11MOL   H122 2342   3.376   4.544   7.490 -0.1554  0.0068 -0.0159
   11MOL   C123 2343   3.122   4.187   7.103  0.0200  0.1399 -0.2422
   11MOL   C124 2344   3.090   4.270   7.217  0.6003 -0.3408 -0.1503
   11MOL   C125 2345   3.189   4.312   7.303 -0.2525 -0.3665 -1.0445
   11MOL   C126 2346   3.325   4.276   7.278 -0.1307 -0.1147  0.2884
   11MOL   C127 2347   3.355   4.197   7.168 -0.6118  0.3813  0.7744
   11MOL   C128 2348   3.251   4.152   7.075  0.3131 -1.0542  0.3566
   11MOL   O129 2349   3.285   4.078   6.964 -0.3577  0.1409 -0.2006
   11MOL   H130 2350   3.047   4.156   7.032  1.1240 -2.1266 -0.4481
   11MOL   H131 2351   2.986   4.296   7.234  0.6172  0.1724 -0.7914
   11MOL   H132 2352   3.408   4.314   7.335  0.0273  0.3119 -0.2299
   11MOL   H133 2353   3.456   4.174   7.139 -0.3220  0.3643  1.7818
   11MOL   C134 2354   3.327   4.306   6.662  0.0007  0.0299  0.3640
   11MOL   C135 2355   3.343   4.253   6.791  0.7306  0.8322  0.2325
   11MOL   C136 2356   3.283   4.132   6.837 -0.1764 -0.2648  0.3174
   11MOL   C137 2357   3.216   4.055   6.740 -0.4762  0.3183 -0.4017
   11MOL   C138 2358   3.178   4.111   6.616 -0.1111  0.1392 -0.2615
   11MOL   C139 2359   3.235   4.238   6.576  0.3038  0.1878  0.0686
   11MOL   O140 2360   3.229   4.278   6.448  0.1202 -0.0257  0.1404
   11MOL   H141 2361   3.381   4.395   6.635  1.8788 -1.6710 -1.6386
   11MOL   H142 2362   3.402   4.309   6.862 -0.1790  0.3971  1.3624
   11MOL   H143 2363   3.174   3.958   6.759 -2.5079  1.5496  1.6681
   11MOL   H144 2364   3.121   4.047   6.550  0.1649 -0.5611  0.1695
   11MOL   C145 2365   2.955   4.516   6.405 -0.0332 -0.5912  0.1345
   11MOL   C146 2366   3.068   4.458   6.461 -0.4343  0.7049 -0.7837
   11MOL   C147 2367   3.116   4.343   6.403 -0.3328  0.2488 -0.0169
   11MOL   C148 2368   3.053   4.283   6.297 -0.1188 -0.0499 -0.0598
   11MOL   C149 2369   2.927   4.326   6.251 -1.0815 -0.1442  0.0718
   11MOL   C150 2370   2.885   4.452   6.304  0.1009  0.0968  0.5304
   11MOL   O151 2371   2.772   4.509   6.255  0.4045  0.4289  0.0873
   11MOL   H152 2372   2.909   4.605   6.446  1.1314  0.0830 -0.0206
   11MOL   H153 2373   3.123   4.506   6.541 -0.4460  1.8456 -1.4533
   11MOL   H154 2374   3.086   4.184   6.268 -1.7515 -0.4552 -0.5779
   11MOL   H155 2375   2.881   4.279   6.166  1.1616 -0.8067 -0.7977
   11MOL   C156 2376   2.678   4.691   5.961 -0.0557 -0.2114 -0.8332
   11MOL   C157 2377   2.686   4.584   6.057  0.3439  0.0979  0.4212
   11MOL   C158 2378   2.791   4.592   6.150  0.6700 -0.2282 -0.0294
   11MOL   C159 2379   2.888   4.691   6.144  0.3614 -0.2854 -0.3665
   11MOL   C160 2380   2.885   4.793   6.048 -0.5498 -0.3695 -0.3544
   11MOL   C161 2381   2.778   4.789   5.951  0.6856 -0.0469 -0.2463
   11MOL   O162 2382   2.749   4.896   5.868 -0.5671  0.3464  0.0646
   11MOL   H163 2383   2.597   4.682   5.890  0.5789 -0.8542 -1.4706
   11MOL   H164 2384   2.608   4.510   6.051 -0.0858  0.7346 -2.6048
   11MOL   H165 2385   2.967   4.698   6.218  0.8516  1.2793 -1.0011
   11MOL   H166 2386   2.967   4.862   6.037 -1.1235  0.6644  1.5651
   11MOL   C167 2387   2.786   4.879   5.495  0.4477  0.0948  0.2521
   11MOL   C168 2388   2.726   4.864   5.626  0.3816 -0.3244  0.1902
   11MOL   C169 2389   2.802   4.898   5.746  0.1806  0.0704  0.2601
   11MOL   C170 2390   2.932   4.949   5.737 -0.4424  0.4050 -0.1674
   11MOL   C171 2391   2.992   4.963   5.611 -0.0457 -0.9334  0.2214
   11MOL   C172 2392   2.918   4.934   5.490 -0.0361 -0.0099  0.3861
   11MOL   O173 2393   2.978   4.949   5.368  0.1116  0.2091 -0.0029
   11MOL   H174 2394   2.731   4.857   5.405  1.4442  0.6519 -0.5131
   11MOL   H175 2395   2.623   4.833   5.629  0.0406  0.9632  2.3484
   11MOL   H176 2396   2.982   4.977   5.829 -1.0416  0.6422  0.0884
   11MOL   H177 2397   3.095   4.995   5.602 -0.0203 -1.2632 -0.6890
   11MOL   C178 2398   3.059   5.289   5.231  0.0635 -0.1558 -0.1309
   11MOL   C179 2399   3.078   5.159   5.292  0.5972  0.0851 -0.1850
   11MOL   C180 2400   2.966   5.076   5.310 -0.0929 -0.9593  0.7887
   11MOL   C181 2401   2.839   5.130   5.282  0.6148  0.8762  0.2436
   11MOL   C182 2402   2.820   5.267   5.248 -0.3192 -1.1455 -0.2271
   11MOL   C183 2403   2.934   5.343   5.208 -0.4159  0.3474  0.3010
   11MOL   O184 2404   2.925   5.462   5.143 -0.6262 -0.2402 -0.2121
   11MOL   H185 2405   3.145   5.344   5.196 -0.9335  1.7938  0.4188
   11MOL   H186 2406   3.174   5.112   5.309  0.2145 -1.1431 -1.3145
   11MOL   H187 2407   2.748   5.072   5.284 -0.5021  2.5634 -0.1241
   11MOL   H188 2408   2.724   5.315   5.241  0.3333  0.0148 -1.3001
   11MOL   C189 2409   2.678   5.711   5.254  0.3236 -0.6065  0.0695
   11MOL   C190 2410   2.795   5.627   5.255 -0.2798 -0.0953 -0.1698
   11MOL   C191 2411   2.812   5.540   5.144  0.3022 -0.0915  0.2421
   11MOL   C192 2412   2.722   5.532   5.036  0.6123 -0.1317 -0.4486
   11MOL   C193 2413   2.607   5.608   5.043 -0.0940 -0.9646 -0.7900
   11MOL   C194 2414   2.583   5.699   5.152 -0.1531 -0.0898 -0.1599
   11MOL   O195 2415   2.470   5.776   5.157 -0.2399 -0.1143 -0.2033
   11MOL   H196 2416   2.669   5.777   5.340  3.7816  0.6743 -0.4711
   11MOL   H197 2417   2.881   5.640   5.318  0.6614 -2.4543 -0.9068
   11MOL   H198 2418   2.732   5.454   4.962  2.4896 -1.1708  0.8287
   11MOL   H199 2419   2.534   5.603   4.964 -1.0866  0.2064  0.0390
   11MOL   C200 2420   2.137   5.628   5.096 -0.3463  0.2122 -0.3911
   11MOL   C201 2421   2.249   5.707   5.073 -0.0071 -0.5244 -0.8223
   11MOL   C202 2422   2.355   5.706   5.173  0.4277  0.0573 -0.1147
   11MOL   C203 2423   2.330   5.646   5.295  0.3492  0.4291  0.2352
   11MOL   C204 2424   2.213   5.574   5.325 -0.5957 -0.0701 -0.3711
   11MOL   C205 2425   2.118   5.558   5.221 -1.1120 -0.1846 -0.8506
   11MOL   O206 2426   2.004   5.484   5.244 -0.2652 -0.8419  0.1435
   11MOL   H207 2427   2.061   5.620   5.019  0.0812 -0.8014 -0.7188
   11MOL   H208 2428   2.273   5.771   4.989  0.6837 -0.2797 -0.4418
   11MOL   H209 2429   2.408   5.651   5.370  1.0246  0.0885 -0.4341
   11MOL   H210 2430   2.186   5.551   5.427  1.0889  1.6814  0.5053
   11MOL   C211 2431   2.085   5.118   5.270 -0.0843 -1.1963 -0.5150
   11MOL   C212 2432   2.057   5.251   5.304  0.3984  0.0853  0.7796
   11MOL   C213 2433   2.020   5.351   5.211  0.2696  0.3747  0.2450
   11MOL   C214 2434   2.018   5.305   5.073  0.1311 -0.5956 -0.4651
   11MOL   C215 2435   2.036   5.170   5.032 -0.3384  0.1269  0.7172
   11MOL   C216 2436   2.060   5.075   5.136  0.3203 -0.7519 -0.3249
   11MOL   O217 2437   2.060   4.945   5.102  0.0839  0.4054  0.1639
   11MOL   H218 2438   2.127   5.055   5.347 -1.5212 -1.9860 -0.3735
   11MOL   H219 2439   2.075   5.281   5.406 -0.2157  3.3238 -0.0181
   11MOL   H220 2440   2.009   5.376   4.992  1.0493 -1.1911 -1.1007
   11MOL   H221 2441   2.024   5.143   4.928  0.6564  1.1080  0.3495
   11MOL   H222 2442   2.085   4.894   5.178  1.1024 -0.3789 -0.6700
   12MOL     C1 2443   2.186   7.599   6.282 -0.2330 -0.1734  0.0144
   12MOL     C2 2444   2.252   7.715   6.235 -0.2937  0.3619 -0.0988
   12MOL     C3 2445   2.256   7.735   6.099  0.1660 -0.2203 -0.0519
   12MOL     C4 2446   2.182   7.649   6.010 -0.0172 -1.1515 -0.1136
   12MOL     C5 2447   2.125   7.530   6.059 -0.1380  0.4448 -0.0226
   12MOL     C6 2448   2.132   7.505   6.195  0.0642 -0.5095 -0.4979
   12MOL     O7 2449   2.096   7.385   6.237  0.2522  0.5978 -0.3702
   12MOL     H8 2450   2.204   7.568   6.384 -0.7507  0.8047  0.4110
   12MOL     H9 2451   2.300   7.786   6.300 -2.5560  0.0964  1.9139
   12MOL    H10 2452   2.190   7.671   5.905  3.0465 -1.5783 -0.0090
   12MOL    H11 2453   2.096   7.455   5.987 -0.0611 -0.7776  1.2016
   12MOL    H12 2454   2.307   7.820   6.056 -0.6600 -0.1619 -0.9051
   12MOL    C13 2455   2.336   7.115   6.146  0.2881 -0.3594 -0.0611
   12MOL    C14 2456   2.283   7.242   6.171 -0.5363 -0.0728 -0.4157
   12MOL    C15 2457   2.152   7.261   6.211 -0.3940  0.3470  0.0013
   12MOL    C16 2458   2.076   7.145   6.242 -0.2770  0.2046  0.1535
   12MOL    C17 2459   2.135   7.016   6.221  0.4924  0.0516  0.5881
   12MOL    C18 2460   2.267   7.000   6.171  0.4236  1.4740  0.0817
   12MOL    O19 2461   2.323   6.876   6.142  0.3317 -0.3776 -0.3680
   12MOL    H20 2462   2.434   7.101   6.102 -0.7482 -3.3398 -1.5147
   12MOL    H21 2463   2.351   7.322   6.143  1.0847 -0.7687  1.4033
   12MOL    H22 2464   1.973   7.158   6.272 -0.7642  0.3683 -1.5689
   12MOL    H23 2465   2.077   6.929   6.247  0.5684  0.1989  1.2624
   12MOL    C24 2466   2.214   6.583   6.336  0.6709  0.4239 -0.1276
   12MOL    C25 2467   2.239   6.662   6.227  0.2839 -0.9233  0.4188
   12MOL    C26 2468   2.319   6.779   6.240 -0.3710  0.0946  0.3046
   12MOL    C27 2469   2.389   6.798   6.352 -0.4434 -0.2979 -0.9702
   12MOL    C28 2470   2.387   6.706   6.462 -0.1738 -0.1165  0.3139
   12MOL    C29 2471   2.295   6.600   6.453  0.9578 -0.0723 -0.2824
   12MOL    O30 2472   2.273   6.507   6.551  0.0399 -0.1056 -0.3721
   12MOL    H31 2473   2.138   6.506   6.339 -1.6896  2.6481  0.1513
   12MOL    H32 2474   2.181   6.642   6.138  1.0725 -2.8009  0.3081
   12MOL    H33 2475   2.453   6.885   6.352 -0.8412  0.0294 -3.9593
   12MOL    H34 2476   2.447   6.733   6.548  1.3858  1.7466 -1.3229
   12MOL    C35 2477   2.580   6.278   6.544 -0.1041 -0.2490 -0.4141
   12MOL    C36 2478   2.462   6.348   6.496 -0.3296  0.3102  0.1365
   12MOL    C37 2479   2.385   6.437   6.587  0.4574 -0.3571 -0.3825
   12MOL    C38 2480   2.433   6.455   6.719 -1.1901  0.2716 -0.3558
   12MOL    C39 2481   2.548   6.390   6.764 -0.7817 -0.2497 -0.0154
   12MOL    C40 2482   2.614   6.297   6.681  0.7665  0.6964 -0.2986
   12MOL    O41 2483   2.718   6.231   6.732  0.1402  0.2729  1.0981
   12MOL    H42 2484   2.636   6.220   6.472  0.0356 -0.1441 -0.3902
   12MOL    H43 2485   2.427   6.316   6.399  2.2177 -3.5689  0.3586
   12MOL    H44 2486   2.378   6.514   6.790  1.0590  1.1628  0.7050
   12MOL    H45 2487   2.585   6.406   6.864 -1.0763  0.3391  0.0016
   12MOL    C46 2488   2.570   5.919   6.864 -0.0649 -0.9093 -0.3887
   12MOL    C47 2489   2.597   6.028   6.776 -0.0079  0.3216  0.1808
   12MOL    C48 2490   2.689   6.127   6.818  0.5516  0.1742  1.0767
   12MOL    C49 2491   2.754   6.120   6.946 -0.0907  0.5159 -0.0921
   12MOL    C50 2492   2.732   6.004   7.017  0.1884  0.3261  1.1868
   12MOL    C51 2493   2.639   5.907   6.985 -0.0886  0.2206  0.4415
   12MOL    O52 2494   2.619   5.807   7.068 -0.6157  0.3768 -0.2082
   12MOL    H53 2495   2.492   5.848   6.840  0.5577 -0.3875 -4.2220
   12MOL    H54 2496   2.564   6.027   6.673 -1.1345  1.5386  0.5109
   12MOL    H55 2497   2.816   6.200   6.983 -0.8102  0.4483  1.2967
   12MOL    H56 2498   2.782   5.992   7.112 -0.9041 -0.5955  1.6531
   12MOL    C57 2499   2.334   5.896   7.278  0.3424 -0.8018 -0.1079
   12MOL    C58 2500   2.449   5.912   7.196 -0.5115  0.0422  0.0858
   12MOL    C59 2501   2.503   5.799   7.134  0.3205  0.1607 -0.0717
   12MOL    C60 2502   2.448   5.669   7.161  0.3269  0.0829  0.2463
   12MOL    C61 2503   2.323   5.662   7.242 -0.6708  0.6855 -0.0572
   12MOL    C62 2504   2.270   5.776   7.297  0.5210  0.0226  0.0966
   12MOL    O63 2505   2.155   5.774   7.374 -0.4194  0.3519  1.0025
   12MOL    H64 2506   2.281   5.973   7.333  0.2814 -1.1499  0.3289
   12MOL    H65 2507   2.491   6.008   7.168  1.0480 -0.9685 -1.1654
   12MOL    H66 2508   2.503   5.590   7.112  1.8087  1.7967 -0.8897
   12MOL    H67 2509   2.273   5.569   7.269 -1.7366  1.4982  0.8541
   12MOL    C68 2510   1.878   5.531   7.365 -0.4791  0.5587 -0.4740
   12MOL    C69 2511   1.999   5.596   7.398  0.2941  0.4961 -0.4623
   12MOL    C70 2512   2.045   5.707   7.330 -0.2781  0.1074  0.1546
   12MOL    C71 2513   1.983   5.746   7.208 -0.5412  0.4341  0.4193
   12MOL    C72 2514   1.861   5.689   7.170  0.4646  0.3936  0.2327
   12MOL    C73 2515   1.808   5.587   7.254  0.0677  0.0265 -0.3469
   12MOL    O74 2516   1.683   5.542   7.211 -0.0722 -0.4033 -0.8534
   12MOL    H75 2517   1.846   5.444   7.422 -0.3660  0.0721 -1.1429
   12MOL    H76 2518   2.062   5.569   7.482 -0.7444  3.0109  1.1956
   12MOL    H77 2519   2.021   5.829   7.150 -2.1760 -0.3488 -1.8277
   12MOL    H78 2520   1.798   5.738   7.097  0.8546  1.8672  0.8620
   12MOL    C79 2521   1.554   5.246   7.390  0.2372  0.7084 -0.1523
   12MOL    C80 2522   1.638   5.326   7.308  0.4184 -0.9771 -0.0829
   12MOL    C81 2523   1.606   5.463   7.287  0.3378  0.3388 -0.0026
   12MOL    C82 2524   1.488   5.518   7.341  0.2465 -0.0244  0.0186
   12MOL    C83 2525   1.409   5.438   7.428  0.5182 -0.1825  0.3207
   12MOL    C84 2526   1.443   5.300   7.452 -0.4596 -0.6117  0.4182
   12MOL    O85 2527   1.366   5.227   7.538  0.2290  0.0850  0.4328
   12MOL    H86 2528   1.581   5.142   7.401 -0.8687  0.4228 -0.1252
   12MOL    H87 2529   1.732   5.291   7.268  2.4040  3.3721  0.5417
   12MOL    H88 2530   1.454   5.619   7.327  0.1862 -0.1404 -0.6626
   12MOL    H89 2531   1.316   5.465   7.475  0.5077  0.4468 -0.0579
   12MOL    C90 2532   1.024   5.101   7.482 -0.0117  0.5279  0.0212
   12MOL    C91 2533   1.136   5.181   7.524  0.5352  0.1717  0.4795
   12MOL    C92 2534   1.263   5.149   7.485 -0.4265  1.0440  0.1182
   12MOL    C93 2535   1.297   5.027   7.421 -0.4333 -0.1040 -0.5298
   12MOL    C94 2536   1.191   4.951   7.377 -0.1427  0.4064  0.4580
   12MOL    C95 2537   1.057   4.984   7.405  0.2074  0.0086  0.9432
   12MOL    O96 2538   0.956   4.902   7.368 -0.1498 -0.2143 -0.1823
   12MOL    H97 2539   0.923   5.129   7.508  0.2987  0.0104  1.8525
   12MOL    H98 2540   1.127   5.263   7.594 -0.5293  0.1816  0.3512
   12MOL    H99 2541   1.397   5.007   7.388 -0.1845  0.4327 -0.1053
   12MOL   H100 2542   1.207   4.855   7.328 -1.9125 -0.3718  1.3459
   12MOL   C101 2543   0.901   4.824   7.015  0.0169  0.2246  0.1527
   12MOL   C102 2544   0.939   4.810   7.145 -0.8042  0.1950 -0.4489
   12MOL   C103 2545   0.913   4.912   7.241  0.2351 -0.0764 -0.0461
   12MOL   C104 2546   0.847   5.026   7.205  0.3754 -0.1365 -0.1686
   12MOL   C105 2547   0.791   5.035   7.078  0.4572  0.7171  0.8998
   12MOL   C106 2548   0.815   4.935   6.979 -0.4565  0.3272 -0.0082
   12MOL   O107 2549   0.756   4.936   6.855  0.1953  0.1969 -0.0290
   12MOL   H108 2550   0.925   4.751   6.939 -1.0596 -0.5609  0.5593
   12MOL   H109 2551   0.987   4.719   7.178  1.1420  0.5406 -2.2334
   12MOL   H110 2552   0.836   5.112   7.270 -0.3887 -0.6635  0.4034
   12MOL   H111 2553   0.736   5.125   7.058 -0.8027 -0.2263 -0.0148
   12MOL   C112 2554   0.449   4.736   6.860 -0.5620  0.1155  0.1923
   12MOL   C113 2555   0.575   4.784   6.894  0.1563 -0.1691 -0.0219
   12MOL   C114 2556   0.632   4.886   6.825  0.4466 -0.1595 -0.1453
   12MOL   C115 2557   0.568   4.937   6.713  0.9324  0.5483  0.0796
   12MOL   C116 2558   0.436   4.895   6.678 -0.1183 -0.1128 -0.3239
   12MOL   C117 2559   0.372   4.792   6.751 -0.5814  0.3466  0.4682
   12MOL   O118 2560   0.251   4.733   6.714 -0.3745  0.2472  0.5047
   12MOL   H119 2561   0.416   4.648   6.913 -0.0922 -0.7930 -1.0002
   12MOL   H120 2562   0.625   4.742   6.980  0.4649 -0.4490 -0.3345
   12MOL   H121 2563   0.602   5.025   6.661 -0.3597  1.1192  0.1928
   12MOL   H122 2564   0.385   4.942   6.595  0.4945 -0.2234 -0.7605
   12MOL   C123 2565   8.204   4.897   6.580 -0.4381 -0.0698  1.0216
   12MOL   C124 2566   0.069   4.822   6.584  0.5613 -0.0095 -0.5155
   12MOL   C125 2567   0.136   4.817   6.705  0.2301  0.7765 -0.2818
   12MOL   C126 2568   0.083   4.880   6.818 -0.9072 -0.3438  0.0212
   12MOL   C127 2569   8.224   4.961   6.810 -0.4631 -0.3866 -1.0201
   12MOL   C128 2570   8.155   4.967   6.691 -0.0166 -0.0300  0.5306
   12MOL   O129 2571   8.053   5.053   6.665 -0.1709  0.0047  0.5385
   12MOL   H130 2572   8.147   4.903   6.489  0.8357  0.6706  0.2684
   12MOL   H131 2573   0.096   4.769   6.494 -0.2340 -0.0460 -0.7338
   12MOL   H132 2574   0.138   4.871   6.911  0.1719  1.9149 -0.3642
   12MOL   H133 2575   8.192   5.018   6.896  0.7510 -1.5056  0.1984
   12MOL   C134 2576   7.813   5.164   6.911 -0.4218 -0.3778  0.3587
   12MOL   C135 2577   7.869   5.080   6.816 -0.0784 -0.1014  0.8478
   12MOL   C136 2578   7.991   5.122   6.763  0.1802 -0.2112  0.2946
   12MOL   C137 2579   8.058   5.234   6.819 -0.3508 -0.5941  0.5445
   12MOL   C138 2580   8.007   5.313   6.920 -0.0668 -0.1053  0.1711
   12MOL   C139 2581   7.878   5.276   6.964  0.0516 -0.7353  0.4746
   12MOL   O140 2582   7.826   5.334   7.075 -0.0908  0.3992  0.2517
   12MOL   H141 2583   7.713   5.142   6.946  0.0082 -1.7328  0.7525
   12MOL   H142 2584   7.819   4.991   6.780  2.4644 -1.0692 -0.4213
   12MOL   H143 2585   8.156   5.254   6.779 -1.1459  0.7999 -0.7390
   12MOL   H144 2586   8.060   5.394   6.967 -0.0365 -1.1819  2.0550
   12MOL   C145 2587   7.585   5.595   6.959 -0.3463  0.5298  0.0893
   12MOL   C146 2588   7.695   5.507   6.962  0.0534  0.5744  0.1342
   12MOL   C147 2589   7.715   5.414   7.060 -0.6853  0.0121 -0.6267
   12MOL   C148 2590   7.612   5.405   7.156  0.9181 -0.2884  0.1335
   12MOL   C149 2591   7.497   5.488   7.154  0.6381  0.0141 -0.6271
   12MOL   C150 2592   7.483   5.582   7.054 -0.2326 -0.5029 -0.5146
   12MOL   O151 2593   7.371   5.654   7.041  0.4960 -0.0699  0.0690
   12MOL   H152 2594   7.578   5.668   6.879  0.3751  2.7623  1.9919
   12MOL   H153 2595   7.768   5.518   6.883 -1.0462 -2.4180 -1.3968
   12MOL   H154 2596   7.639   5.345   7.242 -0.0565  0.1856  0.7812
   12MOL   H155 2597   7.428   5.486   7.237  0.5731  1.2155 -0.6438
   12MOL   C156 2598   7.442   5.981   7.198  0.1549 -0.0843 -0.6227
   12MOL   C157 2599   7.471   5.846   7.152 -0.2872 -0.3462  0.2122
   12MOL   C158 2600   7.362   5.777   7.089 -0.2334 -0.5865  0.1429
   12MOL   C159 2601   7.237   5.835   7.075 -0.1227  0.6563 -0.3677
   12MOL   C160 2602   7.210   5.968   7.122 -0.5032  0.1256 -0.0107
   12MOL   C161 2603   7.317   6.039   7.180  0.3467 -0.6819  0.1325
   12MOL   O162 2604   7.292   6.167   7.220  0.3262  0.0307 -0.3545
   12MOL   H163 2605   7.513   6.041   7.252 -1.7289  0.5484  1.2384
   12MOL   H164 2606   7.564   5.800   7.180 -0.4730 -0.5680  0.4733
   12MOL   H165 2607   7.167   5.778   7.016  0.0628  1.0532 -0.9693
   12MOL   H166 2608   7.114   6.017   7.128 -0.6609 -0.3920  2.0112
   12MOL   C167 2609   7.219   6.144   7.575 -0.2768  0.1205 -0.3183
   12MOL   C168 2610   7.226   6.110   7.444 -0.5651  0.5604  0.3313
   12MOL   C169 2611   7.287   6.197   7.349 -0.3075 -0.2819 -0.9441
   12MOL   C170 2612   7.342   6.322   7.392  0.9420 -0.2165 -0.1464
   12MOL   C171 2613   7.330   6.355   7.533 -1.1588  0.1734  0.3044
   12MOL   C172 2614   7.263   6.269   7.621  0.4273  0.6722 -0.0541
   12MOL   O173 2615   7.254   6.299   7.750  0.1418  0.1184  0.1400
   12MOL   H174 2616   7.166   6.071   7.635  0.6794 -1.8283 -1.8244
   12MOL   H175 2617   7.177   6.023   7.404  0.7819  0.0973 -0.3410
   12MOL   H176 2618   7.387   6.394   7.326 -1.8064  1.8363  0.1352
   12MOL   H177 2619   7.380   6.444   7.566  0.4646 -0.8932  0.7266
   12MOL   C178 2620   6.952   6.474   7.866  0.0691  0.2865 -0.1816
   12MOL   C179 2621   7.032   6.367   7.821  0.0836 -0.1258  0.4095
   12MOL   C180 2622   7.164   6.401   7.784 -0.7247 -0.2040  0.3343
   12MOL   C181 2623   7.208   6.532   7.781  0.0492 -0.2053 -0.2794
   12MOL   C182 2624   7.133   6.636   7.841 -0.5676  0.3921  0.1337
   12MOL   C183 2625   7.001   6.606   7.882 -0.3064  0.4141 -0.6842
   12MOL   O184 2626   6.934   6.698   7.953  0.5798  0.0449 -0.0937
   12MOL   H185 2627   6.854   6.443   7.897 -0.3316  1.1440 -0.5662
   12MOL   H186 2628   7.000   6.264   7.816 -0.5956  0.0029  1.6505
   12MOL   H187 2629   7.310   6.548   7.750  0.4373  1.0926  1.6159
   12MOL   H188 2630   7.176   6.733   7.862 -2.4445  1.0977  0.8204
   12MOL   C189 2631   6.588   6.830   7.995  0.0337 -0.4148  0.0312
   12MOL   C190 2632   6.718   6.773   8.022  0.1149  0.0190 -0.0161
   12MOL   C191 2633   6.804   6.734   7.920  0.3136  0.6829 -0.2379
   12MOL   C192 2634   6.762   6.744   7.783  0.4347 -0.1037 -0.0221
   12MOL   C193 2635   6.631   6.792   7.754 -0.3212  0.6480  0.3000
   12MOL   C194 2636   6.551   6.837   7.858 -0.3716 -0.2060 -0.0447
   12MOL   O195 2637   6.426   6.894   7.828 -0.0282 -0.3599 -0.1866
   12MOL   H196 2638   6.532   6.874   8.077  0.9218 -2.4174  1.7508
   12MOL   H197 2639   6.741   6.767   8.127 -0.2501 -2.4525 -0.0600
   12MOL   H198 2640   6.827   6.716   7.701 -1.2762 -0.6896 -1.2050
   12MOL   H199 2641   6.594   6.800   7.653 -0.0186  2.1978  0.2921
   12MOL   C200 2642   6.112   6.713   7.913 -0.4264  0.4298 -0.8335
   12MOL   C201 2643   6.224   6.807   7.918  0.8223 -0.8264 -0.3200
   12MOL   C202 2644   6.320   6.809   7.816 -0.2789 -0.2788  0.0737
   12MOL   C203 2645   6.295   6.735   7.701  0.0554 -0.1023  0.6908
   12MOL   C204 2646   6.186   6.645   7.691 -0.2504  0.4877  0.2993
   12MOL   C205 2647   6.097   6.627   7.798  0.1823 -0.9925 -0.2294
   12MOL   O206 2648   5.993   6.530   7.799  0.2841  0.2448  0.4759
   12MOL   H207 2649   6.049   6.696   7.999 -0.2982 -0.3330 -0.8833
   12MOL   H208 2650   6.249   6.855   8.012 -0.5434 -1.1156  0.1993
   12MOL   H209 2651   6.368   6.742   7.622  1.4342 -0.2366  1.9357
   12MOL   H210 2652   6.176   6.578   7.607 -3.1822  0.2931  0.7419
   12MOL   C211 2653   5.986   6.289   8.081 -0.1593 -0.2651 -0.1865
   12MOL   C212 2654   5.967   6.404   8.003 -0.1340  0.2133 -1.0465
   12MOL   C213 2655   6.017   6.413   7.869 -0.2011 -0.2740  0.1937
   12MOL   C214 2656   6.071   6.299   7.809  1.1045 -0.4901 -0.4983
   12MOL   C215 2657   6.093   6.181   7.886  0.1293 -0.3418  0.0794
   12MOL   C216 2658   6.056   6.181   8.023  0.2307  0.8768  0.3578
   12MOL   O217 2659   6.086   6.075   8.099  0.1399 -0.0482 -0.2762
   12MOL   H218 2660   5.956   6.292   8.185 -1.6033  2.3380 -0.6289
   12MOL   H219 2661   5.933   6.497   8.045 -0.1950  0.3172 -1.3250
   12MOL   H220 2662   6.097   6.301   7.704 -2.4112 -0.4829 -1.4075
   12MOL   H221 2663   6.150   6.099   7.845 -1.9853 -2.6271  1.5706
   12MOL   H222 2664   6.124   6.006   8.047 -1.2911 -1.3494  0.3484
   13MOL     C1 2665   5.057   5.949   1.267  0.4302 -0.0991  0.5779
   13MOL     C2 2666   4.975   5.845   1.308  0.0640  0.1748  0.0550
   13MOL     C3 2667   4.928   5.743   1.216  0.5093 -0.4421 -0.1162
   13MOL     C4 2668   4.969   5.758   1.084  0.5492  0.3950  0.2693
   13MOL     C5 2669   5.053   5.868   1.041  0.3261  0.3687  0.0457
   13MOL     C6 2670   5.095   5.964   1.131  0.1997  0.0701 -0.5011
   13MOL     O7 2671   5.178   6.068   1.094  0.0065 -0.8056  0.0190
   13MOL     H8 2672   5.081   6.022   1.342 -0.9250  1.3062 -0.3343
   13MOL     H9 2673   4.935   5.847   1.409  0.9864 -1.6180  0.4749
   13MOL    H10 2674   4.946   5.691   1.003  1.1690  1.3762 -0.7465
   13MOL    H11 2675   5.076   5.858   0.936  0.8398 -0.0599  0.2009
   13MOL    H12 2676   4.865   5.661   1.247  0.9472 -0.4972  0.6464
   13MOL    C13 2677   5.105   6.428   1.160  0.6386 -0.0354  0.1817
   13MOL    C14 2678   5.173   6.303   1.156 -0.2712  0.5322 -0.5225
   13MOL    C15 2679   5.119   6.194   1.088 -0.3895 -0.0961  0.2552
   13MOL    C16 2680   5.009   6.220   1.002  0.4691  0.2311  0.2459
   13MOL    C17 2681   4.955   6.346   0.982 -0.0634  0.2799  0.3204
   13MOL    C18 2682   4.997   6.447   1.067  0.3534  0.3156  0.0303
   13MOL    O19 2683   4.916   6.561   1.058 -0.6021  0.3132 -0.8120
   13MOL    H20 2684   5.141   6.516   1.213  1.2190  0.7087 -1.4106
   13MOL    H21 2685   5.264   6.303   1.215  0.2831  2.1419 -1.3474
   13MOL    H22 2686   4.968   6.148   0.933 -1.0156  2.0683 -0.8512
   13MOL    H23 2687   4.877   6.373   0.913 -1.5773 -0.2410  1.8042
   13MOL    C24 2688   5.051   6.897   1.073  0.1967 -0.0333 -0.2199
   13MOL    C25 2689   4.984   6.780   1.110  0.1227 -0.1271 -0.3571
   13MOL    C26 2690   4.993   6.670   1.026  0.2421  0.4910 -0.4226
   13MOL    C27 2691   5.071   6.680   0.910  0.4078 -0.8487  0.4811
   13MOL    C28 2692   5.156   6.789   0.888  0.4915  0.2937 -0.3185
   13MOL    C29 2693   5.138   6.910   0.964 -0.7200  0.0610 -0.2179
   13MOL    O30 2694   5.202   7.024   0.919 -0.3076 -0.3293 -0.6540
   13MOL    H31 2695   5.041   6.981   1.141  0.6239  0.2410 -0.4979
   13MOL    H32 2696   4.921   6.774   1.197  1.2716  0.8689  0.5634
   13MOL    H33 2697   5.080   6.594   0.845  0.5674  0.6843 -1.5665
   13MOL    H34 2698   5.231   6.791   0.811 -0.3355  0.2415 -1.1320
   13MOL    C35 2699   5.490   7.034   1.157  0.5596 -0.5457 -0.1228
   13MOL    C36 2700   5.393   6.986   1.064 -0.9651 -0.5437  0.1886
   13MOL    C37 2701   5.303   7.076   1.005 -0.6519  0.1303 -0.6874
   13MOL    C38 2702   5.304   7.215   1.039  0.0633 -0.1992 -0.1142
   13MOL    C39 2703   5.385   7.260   1.145  0.0271 -0.0519 -0.5838
   13MOL    C40 2704   5.478   7.171   1.202 -0.9490 -0.5382 -0.4400
   13MOL    O41 2705   5.558   7.224   1.301 -0.4589  0.2992  0.3029
   13MOL    H42 2706   5.552   6.959   1.203 -0.7260 -0.5234  1.7075
   13MOL    H43 2707   5.387   6.880   1.043 -2.2106 -0.4534  0.0377
   13MOL    H44 2708   5.234   7.280   0.988  0.8250  0.3462 -0.4812
   13MOL    H45 2709   5.375   7.364   1.171  1.4136  0.3596 -1.6279
   13MOL    C46 2710   5.916   7.182   1.229 -0.4610  0.7724 -0.5207
   13MOL    C47 2711   5.781   7.220   1.216 -0.2160 -0.5232 -0.3035
   13MOL    C48 2712   5.687   7.175   1.307  0.4303 -0.2589  0.3284
   13MOL    C49 2713   5.721   7.072   1.402 -0.5895 -0.1083  1.1350
   13MOL    C50 2714   5.854   7.032   1.407 -0.2947  0.1831 -0.1727
   13MOL    C51 2715   5.952   7.087   1.326  0.1160  0.0825 -0.5806
   13MOL    O52 2716   6.090   7.064   1.337  0.2252 -0.0308  0.2337
   13MOL    H53 2717   5.996   7.234   1.177  0.0572  1.2378  0.7344
   13MOL    H54 2718   5.743   7.294   1.148 -0.7946 -0.1378  0.4296
   13MOL    H55 2719   5.654   7.028   1.474 -2.0529  0.6880  0.2785
   13MOL    H56 2720   5.874   6.954   1.478  2.6960  2.3327  1.4562
   13MOL    C57 2721   6.336   6.808   1.280 -0.1706  0.0948  0.6992
   13MOL    C58 2722   6.270   6.919   1.331  0.0403  0.0336 -0.5513
   13MOL    C59 2723   6.144   6.952   1.285 -0.0000 -0.0971  0.3521
   13MOL    C60 2724   6.076   6.867   1.196  0.0186 -0.2852  0.6518
   13MOL    C61 2725   6.142   6.753   1.143  0.0100 -0.0410  0.5567
   13MOL    C62 2726   6.272   6.728   1.188 -0.6256  0.6092  0.1399
   13MOL    O63 2727   6.350   6.628   1.142  0.4820  0.0925 -0.3209
   13MOL    H64 2728   6.440   6.795   1.306  0.4820  3.2993 -0.1259
   13MOL    H65 2729   6.318   6.962   1.418 -3.4489  0.5638  1.2107
   13MOL    H66 2730   5.973   6.883   1.169  0.5945  0.5547 -1.1029
   13MOL    H67 2731   6.093   6.691   1.070 -1.8867  1.0537  0.8569
   13MOL    C68 2732   6.276   6.410   0.861 -0.5297  0.9966 -0.4634
   13MOL    C69 2733   6.294   6.460   0.990 -0.0291 -0.3823  0.6110
   13MOL    C70 2734   6.340   6.586   1.009 -0.0784 -0.1591 -0.2640
   13MOL    C71 2735   6.371   6.675   0.897  0.4735 -0.9525 -0.0458
   13MOL    C72 2736   6.346   6.624   0.770 -0.2893  0.3464  0.7402
   13MOL    C73 2737   6.306   6.488   0.748 -0.4265  0.8685 -0.0495
   13MOL    O74 2738   6.279   6.447   0.623 -0.0856  0.3995 -0.3679
   13MOL    H75 2739   6.265   6.303   0.849  2.7604  0.5276  0.1071
   13MOL    H76 2740   6.282   6.392   1.074  1.8288  0.2817  1.4496
   13MOL    H77 2741   6.392   6.780   0.911  0.0987 -0.5707 -2.1693
   13MOL    H78 2742   6.371   6.686   0.685  0.6656  0.4170  1.0611
   13MOL    C79 2743   6.489   6.432   0.324 -0.3018  0.3375  0.2902
   13MOL    C80 2744   6.394   6.473   0.423 -0.1992 -0.4827  0.1148
   13MOL    C81 2745   6.381   6.407   0.545 -0.3286  0.2399 -0.2553
   13MOL    C82 2746   6.472   6.301   0.576  0.3690  0.3382  0.3822
   13MOL    C83 2747   6.562   6.258   0.474 -0.1115 -0.4875 -0.3235
   13MOL    C84 2748   6.572   6.323   0.355  0.4083  0.1108  0.8890
   13MOL    O85 2749   6.668   6.280   0.266 -0.3811 -0.0340  0.0918
   13MOL    H86 2750   6.494   6.473   0.224 -0.2670 -0.7516 -0.1647
   13MOL    H87 2751   6.328   6.553   0.394 -2.0588 -1.6157  1.1271
   13MOL    H88 2752   6.467   6.246   0.669 -0.4716 -0.6478 -0.2321
   13MOL    H89 2753   6.621   6.169   0.492  0.4037 -0.6092 -2.4607
   13MOL    C90 2754   6.477   6.097   0.007 -0.0429  0.9676 -0.5799
   13MOL    C91 2755   6.516   6.190   0.105 -0.1348  0.6935  0.2506
   13MOL    C92 2756   6.633   6.180   0.181  0.2925  0.6177 -0.2443
   13MOL    C93 2757   6.722   6.073   0.157 -0.2590  0.1145  0.1380
   13MOL    C94 2758   6.673   5.973   0.070 -0.1725  0.3918 -0.1288
   13MOL    C95 2759   6.562   5.983   8.241  0.6349  0.2721  0.1971
   13MOL    O96 2760   6.549   5.893   8.142 -0.3680  0.7617 -0.4673
   13MOL    H97 2761   6.391   6.100   8.197  0.3095 -0.2016 -1.1189
   13MOL    H98 2762   6.446   6.270   0.123 -1.1432  0.1053 -0.9200
   13MOL    H99 2763   6.816   6.062   0.208  0.3386  3.1694 -0.2586
   13MOL   H100 2764   6.739   5.890   0.052 -0.3044 -0.1134  1.6977
   13MOL   C101 2765   6.218   5.752   8.100 -0.6825  0.1088  0.1588
   13MOL   C102 2766   6.338   5.795   8.159 -0.3269 -1.2759 -0.3486
   13MOL   C103 2767   6.432   5.869   8.088  0.1382  0.2572  0.0102
   13MOL   C104 2768   6.400   5.906   7.952 -0.1641  0.0890  0.2720
   13MOL   C105 2769   6.276   5.861   7.899 -1.1219 -0.2316  0.0022
   13MOL   C106 2770   6.185   5.790   7.972 -0.3799  0.0950 -0.2079
   13MOL   O107 2771   6.065   5.746   7.918 -0.1313  0.0085 -0.3002
   13MOL   H108 2772   6.149   5.702   8.166 -2.4023  0.4942 -1.3339
   13MOL   H109 2773   6.371   5.774   0.005  0.9760 -0.0987 -0.5135
   13MOL   H110 2774   6.470   5.956   7.887  0.9083 -1.0257  0.5565
   13MOL   H111 2775   6.255   5.887   7.796 -2.0007 -0.1760  0.1889
   13MOL   C112 2776   5.971   5.571   7.614  0.3858  0.2580 -0.3189
   13MOL   C113 2777   5.981   5.673   7.712 -0.4542 -0.2291  0.3618
   13MOL   C114 2778   6.058   5.644   7.822  0.0734 -0.0287  0.0683
   13MOL   C115 2779   6.129   5.526   7.843 -0.1038  0.0902  0.8656
   13MOL   C116 2780   6.111   5.424   7.745  0.3049 -0.1002  0.5285
   13MOL   C117 2781   6.044   5.454   7.630  0.4744  0.5219  0.5934
   13MOL   O118 2782   6.044   5.354   7.536 -0.1629 -0.2302  0.0668
   13MOL   H119 2783   5.912   5.599   7.529  0.4590  1.7616  0.1039
   13MOL   H120 2784   5.919   5.761   7.716 -1.4420 -0.8161 -1.3783
   13MOL   H121 2785   6.191   5.518   7.931 -0.0030 -1.5485  0.6544
   13MOL   H122 2786   6.147   5.324   7.763 -1.7305 -0.7512  1.1273
   13MOL   C123 2787   5.712   5.192   7.506  0.0359  0.2381  0.0397
   13MOL   C124 2788   5.836   5.236   7.551  0.7483  0.4384  0.2013
   13MOL   C125 2789   5.921   5.323   7.486 -0.4634 -0.0953 -0.2672
   13MOL   C126 2790   5.871   5.393   7.376 -0.2198  0.4993 -0.0147
   13MOL   C127 2791   5.742   5.365   7.325  0.4515 -0.0956 -0.1183
   13MOL   C128 2792   5.670   5.259   7.391  0.1456  0.2002  0.4386
   13MOL   O129 2793   5.540   5.236   7.349 -0.1328  0.5203  0.2453
   13MOL   H130 2794   5.658   5.111   7.552 -1.4218  0.4985 -1.1731
   13MOL   H131 2795   5.886   5.190   7.635  0.3612  1.3648  0.9446
   13MOL   H132 2796   5.936   5.462   7.324  0.9993 -0.1723  0.5713
   13MOL   H133 2797   5.699   5.429   7.249  2.8359  0.8060 -0.7523
   13MOL   C134 2798   5.405   5.169   7.008  0.4151 -0.3203 -0.3513
   13MOL   C135 2799   5.418   5.217   7.140  0.0853  0.7425 -0.5442
   13MOL   C136 2800   5.520   5.171   7.227  0.1902 -0.2070 -0.1021
   13MOL   C137 2801   5.592   5.060   7.182 -0.5902 -0.1466  0.3815
   13MOL   C138 2802   5.579   5.005   7.056 -0.2632  0.6624  0.2607
   13MOL   C139 2803   5.488   5.068   6.961 -0.1093  0.1436 -0.1897
   13MOL   O140 2804   5.475   5.012   6.836  0.2473  0.0481  0.0429
   13MOL   H141 2805   5.332   5.219   6.946 -0.3415  1.1659  1.6489
   13MOL   H142 2806   5.355   5.298   7.174  0.0151 -0.4178  2.2121
   13MOL   H143 2807   5.667   5.021   7.250  1.9648  0.8483 -1.8133
   13MOL   H144 2808   5.636   4.922   7.017  1.0210  0.5445  2.3128
   13MOL   C145 2809   5.445   5.164   6.505  0.6233 -0.6073 -0.4600
   13MOL   C146 2810   5.421   5.086   6.618  0.0554 -0.0350  0.3644
   13MOL   C147 2811   5.506   5.087   6.727  0.0993 -1.1207 -0.2416
   13MOL   C148 2812   5.622   5.169   6.725 -0.2222  0.3154  0.0690
   13MOL   C149 2813   5.655   5.247   6.608 -0.7745 -0.0073 -0.1643
   13MOL   C150 2814   5.567   5.247   6.502 -0.1276  0.1480 -0.1490
   13MOL   O151 2815   5.594   5.320   6.386  0.3009 -0.1307 -0.2192
   13MOL   H152 2816   5.365   5.165   6.432  1.3850 -0.7891 -1.3100
   13MOL   H153 2817   5.323   5.044   6.632 -0.6272  1.1782 -0.7315
   13MOL   H154 2818   5.701   5.166   6.799  0.8032  0.8643 -0.9809
   13MOL   H155 2819   5.743   5.309   6.610 -0.3645 -0.5521 -1.0311
   13MOL   C156 2820   5.476   5.662   6.482  0.3638  0.3341  0.0963
   13MOL   C157 2821   5.547   5.535   6.492 -0.2451  1.0519  0.1829
   13MOL   C158 2822   5.545   5.449   6.381  0.1928  0.1127  0.1151
   13MOL   C159 2823   5.473   5.484   6.263  0.8305 -0.8689 -0.1854
   13MOL   C160 2824   5.407   5.609   6.253  0.2071 -0.0061 -0.3175
   13MOL   C161 2825   5.413   5.697   6.362 -0.2452  0.1673  0.1754
   13MOL   O162 2826   5.341   5.815   6.348  0.5606 -0.7433 -0.3583
   13MOL   H163 2827   5.491   5.734   6.561  0.2809  0.9722 -0.4660
   13MOL   H164 2828   5.604   5.514   6.581  0.2627  2.8317  0.2828
   13MOL   H165 2829   5.476   5.414   6.181 -2.6985 -1.2555 -0.0675
   13MOL   H166 2830   5.365   5.624   6.155  2.0896  2.2166 -0.8256
   13MOL   C167 2831   5.282   6.103   6.568 -0.0763 -0.1933 -0.1887
   13MOL   C168 2832   5.260   5.985   6.503  0.0389  0.0835  0.3451
   13MOL   C169 2833   5.368   5.927   6.433  0.6859  0.0040 -0.2195
   13MOL   C170 2834   5.494   5.996   6.437  0.0525  0.1409 -0.4465
   13MOL   C171 2835   5.510   6.110   6.502  0.4082 -0.2031 -0.1025
   13MOL   C172 2836   5.405   6.167   6.570 -0.2072 -0.3510  0.9100
   13MOL   O173 2837   5.422   6.287   6.623 -0.6411 -0.3550 -0.5652
   13MOL   H174 2838   5.195   6.149   6.612 -0.7064  1.5986 -3.1510
   13MOL   H175 2839   5.165   5.933   6.509  0.8232 -1.3773  0.3757
   13MOL   H176 2840   5.578   5.950   6.388  0.7685 -0.3414  1.2059
   13MOL   H177 2841   5.600   6.168   6.486 -0.0423 -0.1103 -2.4683
   13MOL   C178 2842   5.446   6.521   6.341 -0.2292  0.4679  0.0891
   13MOL   C179 2843   5.394   6.421   6.424 -0.1471 -0.8152 -0.6001
   13MOL   C180 2844   5.471   6.385   6.536  0.4083 -0.1273 -0.1928
   13MOL   C181 2845   5.581   6.464   6.570  0.8356  0.5096 -0.5460
   13MOL   C182 2846   5.617   6.569   6.483  0.2930  0.1625 -1.0436
   13MOL   C183 2847   5.560   6.586   6.362 -0.6172 -0.1859 -0.7687
   13MOL   O184 2848   5.600   6.685   6.285 -0.4669  0.1570 -0.2755
   13MOL   H185 2849   5.389   6.522   6.249 -2.7408  1.9210  1.6170
   13MOL   H186 2850   5.313   6.360   6.387 -1.7815  0.5089  0.6872
   13MOL   H187 2851   5.642   6.447   6.658  2.1993  3.7572 -0.7972
   13MOL   H188 2852   5.700   6.631   6.513 -0.0423 -1.3600  3.4766
   13MOL   C189 2853   5.950   6.672   6.152  0.1990 -0.3784  0.0044
   13MOL   C190 2854   5.842   6.674   6.243  0.5402 -0.3520  0.6824
   13MOL   C191 2855   5.706   6.658   6.200  0.2509  0.0633 -0.1767
   13MOL   C192 2856   5.682   6.614   6.066  0.6551 -0.6891 -0.3849
   13MOL   C193 2857   5.795   6.590   5.985  0.4732 -0.5821 -0.4492
   13MOL   C194 2858   5.927   6.631   6.019  0.0987 -0.5817  0.6068
   13MOL   O195 2859   6.035   6.610   5.938 -0.1993  0.0956 -0.1158
   13MOL   H196 2860   6.049   6.696   6.190 -0.4013 -0.8671  1.9257
   13MOL   H197 2861   5.858   6.678   6.350  0.1003 -0.7946  0.7698
   13MOL   H198 2862   5.580   6.596   6.034 -0.6315  0.3618  2.8734
   13MOL   H199 2863   5.789   6.553   5.884 -1.6335 -0.8404 -0.2355
   13MOL   C200 2864   6.288   6.841   5.810  0.0261 -0.3193  0.8180
   13MOL   C201 2865   6.223   6.734   5.872  0.1085 -0.1276 -0.2237
   13MOL   C202 2866   6.081   6.722   5.881 -0.0648  0.6843 -0.4890
   13MOL   C203 2867   6.009   6.828   5.823  0.3782 -0.5097 -0.6920
   13MOL   C204 2868   6.066   6.947   5.770 -0.4622  0.0781  0.4125
   13MOL   C205 2869   6.206   6.952   5.765 -0.5921  0.3842 -0.0485
   13MOL   O206 2870   6.264   7.066   5.714  0.0838  0.4710 -0.5744
   13MOL   H207 2871   6.395   6.834   5.802 -0.0508 -1.5550  0.8031
   13MOL   H208 2872   6.289   6.656   5.907  0.4822 -0.2717 -1.2429
   13MOL   H209 2873   5.902   6.815   5.830  0.7868 -3.8876 -0.1437
   13MOL   H210 2874   6.001   7.019   5.722 -2.1449 -1.6611  0.0264
   13MOL   C211 2875   6.624   7.055   5.652  0.2032  0.2294  0.9409
   13MOL   C212 2876   6.484   7.032   5.633 -0.4543  0.1851  0.0464
   13MOL   C213 2877   6.393   7.079   5.734  0.1450  0.5765  0.2402
   13MOL   C214 2878   6.437   7.146   5.849  0.4426  0.1329  0.6310
   13MOL   C215 2879   6.572   7.186   5.856 -0.5198  0.3821 -0.5742
   13MOL   C216 2880   6.664   7.135   5.758  0.9648 -0.6510  0.0085
   13MOL   O217 2881   6.792   7.153   5.795  0.1346  0.2294 -0.2034
   13MOL   H218 2882   6.695   7.030   5.575  1.0683 -1.2487  2.1962
   13MOL   H219 2883   6.460   6.984   5.540 -0.3187  1.3591 -0.6094
   13MOL   H220 2884   6.366   7.175   5.924  1.6444  2.5328  0.9027
   13MOL   H221 2885   6.619   7.239   5.938  1.2853 -2.1761  0.1153
   13MOL   H222 2886   6.847   7.103   5.736  0.2288  0.0263  0.0550
   14MOL     C1 2887   5.304   6.855   3.786 -0.3634 -0.3711  0.7948
   14MOL     C2 2888   5.183   6.922   3.826 -0.6627 -0.0032 -0.3816
   14MOL     C3 2889   5.067   6.912   3.747  1.0104  0.4476 -0.6814
   14MOL     C4 2890   5.079   6.844   3.624 -1.0364 -0.2188 -0.6734
   14MOL     C5 2891   5.204   6.791   3.574  0.8091  0.1378  0.3029
   14MOL     C6 2892   5.317   6.790   3.662  0.2959  0.1123  0.1603
   14MOL     O7 2893   5.439   6.732   3.622  0.5615  0.1328  0.9853
   14MOL     H8 2894   5.390   6.874   3.848  1.0270  0.4222 -1.3367
   14MOL     H9 2895   5.175   6.951   3.930 -3.4279  1.0598 -0.8219
   14MOL    H10 2896   4.997   6.844   3.553 -0.4306 -2.3923 -1.4276
   14MOL    H11 2897   5.211   6.740   3.479 -0.9563 -0.1632  0.3269
   14MOL    H12 2898   4.976   6.953   3.786  0.1191 -2.8840  0.8594
   14MOL    C13 2899   5.755   6.911   3.703  0.4466  0.2653 -0.3067
   14MOL    C14 2900   5.643   6.820   3.712  0.3639 -0.1759 -0.1501
   14MOL    C15 2901   5.546   6.815   3.611 -0.2540 -1.4124  0.0317
   14MOL    C16 2902   5.562   6.896   3.497  0.5185  0.4277  0.1667
   14MOL    C17 2903   5.673   6.983   3.487 -0.1269 -0.0244 -0.1967
   14MOL    C18 2904   5.759   6.994   3.594  0.2393 -0.0752  0.8230
   14MOL    O19 2905   5.871   7.079   3.592  0.5610 -0.0166  0.1620
   14MOL    H20 2906   5.824   6.930   3.783  0.3579  0.1769 -0.2081
   14MOL    H21 2907   5.636   6.762   3.803  0.0739  2.1341  1.3169
   14MOL    H22 2908   5.508   6.893   3.404  2.3001 -0.3616 -0.8665
   14MOL    H23 2909   5.701   7.021   3.390  3.1906 -1.5312  0.0951
   14MOL    C24 2910   5.832   7.409   3.744 -0.2572 -0.2086 -0.6075
   14MOL    C25 2911   5.843   7.271   3.732 -0.4034  0.3494 -0.0860
   14MOL    C26 2912   5.861   7.216   3.603  0.1961  0.0069  0.7582
   14MOL    C27 2913   5.866   7.302   3.490  0.1883  0.4314  0.2600
   14MOL    C28 2914   5.862   7.439   3.506 -0.4386  0.6692 -0.1521
   14MOL    C29 2915   5.853   7.493   3.633 -0.0484 -0.3600 -0.3344
   14MOL    O30 2916   5.847   7.625   3.649 -0.5936  0.2122 -0.2905
   14MOL    H31 2917   5.825   7.444   3.846  0.5748 -0.3319 -0.5074
   14MOL    H32 2918   5.822   7.214   3.821  2.2545  0.6357  0.7829
   14MOL    H33 2919   5.883   7.266   3.389  1.1595  0.5617  0.3769
   14MOL    H34 2920   5.898   7.501   3.425  0.5639  0.2329 -0.0503
   14MOL    C35 2921   6.158   7.807   3.578 -0.3424  0.2645  0.2337
   14MOL    C36 2922   6.031   7.747   3.566  0.1299 -0.6127 -1.4798
   14MOL    C37 2923   5.963   7.692   3.676  0.8616 -0.4419  0.6032
   14MOL    C38 2924   6.015   7.713   3.805  0.1382  0.6527 -0.0575
   14MOL    C39 2925   6.144   7.767   3.818  0.0591  0.1342 -0.4767
   14MOL    C40 2926   6.219   7.805   3.706  0.1171 -0.0844 -0.6055
   14MOL    O41 2927   6.350   7.853   3.727  0.1514  0.0660  0.4152
   14MOL    H42 2928   6.215   7.843   3.493  1.3870 -3.3337 -0.2161
   14MOL    H43 2929   5.983   7.740   3.470 -0.5785 -1.1002 -1.0864
   14MOL    H44 2930   5.955   7.674   3.886 -1.0720 -1.7273 -2.0386
   14MOL    H45 2931   6.192   7.774   3.915 -0.3688  1.3488 -0.3333
   14MOL    C46 2932   6.543   7.571   3.883 -0.3217  0.4433  0.6136
   14MOL    C47 2933   6.450   7.642   3.804  0.1627  0.1968  0.1247
   14MOL    C48 2934   6.439   7.778   3.804 -0.6876  0.3195 -0.3173
   14MOL    C49 2935   6.516   7.857   3.898 -1.3421  0.0450  0.6223
   14MOL    C50 2936   6.591   7.787   3.990 -0.3009 -0.4225  0.0549
   14MOL    C51 2937   6.607   7.641   3.986 -0.8785  0.5076  0.3149
   14MOL    O52 2938   6.682   7.585   4.076 -0.0244  0.5527  0.1600
   14MOL    H53 2939   6.553   7.464   3.873 -0.3473  0.4950  0.0343
   14MOL    H54 2940   6.383   7.580   3.745 -0.2399 -0.2937  1.0877
   14MOL    H55 2941   6.521   7.964   3.902  1.7918 -0.1162  2.2003
   14MOL    H56 2942   6.647   7.839   4.066  0.0711 -0.4166 -0.2214
   14MOL    C57 2943   7.035   7.639   3.967  0.5504 -0.3154  0.3511
   14MOL    C58 2944   6.894   7.616   3.954 -0.6414 -0.1296 -0.1821
   14MOL    C59 2945   6.815   7.606   4.069 -0.7178  0.7070  0.2524
   14MOL    C60 2946   6.874   7.625   4.197 -0.3399  0.6927  0.3862
   14MOL    C61 2947   7.010   7.660   4.206 -0.9231  0.0538  0.6280
   14MOL    C62 2948   7.091   7.672   4.095  0.7813  0.5469 -0.2958
   14MOL    O63 2949   7.218   7.708   4.108  0.1804  0.4354 -0.0567
   14MOL    H64 2950   7.101   7.628   3.883  0.3856 -1.0227  0.3106
   14MOL    H65 2951   6.851   7.589   3.858 -1.5223 -2.3142  0.7976
   14MOL    H66 2952   6.817   7.616   4.288 -3.8738  1.5206 -1.6338
   14MOL    H67 2953   7.056   7.692   4.299 -0.2875  1.3591 -0.1165
   14MOL    C68 2954   7.300   8.037   4.238 -0.1564  0.4127 -0.4438
   14MOL    C69 2955   7.264   7.900   4.232 -0.7483 -0.2160 -0.5636
   14MOL    C70 2956   7.250   7.840   4.107  0.2211  0.3256 -0.1407
   14MOL    C71 2957   7.268   7.910   3.990 -0.2306  0.1012 -0.2736
   14MOL    C72 2958   7.305   8.044   3.999  0.2617  0.2638 -0.4199
   14MOL    C73 2959   7.313   8.111   4.123  0.2075 -0.3145  0.0641
   14MOL    O74 2960   7.339   8.245   4.128 -0.0559 -0.4781  0.8273
   14MOL    H75 2961   7.307   8.089   4.332  0.5728 -0.9004  0.2497
   14MOL    H76 2962   7.250   7.850   4.327 -0.4133 -0.2215 -0.5169
   14MOL    H77 2963   7.251   7.860   3.896 -1.5460 -1.4490  0.7552
   14MOL    H78 2964   7.325   8.103   3.911  0.2745 -0.2766 -0.7741
   14MOL    C79 2965   7.044   0.159   3.986  0.8076 -0.0756  0.8383
   14MOL    C80 2966   7.118   0.074   4.064  0.2218  0.2115 -0.0594
   14MOL    C81 2967   7.261   0.077   4.052  0.0267 -0.4165 -0.7168
   14MOL    C82 2968   7.320   0.169   3.961  0.4294 -0.6158 -0.0525
   14MOL    C83 2969   7.244   0.256   3.878  0.5844  0.3230  0.2631
   14MOL    C84 2970   7.105   0.250   3.900  0.5673 -0.0040 -0.5824
   14MOL    O85 2971   7.033   0.326   3.814  0.1341 -0.3603 -0.2561
   14MOL    H86 2972   6.937   0.165   4.002  0.7155  0.5002  0.0941
   14MOL    H87 2973   7.072   0.010   4.137 -1.2303  1.5209  0.2087
   14MOL    H88 2974   7.427   0.159   3.947  0.5034  0.0750 -0.0371
   14MOL    H89 2975   7.287   0.326   3.808  1.0225 -0.3378 -0.1248
   14MOL    C90 2976   6.981   0.216   3.475 -1.0769  0.2541  0.6147
   14MOL    C91 2977   7.037   0.282   3.583 -0.1542  0.1492 -0.1770
   14MOL    C92 2978   6.982   0.264   3.707 -0.2127 -0.1253  0.0042
   14MOL    C93 2979   6.865   0.184   3.718  0.3255 -0.7333  0.0655
   14MOL    C94 2980   6.807   0.120   3.605 -0.1401 -0.1981 -0.1710
   14MOL    C95 2981   6.861   0.145   3.478  0.0399 -0.3625  0.8017
   14MOL    O96 2982   6.806   0.089   3.363 -0.6960  0.3259 -0.0745
   14MOL    H97 2983   7.027   0.219   3.377 -1.1850  1.7835  0.6121
   14MOL    H98 2984   7.123   0.346   3.572 -0.7307  0.8703 -0.5005
   14MOL    H99 2985   6.817   0.158   3.812 -0.5352 -1.3512 -0.5370
   14MOL   H100 2986   6.722   0.055   3.620 -0.1681  0.0525  0.7804
   14MOL   C101 2987   6.561   0.288   3.172 -0.8528 -0.2706  0.4754
   14MOL   C102 2988   6.683   0.251   3.232 -0.1626 -0.0300 -0.1684
   14MOL   C103 2989   6.685   0.139   3.319  0.0849 -0.1385  0.1740
   14MOL   C104 2990   6.567   0.063   3.342  0.0253 -0.7597 -0.6167
   14MOL   C105 2991   6.448   0.112   3.279 -0.4787  0.7635  0.2209
   14MOL   C106 2992   6.445   0.219   3.191 -0.4051 -0.2388  0.6265
   14MOL   O107 2993   6.329   0.264   3.133 -0.1222  0.4377 -0.4581
   14MOL   H108 2994   6.555   0.363   3.094  2.0416 -0.6128 -0.1297
   14MOL   H109 2995   6.773   0.304   3.203 -0.7258  0.0742 -1.7947
   14MOL   H110 2996   6.578   8.228   3.401  1.8611 -0.2666 -0.1778
   14MOL   H111 2997   6.357   0.056   3.294 -0.0420 -0.7139 -2.3544
   14MOL   C112 2998   6.028   0.093   3.035  0.5636 -0.1170 -0.9118
   14MOL   C113 2999   6.116   0.177   3.099  0.3189 -0.2608  0.2736
   14MOL   C114 3000   6.254   0.175   3.066 -0.1872  0.2573 -0.0617
   14MOL   C115 3001   6.295   0.090   2.961 -0.7500 -0.4388  0.5749
   14MOL   C116 3002   6.205   0.014   2.886 -0.0926 -0.1038 -0.2060
   14MOL   C117 3003   6.066   0.013   2.928 -0.0169  0.0099 -0.1223
   14MOL   O118 3004   5.967   8.196   2.865 -0.2879  0.0888  0.3724
   14MOL   H119 3005   5.923   0.090   3.062  0.5676  0.3853 -0.8336
   14MOL   H120 3006   6.084   0.227   3.189 -2.0312 -1.0365 -0.1034
   14MOL   H121 3007   6.393   0.098   2.918 -0.2943 -1.8525  1.3143
   14MOL   H122 3008   6.230   8.235   2.787 -1.4523 -2.7938  0.3001
   14MOL   C123 3009   5.668   8.212   2.663 -0.7280  0.2971 -0.2648
   14MOL   C124 3010   5.776   8.167   2.743  0.8780  1.2511 -0.6341
   14MOL   C125 3011   5.871   0.001   2.790 -0.1571 -0.6895 -0.8449
   14MOL   C126 3012   5.863   0.138   2.749  0.1604 -0.0474  0.4557
   14MOL   C127 3013   5.763   0.183   2.658 -0.2044  0.1644  0.3795
   14MOL   C128 3014   5.662   0.088   2.621 -0.1965 -0.4155  0.0968
   14MOL   O129 3015   5.567   0.137   2.531 -0.0522  0.1720 -1.1361
   14MOL   H130 3016   5.592   8.139   2.640 -1.2772  0.4982  0.9068
   14MOL   H131 3017   5.788   8.065   2.777  0.3983  0.6732 -2.1633
   14MOL   H132 3018   5.938   0.209   2.778 -0.4735  0.9589 -0.3133
   14MOL   H133 3019   5.763   0.281   2.612 -0.8577  0.2979  0.6599
   14MOL   C134 3020   5.497   8.219   2.211 -0.7322 -0.3391  0.0462
   14MOL   C135 3021   5.501   8.250   2.350  0.2314  0.1065 -0.4694
   14MOL   C136 3022   5.581   0.093   2.401  0.1329 -0.0867 -0.1440
   14MOL   C137 3023   5.667   0.159   2.314 -0.0729 -0.4291  0.7152
   14MOL   C138 3024   5.669   0.131   2.174  0.5014 -0.4445 -0.6650
   14MOL   C139 3025   5.575   0.038   2.120 -0.0802 -0.3863  0.2917
   14MOL   O140 3026   5.563   0.021   1.988  0.3258  0.4182 -0.6414
   14MOL   H141 3027   5.433   8.147   2.162 -2.3782  0.8060  0.4913
   14MOL   H142 3028   5.439   8.204   2.426  0.7922  1.8312  1.0718
   14MOL   H143 3029   5.729   0.235   2.359 -1.4093  0.1258  1.6498
   14MOL   H144 3030   5.745   0.186   2.120  0.4731  3.4743  3.0628
   14MOL   C145 3031   5.276   8.213   1.762  0.7831  0.2792 -0.0344
   14MOL   C146 3032   5.392   8.199   1.828 -1.2076 -0.0615 -0.3876
   14MOL   C147 3033   5.442   0.035   1.927  0.3902  0.0920 -0.7460
   14MOL   C148 3034   5.356   0.140   1.962  0.0459 -0.0445  0.3555
   14MOL   C149 3035   5.231   0.163   1.890  0.1368 -0.4321 -0.0560
   14MOL   C150 3036   5.194   0.071   1.790  0.1538 -0.1694 -0.4383
   14MOL   O151 3037   5.087   0.103   1.712 -0.3649 -0.3279  0.1886
   14MOL   H152 3038   5.249   8.145   1.683  0.5881 -1.0096  1.1194
   14MOL   H153 3039   5.454   8.121   1.787  0.4900  0.5744  0.9031
   14MOL   H154 3040   5.386   0.221   2.026 -0.7431  1.0194 -0.6065
   14MOL   H155 3041   5.169   0.250   1.908 -1.4927 -1.3525 -1.1442
   14MOL   C156 3042   4.749   0.032   1.855 -0.1468 -0.1054  0.0499
   14MOL   C157 3043   4.885   0.017   1.809  0.1133 -0.3054 -0.1118
   14MOL   C158 3044   4.964   0.127   1.769  0.1680  0.1139  0.1549
   14MOL   C159 3045   4.900   0.252   1.767 -0.0669  0.2486  0.7465
   14MOL   C160 3046   4.769   0.277   1.816 -0.0595  0.0376  0.4415
   14MOL   C161 3047   4.695   0.162   1.867 -0.1224 -0.3714  0.2881
   14MOL   O162 3048   4.570   0.181   1.931 -0.2344 -0.4325  0.4086
   14MOL   H163 3049   4.697   8.197   1.886  1.1949 -0.3128  1.8106
   14MOL   H164 3050   4.929   8.172   1.806  1.4182  0.2913 -1.6950
   14MOL   H165 3051   4.948   0.339   1.727 -0.6157  0.8481  1.3578
   14MOL   H166 3052   4.735   0.378   1.807 -0.4564 -0.0139  1.2812
   14MOL   C167 3053   4.554   0.332   2.256 -0.2589 -0.3553  0.4668
   14MOL   C168 3054   4.543   0.316   2.116 -0.2310  0.2351 -0.0044
   14MOL   C169 3055   4.567   0.185   2.061  0.6026  0.1657  0.2929
   14MOL   C170 3056   4.587   0.075   2.146  0.7437  0.1878 -0.2832
   14MOL   C171 3057   4.591   0.091   2.283  0.1237 -0.0282  0.5029
   14MOL   C172 3058   4.591   0.226   2.338  0.6269  0.7954  0.3058
   14MOL   O173 3059   4.607   0.245   2.475  0.0774  0.0201  0.5955
   14MOL   H174 3060   4.529   0.416   2.320 -2.0429 -0.8345  0.4362
   14MOL   H175 3061   4.513   0.401   2.058 -0.6954  0.1895  0.1649
   14MOL   H176 3062   4.594   8.234   2.095 -1.6224 -1.1059  1.6606
   14MOL   H177 3063   4.600   0.004   2.346 -1.6180 -0.3868  0.2883
   14MOL   C178 3064   4.936   0.225   2.617  0.2739 -0.0605  0.5281
   14MOL   C179 3065   4.813   0.186   2.565  0.0290 -0.7827 -0.0777
   14MOL   C180 3066   4.728   0.283   2.517 -0.8468 -0.7280 -0.1448
   14MOL   C181 3067   4.765   0.416   2.500  0.2124  0.2548  0.1443
   14MOL   C182 3068   4.894   0.460   2.541 -0.5165  0.0647  0.2258
   14MOL   C183 3069   4.977   0.364   2.607  0.6031  0.5811  0.1927
   14MOL   O184 3070   5.099   0.406   2.649 -0.0313 -0.3771  0.1416
   14MOL   H185 3071   4.998   0.153   2.667  1.1413 -0.5141 -1.1678
   14MOL   H186 3072   4.780   0.084   2.573 -0.9779 -0.6395 -2.2792
   14MOL   H187 3073   4.692   0.479   2.451 -0.3195 -0.9760 -0.6756
   14MOL   H188 3074   4.912   0.567   2.539 -2.4195  0.3995 -3.4673
   14MOL   C189 3075   5.337   0.326   2.375 -0.7835 -0.0854  0.1478
   14MOL   C190 3076   5.233   0.316   2.467 -0.5015 -0.6006  0.6927
   14MOL   C191 3077   5.197   0.422   2.555  0.3333  0.1512  0.4685
   14MOL   C192 3078   5.279   0.540   2.542  0.2577  0.1376  0.7536
   14MOL   C193 3079   5.386   0.553   2.446  0.3498  0.3138 -0.3754
   14MOL   C194 3080   5.414   0.444   2.365 -0.0241 -0.6258  0.3856
   14MOL   O195 3081   5.513   0.451   2.270 -0.5786  0.2490  0.4133
   14MOL   H196 3082   5.360   0.246   2.306 -0.7631  0.0083  0.0453
   14MOL   H197 3083   5.175   0.225   2.467  1.3758 -1.8545 -0.9614
   14MOL   H198 3084   5.262   0.627   2.604  1.1367  1.2591 -0.5591
   14MOL   H199 3085   5.436   0.647   2.427 -0.3003  0.8696  0.6259
   14MOL   C200 3086   5.315   0.600   1.990 -0.0462  0.4668 -0.2521
   14MOL   C201 3087   5.346   0.525   2.104  0.2391 -0.6979  0.2810
   14MOL   C202 3088   5.482   0.525   2.157  0.6990 -0.0465  1.0803
   14MOL   C203 3089   5.581   0.594   2.087  0.4033 -0.6056 -0.5229
   14MOL   C204 3090   5.549   0.668   1.976  0.1581 -0.2902 -0.5717
   14MOL   C205 3091   5.413   0.672   1.923  0.1774  0.6794  0.1458
   14MOL   O206 3092   5.389   0.742   1.803 -0.0203  0.3055 -0.0609
   14MOL   H207 3093   5.221   0.592   1.938  0.9053  0.9309 -2.0779
   14MOL   H208 3094   5.267   0.461   2.139 -2.1771  2.4593  0.7660
   14MOL   H209 3095   5.683   0.593   2.125  0.0377  0.8051  0.5534
   14MOL   H210 3096   5.623   0.729   1.926 -0.2959  0.8074  0.0690
   14MOL   C211 3097   5.484   1.090   1.834 -0.2328 -0.0743  0.1399
   14MOL   C212 3098   5.498   0.950   1.822  0.1367  0.3484  0.2462
   14MOL   C213 3099   5.377   0.878   1.821 -0.0490  0.0685  0.2592
   14MOL   C214 3100   5.247   0.934   1.839 -0.2351 -0.2037 -0.4931
   14MOL   C215 3101   5.238   1.077   1.840 -0.0334 -0.4990 -0.3398
   14MOL   C216 3102   5.359   1.150   1.843 -0.2286  0.0716  0.4644
   14MOL   O217 3103   5.346   1.285   1.838  0.1305 -0.1248 -0.4084
   14MOL   H218 3104   5.580   1.139   1.833 -1.2473  2.0805  2.2089
   14MOL   H219 3105   5.593   0.903   1.801 -0.2303 -0.2666 -0.0370
   14MOL   H220 3106   5.162   0.867   1.836  0.2930 -0.8794 -0.6006
   14MOL   H221 3107   5.152   1.142   1.836  0.8437  0.7770  0.8509
   14MOL   H222 3108   5.425   1.334   1.851  1.6927 -2.8412  0.6969
   15MOL     C1 3109   0.439   7.092   5.058  0.5374 -0.6659  0.0581
   15MOL     C2 3110   0.392   7.118   4.928 -0.2282 -0.5246  0.0149
   15MOL     C3 3111   0.256   7.158   4.904 -0.6810  0.4803 -0.3911
   15MOL     C4 3112   0.172   7.169   5.016 -0.2303 -0.2196  0.3379
   15MOL     C5 3113   0.221   7.133   5.142  0.4690  0.1743  0.0366
   15MOL     C6 3114   0.350   7.093   5.167  0.2648 -0.3233  0.5487
   15MOL     O7 3115   0.392   7.067   5.297  0.2106  0.0332  0.0315
   15MOL     H8 3116   0.542   7.069   5.082  0.9125  1.5967  0.7404
   15MOL     H9 3117   0.454   7.108   4.840 -1.8630  0.9772 -1.3391
   15MOL    H10 3118   0.070   7.191   4.992  0.2099 -0.5637 -2.0138
   15MOL    H11 3119   0.161   7.137   5.232  0.4348 -0.5945  0.0524
   15MOL    H12 3120   0.219   7.182   4.806 -0.5101  0.2947 -0.5026
   15MOL    C13 3121   0.653   7.204   5.506 -0.1662 -0.3251  0.2781
   15MOL    C14 3122   0.557   7.116   5.450  0.0982 -0.4788 -0.9472
   15MOL    C15 3123   0.465   7.166   5.360 -0.5658  0.2068  0.4886
   15MOL    C16 3124   0.451   7.307   5.335 -0.2731 -0.5035  0.2668
   15MOL    C17 3125   0.537   7.394   5.400 -0.3323 -0.0417 -0.1372
   15MOL    C18 3126   0.641   7.341   5.479  0.2822  0.4512 -0.0882
   15MOL    O19 3127   0.726   7.434   5.539  0.0911  0.4245  0.4514
   15MOL    H20 3128   0.736   7.176   5.570  0.9403  3.0277  0.3804
   15MOL    H21 3129   0.572   7.011   5.474  1.5905 -0.8557 -3.3483
   15MOL    H22 3130   0.370   7.353   5.281 -0.5057 -0.8338  0.3360
   15MOL    H23 3131   0.542   7.502   5.394  0.9593 -0.0274  0.9471
   15MOL    C24 3132   0.668   7.442   5.902  0.1454  0.5719 -0.5496
   15MOL    C25 3133   0.650   7.464   5.766  0.4010 -0.3168 -0.5053
   15MOL    C26 3134   0.746   7.424   5.673 -0.0981 -0.7772 -0.0747
   15MOL    C27 3135   0.866   7.370   5.726  0.8844 -0.2132 -0.2244
   15MOL    C28 3136   0.885   7.352   5.860  0.1999  0.0141 -0.5183
   15MOL    C29 3137   0.788   7.386   5.953  0.1072 -0.5178 -0.1953
   15MOL    O30 3138   0.810   7.365   6.086  0.0268 -0.3781  0.3083
   15MOL    H31 3139   0.594   7.466   5.976  1.1974 -3.4922  1.9546
   15MOL    H32 3140   0.565   7.515   5.724  2.9025  3.9042 -0.6921
   15MOL    H33 3141   0.951   7.350   5.662  2.2409  0.2605  1.4128
   15MOL    H34 3142   0.982   7.318   5.893  1.2717  2.7378 -0.6839
   15MOL    C35 3143   0.947   7.529   6.393 -0.1238 -0.1263  0.4689
   15MOL    C36 3144   0.889   7.429   6.306  0.5032  0.2590 -0.4723
   15MOL    C37 3145   0.850   7.465   6.174 -0.1516  0.2756  0.6471
   15MOL    C38 3146   0.857   7.602   6.136 -0.7418 -0.2328  1.0107
   15MOL    C39 3147   0.904   7.699   6.223  0.2147  0.0872  0.2188
   15MOL    C40 3148   0.949   7.664   6.354 -0.2324 -0.2979 -0.1121
   15MOL    O41 3149   0.998   7.751   6.445 -0.8009 -0.0132 -0.1543
   15MOL    H42 3150   0.980   7.495   6.490 -1.5876 -0.9844  0.6864
   15MOL    H43 3151   0.893   7.326   6.339 -0.5214  0.3779  0.0219
   15MOL    H44 3152   0.831   7.619   6.033  1.5150 -3.7071 -0.2445
   15MOL    H45 3153   0.903   7.804   6.201  2.8236  0.1931  0.5012
   15MOL    C46 3154   1.168   8.043   6.293  0.1541 -0.0512 -0.1026
   15MOL    C47 3155   1.137   7.912   6.324 -0.3392  0.1666  0.5399
   15MOL    C48 3156   1.030   7.882   6.414  0.1559  0.4625 -0.9408
   15MOL    C49 3157   0.960   7.990   6.473  0.1112 -0.5075  1.0426
   15MOL    C50 3158   0.991   8.122   6.432  0.1319 -0.0081  0.2395
   15MOL    C51 3159   1.100   8.153   6.351  0.4496  0.1227 -0.6837
   15MOL    O52 3160   1.123   0.026   6.296  0.2449 -0.4601  0.1752
   15MOL    H53 3161   1.252   8.059   6.228  1.4193 -0.2378  1.4521
   15MOL    H54 3162   1.194   7.829   6.285  0.2778  1.4328 -1.2752
   15MOL    H55 3163   0.889   7.973   6.553 -0.9747 -1.7512 -0.1593
   15MOL    H56 3164   0.931   8.201   6.474  1.9598  0.6421  1.6906
   15MOL    C57 3165   1.349   0.319   6.289  0.4926  1.0463  0.7978
   15MOL    C58 3166   1.246   0.227   6.257 -1.0140 -0.1258  0.2751
   15MOL    C59 3167   1.224   0.113   6.330 -0.9287 -0.5776  0.5107
   15MOL    C60 3168   1.311   0.084   6.437  0.3708 -0.2730  0.3351
   15MOL    C61 3169   1.420   0.168   6.469 -0.8951 -0.1140  0.8765
   15MOL    C62 3170   1.441   0.290   6.397  0.1069  0.3771 -0.2302
   15MOL    O63 3171   1.516   0.396   6.448  0.0696  0.1485 -0.3795
   15MOL    H64 3172   1.358   0.401   6.219 -0.0947 -3.0180 -4.3808
   15MOL    H65 3173   1.173   0.247   6.180 -2.0481  0.2616  1.3423
   15MOL    H66 3174   1.287   8.251   6.497  0.7560 -0.3039  0.4438
   15MOL    H67 3175   1.479   0.149   6.557 -0.3332  3.7012  1.4107
   15MOL    C68 3176   1.858   0.523   6.403 -0.1007  0.3975  0.5923
   15MOL    C69 3177   1.718   0.514   6.406 -0.4252 -0.1081  0.3419
   15MOL    C70 3178   1.654   0.395   6.442 -0.7949  0.0588 -0.5521
   15MOL    C71 3179   1.729   0.284   6.480 -0.2780  0.5286  0.4575
   15MOL    C72 3180   1.872   0.290   6.480  0.9412 -0.7867 -0.0799
   15MOL    C73 3181   1.934   0.410   6.437  0.1044  0.0812  0.1371
   15MOL    O74 3182   2.063   0.430   6.468 -0.1445 -0.0503 -0.2260
   15MOL    H75 3183   1.903   0.609   6.355 -0.2469  0.3227  0.3171
   15MOL    H76 3184   1.676   0.608   6.374  1.0883  1.0251  1.6050
   15MOL    H77 3185   1.671   0.198   6.510 -1.0334  1.3274  1.3005
   15MOL    H78 3186   1.931   0.210   6.522  1.2050 -0.3710  0.3356
   15MOL    C79 3187   2.249   0.296   6.171 -0.2839  0.1273  0.0805
   15MOL    C80 3188   2.141   0.347   6.246  0.6323  0.8966 -0.3746
   15MOL    C81 3189   2.161   0.378   6.385  0.2345 -0.1091 -0.1925
   15MOL    C82 3190   2.286   0.361   6.443 -0.7588  0.0923 -0.0934
   15MOL    C83 3191   2.385   0.295   6.371  0.3382  0.3155 -0.0203
   15MOL    C84 3192   2.372   0.267   6.234  0.5883  0.0378 -0.2086
   15MOL    O85 3193   2.475   0.232   6.156  0.0318 -0.0562 -0.0264
   15MOL    H86 3194   2.238   0.287   6.064  0.0848  1.2936 -0.0613
   15MOL    H87 3195   2.042   0.372   6.212 -0.4185 -0.9758  1.1828
   15MOL    H88 3196   2.305   0.396   6.543 -2.5334  0.7725  0.0266
   15MOL    H89 3197   2.477   0.265   6.420  0.3625 -0.0803 -0.3069
   15MOL    C90 3198   2.720   0.384   5.934 -0.1717  0.0592  0.1137
   15MOL    C91 3199   2.652   0.291   6.011  0.1591  0.3772 -0.4509
   15MOL    C92 3200   2.559   0.331   6.107 -0.6572 -0.3962 -0.5603
   15MOL    C93 3201   2.541   0.467   6.141 -0.1540  0.6799  0.2583
   15MOL    C94 3202   2.612   0.562   6.069  0.2232 -0.0538  0.2298
   15MOL    C95 3203   2.702   0.521   5.967 -0.9126 -0.3783  0.1490
   15MOL    O96 3204   2.782   0.620   5.902 -0.0248 -0.1400  0.5139
   15MOL    H97 3205   2.790   0.367   5.855  1.0744  0.3655  1.1353
   15MOL    H98 3206   2.669   0.185   5.993  3.6097  0.4728  1.7605
   15MOL    H99 3207   2.470   0.495   6.217 -1.3533  0.2327 -0.6885
   15MOL   H100 3208   2.623   0.665   6.101  2.8316 -0.0981 -0.4848
   15MOL   C101 3209   3.037   0.688   6.170  0.4633 -0.3582  0.1908
   15MOL   C102 3210   2.945   0.620   6.085 -0.8195 -0.5257 -0.5366
   15MOL   C103 3211   2.886   0.681   5.973  0.0870  0.6404  0.2406
   15MOL   C104 3212   2.933   0.810   5.944  0.0379  0.6321  0.4700
   15MOL   C105 3213   3.034   0.870   6.019 -0.0717  0.5421 -0.4793
   15MOL   C106 3214   3.090   0.811   6.132 -0.0434  0.2199  0.2105
   15MOL   O107 3215   3.189   0.875   6.204 -0.0187  0.5210 -0.1036
   15MOL   H108 3216   3.080   0.643   6.259  2.0141  2.4001  0.8939
   15MOL   H109 3217   2.903   0.527   6.120 -0.3126  0.4885  2.9720
   15MOL   H110 3218   2.886   0.860   5.861  0.0138  0.6000  0.4647
   15MOL   H111 3219   3.052   0.974   5.993  2.1670  0.4009  0.4245
   15MOL   C112 3220   3.152   0.801   6.565 -0.2871 -0.0318 -0.6098
   15MOL   C113 3221   3.204   0.796   6.429  0.2757 -0.0361 -0.1738
   15MOL   C114 3222   3.161   0.895   6.340 -0.6066 -0.5772  0.6946
   15MOL   C115 3223   3.091   1.009   6.386  0.0109 -0.2654  0.5966
   15MOL   C116 3224   3.054   1.020   6.520  0.5991 -0.0617  0.8460
   15MOL   C117 3225   3.080   0.912   6.610  0.8400 -0.3516 -0.0239
   15MOL   O118 3226   3.040   0.923   6.745 -0.5803 -0.0567  0.2309
   15MOL   H119 3227   3.178   0.718   6.630  1.6743  0.0518 -1.2860
   15MOL   H120 3228   3.254   0.705   6.402  1.6078  1.1301 -1.7719
   15MOL   H121 3229   3.051   1.083   6.318  0.6199 -1.1835 -0.7824
   15MOL   H122 3230   3.002   1.106   6.559  1.7951  1.0467  0.0448
   15MOL   C123 3231   3.345   0.949   6.953 -0.5277  0.5265  0.3583
   15MOL   C124 3232   3.242   0.984   6.865  0.0098  0.1765  0.2016
   15MOL   C125 3233   3.138   0.895   6.835  0.0319  0.4892 -0.5808
   15MOL   C126 3234   3.133   0.777   6.907 -0.9066  0.0534  0.1634
   15MOL   C127 3235   3.230   0.744   6.999 -0.1739 -0.3870  0.3174
   15MOL   C128 3236   3.341   0.824   7.018 -0.8021 -0.4269 -0.5383
   15MOL   O129 3237   3.433   0.781   7.110  0.0345 -0.0408 -0.2301
   15MOL   H130 3238   3.416   1.026   6.981  0.9351 -0.0573 -1.6311
   15MOL   H131 3239   3.229   1.084   6.826 -0.2845 -0.2622 -0.8404
   15MOL   H132 3240   3.047   0.712   6.898 -1.0787 -0.3311  3.8760
   15MOL   H133 3241   3.220   0.653   7.056 -0.8997 -0.3687  0.2205
   15MOL   C134 3242   3.352   0.583   7.408 -0.8518  1.1727 -0.7407
   15MOL   C135 3243   3.394   0.617   7.281 -0.3174  0.2554  0.5233
   15MOL   C136 3244   3.403   0.753   7.241 -0.8517  0.1880  0.4654
   15MOL   C137 3245   3.380   0.856   7.333  0.1295 -0.8419 -0.3776
   15MOL   C138 3246   3.343   0.828   7.465  0.4103  0.1990 -0.1170
   15MOL   C139 3247   3.327   0.691   7.496  0.4604 -1.0811 -0.4107
   15MOL   O140 3248   3.257   0.671   7.614  0.1644  0.4378 -0.0338
   15MOL   H141 3249   3.344   0.479   7.435 -1.2694  1.1752 -0.8435
   15MOL   H142 3250   3.418   0.541   7.208  1.5341  0.4632  0.8863
   15MOL   H143 3251   3.403   0.957   7.306  0.9667 -1.6583 -2.7941
   15MOL   H144 3252   3.316   0.900   7.541 -0.5180 -1.6282  1.3147
   15MOL   C145 3253   3.439   0.478   7.882 -0.2830  0.0666  0.2346
   15MOL   C146 3254   3.373   0.507   7.758 -0.3290 -0.5236 -0.0295
   15MOL   C147 3255   3.324   0.637   7.728 -0.4830 -0.8717  0.1026
   15MOL   C148 3256   3.340   0.737   7.826  0.1821 -0.3538 -0.9371
   15MOL   C149 3257   3.410   0.712   7.948  0.4606 -0.6690 -0.3546
   15MOL   C150 3258   3.451   0.577   7.978  0.0602 -0.0331 -0.5982
   15MOL   O151 3259   3.522   0.552   8.089  0.3787 -0.0801 -0.4357
   15MOL   H152 3260   3.489   0.384   7.902 -0.2810  0.4358  1.9923
   15MOL   H153 3261   3.370   0.425   7.688  0.1864  0.5250 -1.2900
   15MOL   H154 3262   3.303   0.835   7.802 -0.3808 -0.4155 -0.3397
   15MOL   H155 3263   3.432   0.797   8.011 -2.0495 -0.7266  0.6765
   15MOL   C156 3264   3.592   0.810   0.094 -0.3418 -0.2553  0.2715
   15MOL   C157 3265   3.606   0.730   8.230  0.0568 -0.4508 -0.6886
   15MOL   C158 3266   3.513   0.623   8.203 -0.2880 -0.4573 -0.1024
   15MOL   C159 3267   3.410   0.603   0.040  0.4111  0.2077 -0.9234
   15MOL   C160 3268   3.410   0.667   0.168 -0.2413 -0.3304 -0.6965
   15MOL   C161 3269   3.501   0.776   0.191 -0.6389  0.4042  0.8304
   15MOL   O162 3270   3.488   0.841   0.309  0.1751  0.4840  0.1059
   15MOL   H163 3271   3.662   0.888   0.120  0.2439 -1.1965  1.5501
   15MOL   H164 3272   3.688   0.746   8.161  0.5354 -1.8176 -0.4461
   15MOL   H165 3273   3.331   0.535   0.009  0.8140 -0.1271 -1.2247
   15MOL   H166 3274   3.341   0.643   0.247 -0.4580  1.2492 -0.3724
   15MOL   C167 3275   3.203   1.072   0.281 -0.2284  0.1181 -0.3364
   15MOL   C168 3276   3.327   1.016   0.253 -0.7318 -0.1229 -0.2955
   15MOL   C169 3277   3.368   0.900   0.334 -0.0954 -0.8455  0.0416
   15MOL   C170 3278   3.287   0.860   0.444  0.0141 -0.5390 -0.5622
   15MOL   C171 3279   3.161   0.918   0.462 -0.2830 -0.9565 -0.0426
   15MOL   C172 3280   3.117   1.026   0.382  0.7698  0.2011  0.0073
   15MOL   O173 3281   2.996   1.081   0.405  0.2044 -0.1688 -0.6058
   15MOL   H174 3282   3.167   1.158   0.227  0.8140 -0.4546 -1.9757
   15MOL   H175 3283   3.400   1.053   0.182 -1.6450 -0.4768 -1.4253
   15MOL   H176 3284   3.314   0.775   0.505 -0.7591  1.1186  2.1160
   15MOL   H177 3285   3.111   0.885   0.552  0.5703 -0.8831  0.4615
   15MOL   C178 3286   3.042   1.346   0.658  0.2189  0.4843 -0.4069
   15MOL   C179 3287   3.052   1.278   0.535 -0.4279  0.2273 -0.6639
   15MOL   C180 3288   2.979   1.154   0.517  0.0106 -0.8701  0.0683
   15MOL   C181 3289   2.912   1.102   0.632 -0.0762  0.9635  0.7007
   15MOL   C182 3290   2.909   1.170   0.761  0.1437  0.4296  0.5179
   15MOL   C183 3291   2.978   1.291   0.770  0.0022  0.3257  0.0427
   15MOL   O184 3292   2.988   1.348   0.894 -0.3253  0.0025 -0.3410
   15MOL   H185 3293   3.096   1.439   0.666  0.1046  0.7464 -2.4112
   15MOL   H186 3294   3.112   1.315   0.452 -0.8795  1.7798 -0.3108
   15MOL   H187 3295   2.868   1.004   0.629 -0.3903  1.1274 -0.2921
   15MOL   H188 3296   2.848   1.140   0.845 -1.9210  2.3522 -0.2638
   15MOL   C189 3297   3.088   1.267   1.237 -0.2202 -0.0399 -0.7674
   15MOL   C190 3298   3.019   1.324   1.131 -0.2474 -0.0493  0.4759
   15MOL   C191 3299   3.051   1.287   0.997  0.3266  0.4804  0.3306
   15MOL   C192 3300   3.158   1.197   0.971  0.3678  0.1609  0.1789
   15MOL   C193 3301   3.224   1.142   1.078  0.3969  0.4227  0.9487
   15MOL   C194 3302   3.190   1.173   1.210 -0.3539 -0.2786  0.1303
   15MOL   O195 3303   3.265   1.124   1.310  1.2587  0.1019 -0.6278
   15MOL   H196 3304   3.066   1.296   1.339 -1.4164  0.0297 -1.0357
   15MOL   H197 3305   2.938   1.395   1.135  0.4151  0.7678 -0.2645
   15MOL   H198 3306   3.180   1.168   0.869 -0.7281 -0.7953  0.1985
   15MOL   H199 3307   3.294   1.065   1.049 -0.4733  0.1248 -0.4197
   15MOL   C200 3308   3.163   1.000   1.641 -0.8259 -0.0588  0.0378
   15MOL   C201 3309   3.223   1.085   1.544 -0.0851  0.2663  0.4041
   15MOL   C202 3310   3.208   1.045   1.407 -1.0743 -0.5422 -0.7194
   15MOL   C203 3311   3.144   0.926   1.367 -0.0176 -0.2815  0.2279
   15MOL   C204 3312   3.091   0.839   1.464  0.6311  0.1008  0.0488
   15MOL   C205 3313   3.093   0.882   1.598 -0.1708  0.5502 -0.2186
   15MOL   O206 3314   3.034   0.804   1.690 -0.1279 -0.2242 -0.0904
   15MOL   H207 3315   3.150   1.026   1.745 -0.6912  2.1493 -0.4649
   15MOL   H208 3316   3.280   1.171   1.576  1.2846  0.0143 -1.2488
   15MOL   H209 3317   3.137   0.900   1.263  0.5782  1.6974 -0.3292
   15MOL   H210 3318   3.028   0.755   1.442  0.8579 -0.0809  0.0979
   15MOL   C211 3319   2.694   0.953   1.727 -0.3361 -0.2875  0.8207
   15MOL   C212 3320   2.808   0.898   1.667  0.3059  0.1945 -0.5385
   15MOL   C213 3321   2.922   0.863   1.746 -0.3022 -0.0081  0.1583
   15MOL   C214 3322   2.912   0.890   1.886  0.4623 -0.1673  0.3756
   15MOL   C215 3323   2.798   0.943   1.943  0.7625 -0.1300 -0.3891
   15MOL   C216 3324   2.687   0.961   1.864  0.3814 -0.0549 -0.8264
   15MOL   O217 3325   2.565   0.993   1.920  0.3145 -0.9503 -0.3238
   15MOL   H218 3326   2.610   0.992   1.670  0.6446  0.8942  0.1619
   15MOL   H219 3327   2.807   0.884   1.560  2.9123 -0.4187 -0.5123
   15MOL   H220 3328   3.001   0.857   1.938  1.1186  0.9234 -0.0419
   15MOL   H221 3329   2.795   0.951   2.050 -0.9776 -1.3679 -0.3232
   15MOL   H222 3330   2.559   0.990   2.014 -0.6620  1.8451 -0.2532
   16MOL     C1 3331   0.183   7.736   4.130  0.1305  0.1725  0.0542
   16MOL     C2 3332   0.254   7.637   4.194  0.1181 -0.1396 -0.4291
   16MOL     C3 3333   0.195   7.538   4.276  0.8163 -0.1261  0.0752
   16MOL     C4 3334   0.057   7.540   4.291  0.4069  0.7858 -1.0054
   16MOL     C5 3335   8.239   7.637   4.215  0.1880  0.4479 -0.0693
   16MOL     C6 3336   0.042   7.737   4.139 -0.3631  0.4309 -0.3291
   16MOL     O7 3337   8.222   7.834   4.087 -0.1119  0.0711  0.3718
   16MOL     H8 3338   0.239   7.802   4.066  1.4143  0.2221  1.2013
   16MOL     H9 3339   0.362   7.633   4.186 -0.0185 -2.2913 -1.4305
   16MOL    H10 3340   0.004   7.482   4.366  0.8595  1.0848 -0.4513
   16MOL    H11 3341   8.131   7.636   4.224  0.0243 -3.2341 -1.5983
   16MOL    H12 3342   0.262   7.479   4.337  2.9887  0.9151 -1.2408
   16MOL    C13 3343   0.091   7.865   3.739 -0.2041 -0.0580 -0.0890
   16MOL    C14 3344   0.040   7.808   3.852  0.1948 -0.0940 -0.6718
   16MOL    C15 3345   8.251   7.887   3.962  0.2180 -0.5506  0.3046
   16MOL    C16 3346   8.246   8.030   3.944 -0.0594  0.7446 -1.0392
   16MOL    C17 3347   0.035   8.089   3.825  0.4833 -0.3618  0.1735
   16MOL    C18 3348   0.084   8.002   3.722  0.2657 -0.6321 -0.3299
   16MOL    O19 3349   0.120   8.049   3.599 -0.5349  0.0019 -0.0370
   16MOL    H20 3350   0.113   7.805   3.651 -1.8480 -2.3046  0.9769
   16MOL    H21 3351   0.038   7.701   3.864 -0.3959 -0.0805 -0.6566
   16MOL    H22 3352   8.223   8.102   4.021  1.9906  0.0071  0.2847
   16MOL    H23 3353   0.036   8.196   3.814 -0.1593 -0.1798  1.8021
   16MOL    C24 3354   8.104   8.228   3.407  0.6299 -0.2244  0.4670
   16MOL    C25 3355   8.191   8.199   3.508  1.1480  0.2567  0.1751
   16MOL    C26 3356   0.020   8.079   3.506 -0.1028  1.3374  0.2319
   16MOL    C27 3357   0.002   7.989   3.398 -0.0628  0.4437 -0.1127
   16MOL    C28 3358   8.146   8.009   3.314 -0.3878  0.1136 -0.1842
   16MOL    C29 3359   8.076   8.127   3.314 -0.3383 -0.2505 -0.3287
   16MOL    O30 3360   7.973   8.139   3.221  0.2974  0.2535 -0.1475
   16MOL    H31 3361   8.046   0.066   3.402  0.9326 -0.0401  0.3178
   16MOL    H32 3362   8.211   0.010   3.592  1.5397 -0.8286  0.9331
   16MOL    H33 3363   0.059   7.898   3.398 -1.9477 -0.7631  0.3754
   16MOL    H34 3364   8.123   7.932   3.242  0.0437 -0.4351  0.2649
   16MOL    C35 3365   7.641   8.077   3.359  0.0439 -0.4495  0.0736
   16MOL    C36 3366   7.761   8.143   3.329  0.2340 -0.4493  0.3140
   16MOL    C37 3367   7.856   8.079   3.249  0.2817  0.3757  0.4575
   16MOL    C38 3368   7.828   7.948   3.198 -0.5277 -0.1252 -0.2021
   16MOL    C39 3369   7.711   7.879   3.219 -1.1543 -0.3132  1.3963
   16MOL    C40 3370   7.623   7.948   3.304  0.0529  0.0947  0.0886
   16MOL    O41 3371   7.501   7.887   3.330  0.2685  0.2240 -0.4900
   16MOL    H42 3372   7.569   8.114   3.430 -0.6341 -1.4662 -0.0667
   16MOL    H43 3373   7.779   8.239   3.375 -0.3130  0.0322 -0.4667
   16MOL    H44 3374   7.906   7.897   3.143 -0.9761  0.1717 -1.1152
   16MOL    H45 3375   7.691   7.786   3.168 -0.9128  1.0665 -1.3272
   16MOL    C46 3376   7.371   7.777   3.652 -0.5623 -0.6255 -0.5072
   16MOL    C47 3377   7.388   7.845   3.536 -0.1048 -0.3764  0.2395
   16MOL    C48 3378   7.497   7.812   3.446 -0.3384 -0.1227 -0.1111
   16MOL    C49 3379   7.596   7.721   3.489 -0.0223  0.9379 -0.1198
   16MOL    C50 3380   7.579   7.659   3.617  0.7059  0.1958  0.0343
   16MOL    C51 3381   7.466   7.688   3.694 -0.2955  0.4257 -0.2712
   16MOL    O52 3382   7.446   7.624   3.812 -0.7582  0.8784  0.5439
   16MOL    H53 3383   7.282   7.803   3.707 -0.3771  0.3483 -0.6563
   16MOL    H54 3384   7.319   7.921   3.503 -0.8934 -1.3556 -0.4150
   16MOL    H55 3385   7.683   7.703   3.427  0.7736  1.5719  0.8135
   16MOL    H56 3386   7.650   7.581   3.642 -0.3049 -0.1799  1.8487
   16MOL    C57 3387   7.651   7.817   4.055  0.3890  0.1990 -0.8819
   16MOL    C58 3388   7.567   7.784   3.947  1.1443  0.4616 -0.5970
   16MOL    C59 3389   7.521   7.654   3.923  0.1063 -0.6008  0.9682
   16MOL    C60 3390   7.562   7.558   4.010  0.3760 -0.4388 -0.0725
   16MOL    C61 3391   7.639   7.579   4.118  0.1693  0.5861 -0.2137
   16MOL    C62 3392   7.683   7.711   4.140 -0.5774  0.7321 -0.7348
   16MOL    O63 3393   7.762   7.730   4.255 -0.1598 -0.2211  0.4972
   16MOL    H64 3394   7.684   7.919   4.068  0.0374  0.1114  0.7443
   16MOL    H65 3395   7.529   7.862   3.881 -2.2938  0.9328  1.8179
   16MOL    H66 3396   7.533   7.455   3.995  1.1076 -0.7059  0.3445
   16MOL    H67 3397   7.666   7.492   4.176 -1.2322  0.1038 -0.2719
   16MOL    C68 3398   7.816   8.063   4.418 -0.5538  0.2673 -0.1043
   16MOL    C69 3399   7.760   7.935   4.386 -0.6810 -1.1530 -0.3978
   16MOL    C70 3400   7.815   7.856   4.283  0.5671 -0.2572  0.2083
   16MOL    C71 3401   7.921   7.911   4.205 -0.2334  0.6155  0.2443
   16MOL    C72 3402   7.975   8.036   4.235  0.1982  0.4648 -0.2232
   16MOL    C73 3403   7.933   8.112   4.344 -0.9789 -0.1173 -0.4190
   16MOL    O74 3404   7.998   8.233   4.363  0.2630 -0.7201  0.0244
   16MOL    H75 3405   7.792   8.128   4.501 -1.5450  0.8732 -0.8539
   16MOL    H76 3406   7.677   7.895   4.442 -1.3586  0.4618 -0.2382
   16MOL    H77 3407   7.954   7.851   4.122 -0.5838  0.8215 -0.0411
   16MOL    H78 3408   8.054   8.079   4.176 -0.3504  1.9558  0.1015
   16MOL    C79 3409   7.964   0.227   4.634 -0.6979 -0.3289 -0.1002
   16MOL    C80 3410   7.960   0.160   4.508 -0.0852 -0.1174 -0.2422
   16MOL    C81 3411   8.003   0.027   4.490  0.2912 -0.2478 -0.7138
   16MOL    C82 3412   8.049   8.206   4.599 -0.2451  0.0271  0.1119
   16MOL    C83 3413   8.048   0.017   4.723 -0.3539  0.5112 -0.2959
   16MOL    C84 3414   8.003   0.149   4.744 -0.1730  0.4068  0.0368
   16MOL    O85 3415   8.007   0.203   4.872  0.1372  0.2380 -0.2971
   16MOL    H86 3416   7.931   0.329   4.642  3.0358  0.9089  0.5824
   16MOL    H87 3417   7.945   0.236   4.433 -2.1323  0.5441  0.7792
   16MOL    H88 3418   8.077   8.102   4.592  1.5809  0.5371 -0.5350
   16MOL    H89 3419   8.092   8.218   4.806 -0.9537 -0.8577 -0.8423
   16MOL    C90 3420   8.197   0.472   5.030  0.3981  0.6542 -0.1487
   16MOL    C91 3421   8.086   0.395   4.984  0.0202  0.2979 -0.1176
   16MOL    C92 3422   8.115   0.280   4.903 -0.1374  0.2384 -0.6666
   16MOL    C93 3423   8.243   0.231   4.883 -0.9450  0.2276 -0.1268
   16MOL    C94 3424   0.096   0.301   4.935  0.0191  0.3277  0.6768
   16MOL    C95 3425   0.075   0.422   5.008 -0.0897 -0.4551  0.2852
   16MOL    O96 3426   0.178   0.492   5.066  0.2101 -0.0045 -0.1527
   16MOL    H97 3427   8.173   0.563   5.083  2.4444  1.2437 -0.2174
   16MOL    H98 3428   7.985   0.428   5.003  0.0509  0.7638 -0.7731
   16MOL    H99 3429   0.010   0.136   4.836  0.3421 -0.1863  1.2591
   16MOL   H100 3430   0.196   0.261   4.933 -0.0926  0.0921 -0.2014
   16MOL   C101 3431   0.256   0.798   4.878 -0.3041 -0.8913 -0.3876
   16MOL   C102 3432   0.187   0.702   4.962 -0.2312  0.0073 -0.8922
   16MOL   C103 3433   0.246   0.575   4.984  1.5300  1.2360  0.4365
   16MOL   C104 3434   0.370   0.545   4.933  0.2478 -0.1447  0.2836
   16MOL   C105 3435   0.431   0.632   4.843  0.1728  0.5159  0.4702
   16MOL   C106 3436   0.372   0.757   4.815 -0.3264  0.8248 -0.0265
   16MOL   O107 3437   0.427   0.831   4.716 -0.0107  0.2419 -0.3293
   16MOL   H108 3438   0.210   0.886   4.835 -0.3223 -0.9733 -0.5359
   16MOL   H109 3439   0.092   0.721   5.009 -0.1187 -1.3225 -0.1064
   16MOL   H110 3440   0.416   0.455   4.970 -0.7175 -0.0102  1.8813
   16MOL   H111 3441   0.527   0.616   4.797 -0.7168 -0.6491 -1.0527
   16MOL   C112 3442   0.520   0.770   4.364  0.0555  0.4113 -0.8929
   16MOL   C113 3443   0.521   0.813   4.506  0.0685  0.0829  0.4648
   16MOL   C114 3444   0.414   0.780   4.590 -0.2361 -0.0930  0.1321
   16MOL   C115 3445   0.303   0.706   4.547  0.3655  0.5773  0.1968
   16MOL   C116 3446   0.300   0.674   4.412  0.1468  0.4381  0.2669
   16MOL   C117 3447   0.403   0.706   4.320 -0.1788 -0.6098 -0.1759
   16MOL   O118 3448   0.393   0.663   4.187 -0.5894  0.1652 -0.0817
   16MOL   H119 3449   0.608   0.787   4.303 -1.1742 -0.6572 -2.9974
   16MOL   H120 3450   0.603   0.873   4.542  1.9103 -1.1687 -1.5029
   16MOL   H121 3451   0.219   0.681   4.610 -1.2386 -0.2938 -2.2053
   16MOL   H122 3452   0.222   0.606   4.384 -1.2104  1.4815  1.4322
   16MOL   C123 3453   0.542   0.329   4.180 -0.6895  0.6046 -0.1693
   16MOL   C124 3454   0.530   0.467   4.211  0.6933  0.0629 -0.8962
   16MOL   C125 3455   0.409   0.529   4.175 -0.2773  0.3575  0.1330
   16MOL   C126 3456   0.302   0.450   4.119 -0.0176 -0.9157  0.4023
   16MOL   C127 3457   0.318   0.313   4.106 -0.2408 -0.1819  0.4670
   16MOL   C128 3458   0.436   0.249   4.141  0.3565  0.2453  0.2352
   16MOL   O129 3459   0.442   0.111   4.124  0.1766  0.3201  0.1662
   16MOL   H130 3460   0.630   0.274   4.211 -1.1895  0.2368  0.6048
   16MOL   H131 3461   0.615   0.526   4.242 -0.9188  2.2673 -0.5184
   16MOL   H132 3462   0.211   0.501   4.089  0.8892  1.7555  1.9757
   16MOL   H133 3463   0.237   0.255   4.064 -0.0185  0.3084 -0.6731
   16MOL   C134 3464   0.772   8.193   4.100 -0.1152  0.4728 -0.0591
   16MOL   C135 3465   0.659   0.012   4.060  0.7397  0.4088  0.2748
   16MOL   C136 3466   0.560   0.043   4.156  0.1700 -0.3031 -0.0641
   16MOL   C137 3467   0.574   8.252   4.292  0.3899 -0.1456 -0.2217
   16MOL   C138 3468   0.687   8.177   4.330 -0.2218  0.5610  0.0705
   16MOL   C139 3469   0.782   8.149   4.235  0.0437 -0.3926  0.1813
   16MOL   O140 3470   0.879   8.065   4.278 -0.0285  0.2234 -0.5165
   16MOL   H141 3471   0.858   8.180   4.037  1.4635  2.9966  1.4938
   16MOL   H142 3472   0.635   0.035   3.957  0.6317 -2.0353 -0.2657
   16MOL   H143 3473   0.505   0.025   4.370  0.4789 -0.8328  0.0947
   16MOL   H144 3474   0.703   8.148   4.433  0.3762 -2.0564 -0.7390
   16MOL   C145 3475   0.949   7.744   4.149 -0.7934 -0.2207 -0.6596
   16MOL   C146 3476   0.956   7.885   4.170  0.3678 -0.2561 -0.1316
   16MOL   C147 3477   0.862   7.936   4.253 -0.2464  0.0365 -0.3545
   16MOL   C148 3478   0.759   7.859   4.312 -0.4021 -0.1408  0.3685
   16MOL   C149 3479   0.750   7.722   4.291 -0.1098  0.5213 -0.3073
   16MOL   C150 3480   0.849   7.664   4.213 -0.2608  0.0633  0.2452
   16MOL   O151 3481   0.845   7.530   4.186 -0.0580  0.1163 -0.0355
   16MOL   H152 3482   1.019   7.698   4.081 -1.0879 -2.8432  0.7671
   16MOL   H153 3483   1.040   7.944   4.139  1.0870  0.1352  2.4652
   16MOL   H154 3484   0.685   7.911   4.371  0.2309 -0.1341  1.1619
   16MOL   H155 3485   0.659   7.679   4.331 -1.4889  3.5793  0.0184
   16MOL   C156 3486   0.599   7.477   3.917  1.0802 -0.2162 -0.4193
   16MOL   C157 3487   0.693   7.544   3.993 -0.1615 -0.0380 -0.2025
   16MOL   C158 3488   0.751   7.474   4.101  0.0535  0.8731  0.6272
   16MOL   C159 3489   0.710   7.339   4.125  0.3336  0.0306  0.0412
   16MOL   C160 3490   0.621   7.276   4.034 -0.0219  0.3809 -0.1403
   16MOL   C161 3491   0.560   7.341   3.930 -0.0171 -0.6811  0.3508
   16MOL   O162 3492   0.470   7.282   3.839 -1.2225 -0.1767 -0.3822
   16MOL   H163 3493   0.563   7.535   3.834  0.4092  0.5144  0.3686
   16MOL   H164 3494   0.727   7.643   3.969 -4.0978  1.0350 -1.7519
   16MOL   H165 3495   0.747   7.275   4.204 -0.9571  0.7921  1.2972
   16MOL   H166 3496   0.598   7.170   4.043  1.6088  0.1371  1.4802
   16MOL   C167 3497   0.130   7.370   3.967 -0.0371 -0.2592 -0.0573
   16MOL   C168 3498   0.266   7.386   3.939  1.0707 -0.4612  0.2793
   16MOL   C169 3499   0.336   7.290   3.864 -0.3509 -0.2227  0.5797
   16MOL   C170 3500   0.258   7.196   3.797 -1.0395 -0.6181 -0.2980
   16MOL   C171 3501   0.122   7.177   3.823 -0.2663 -0.1698  0.4281
   16MOL   C172 3502   0.054   7.262   3.906 -0.3375  0.0784 -0.1273
   16MOL   O173 3503   8.174   7.246   3.915  0.4502  1.0299 -0.0327
   16MOL   H174 3504   0.075   7.445   4.022 -1.0847 -0.7409 -0.4232
   16MOL   H175 3505   0.322   7.462   3.992 -0.5087  1.2253 -0.4499
   16MOL   H176 3506   0.312   7.132   3.728  0.4880  0.5540 -0.2371
   16MOL   H177 3507   0.086   7.094   3.765  1.7419 -1.2511  0.6904
   16MOL   C178 3508   7.992   7.386   4.199 -0.8299  0.3997 -0.2590
   16MOL   C179 3509   8.039   7.375   4.063 -0.9318 -0.2239 -0.2750
   16MOL   C180 3510   8.113   7.255   4.034  0.5632 -0.5410  0.1154
   16MOL   C181 3511   8.117   7.146   4.125 -0.5377  0.2421 -0.7976
   16MOL   C182 3512   8.053   7.155   4.250 -0.7815  0.4807  0.3493
   16MOL   C183 3513   7.994   7.275   4.285  0.2847 -0.8086 -0.5844
   16MOL   O184 3514   7.935   7.296   4.409  0.3001 -0.2046  0.6688
   16MOL   H185 3515   7.940   7.472   4.240 -3.0938 -0.9748 -0.1746
   16MOL   H186 3516   8.043   7.463   4.001 -3.0262 -1.3257 -2.0388
   16MOL   H187 3517   8.174   7.060   4.096  0.1237  0.4557 -0.1453
   16MOL   H188 3518   8.060   7.074   4.322  0.6931  1.5193  1.4026
   16MOL   C189 3519   8.172   7.216   4.692 -0.1377  0.0400 -0.0186
   16MOL   C190 3520   8.114   7.277   4.579  0.0899 -0.3168  0.4298
   16MOL   C191 3521   7.999   7.233   4.516 -0.0377  0.1971 -0.4027
   16MOL   C192 3522   7.928   7.132   4.575  0.1067  0.3316  0.9109
   16MOL   C193 3523   7.987   7.055   4.682 -0.7620  0.4622  0.2570
   16MOL   C194 3524   8.110   7.100   4.741 -0.7387 -0.0424 -0.2717
   16MOL   O195 3525   8.166   7.039   4.848  0.0399 -0.4658  0.2398
   16MOL   H196 3526   0.010   7.253   4.734 -0.8257  0.1413  1.4298
   16MOL   H197 3527   8.169   7.357   4.532  0.5196 -0.8014  0.1034
   16MOL   H198 3528   7.829   7.104   4.542  0.6346  0.9275 -1.2438
   16MOL   H199 3529   7.944   6.962   4.716  0.3378  0.6822  2.3012
   16MOL   C200 3530   0.060   6.720   4.737 -0.2268  0.6496 -0.0414
   16MOL   C201 3531   0.023   6.854   4.743  0.6430 -0.2343 -0.0135
   16MOL   C202 3532   8.202   6.908   4.844  0.1872  0.4222 -0.3735
   16MOL   C203 3533   8.152   6.826   4.949  0.3782  0.8522  0.2130
   16MOL   C204 3534   8.177   6.686   4.938  0.2853 -0.2121  0.3955
   16MOL   C205 3535   8.254   6.632   4.829  0.3197  0.1173 -0.5266
   16MOL   O206 3536   0.023   6.501   4.820 -0.6967  0.0575  0.2088
   16MOL   H207 3537   0.121   6.684   4.656 -1.4627  1.8998 -1.5723
   16MOL   H208 3538   0.058   6.925   4.669 -0.9748  0.8054  0.2204
   16MOL   H209 3539   8.090   6.863   5.030  0.5615  2.0404 -0.1836
   16MOL   H210 3540   8.138   6.621   5.014 -0.5405  0.2872  0.4055
   16MOL   C211 3541   8.061   6.218   4.743 -0.1625  0.1536  1.1068
   16MOL   C212 3542   8.154   6.298   4.807 -0.7152 -0.0276  0.3750
   16MOL   C213 3543   8.184   6.423   4.752  0.0635 -0.3786  0.1542
   16MOL   C214 3544   8.124   6.465   4.628  0.4288 -0.4997  0.3351
   16MOL   C215 3545   8.039   6.378   4.559 -0.1854 -0.6145  0.2382
   16MOL   C216 3546   8.011   6.255   4.614 -0.7939  1.0320 -1.0653
   16MOL   O217 3547   7.933   6.166   4.547  0.3451 -0.0026 -0.6439
   16MOL   H218 3548   8.026   6.122   4.779  1.1860 -0.1822  1.5407
   16MOL   H219 3549   8.193   6.260   4.900  1.9648  0.9931 -0.2777
   16MOL   H220 3550   8.159   6.554   4.578 -0.2182 -0.2156  0.3796
   16MOL   H221 3551   7.991   6.407   4.466 -2.8722 -1.4552  1.3072
   16MOL   H222 3552   7.925   6.075   4.571 -1.0879 -0.0079 -1.1263
   17MOL     C1 3553   7.694   6.792   2.878  0.2414 -0.1655  0.1278
   17MOL     C2 3554   7.661   6.768   3.012  0.5003 -0.3131 -0.4666
   17MOL     C3 3555   7.715   6.656   3.074 -0.3860 -0.0292 -0.4336
   17MOL     C4 3556   7.804   6.574   3.005  0.1666 -0.5312  0.4354
   17MOL     C5 3557   7.844   6.602   2.874 -0.0185 -0.5759  0.5536
   17MOL     C6 3558   7.792   6.715   2.813 -0.6825  0.0410  0.4276
   17MOL     O7 3559   7.836   6.765   2.691  0.0132  0.2151  0.2512
   17MOL     H8 3560   7.641   6.872   2.828  1.7104  1.8734  1.7721
   17MOL     H9 3561   7.587   6.830   3.060 -0.8643 -0.6311 -2.0813
   17MOL    H10 3562   7.846   6.486   3.052 -0.2511  0.2052  2.2481
   17MOL    H11 3563   7.913   6.535   2.825 -0.9053  0.2520 -1.8943
   17MOL    H12 3564   7.690   6.633   3.177  0.1224  0.1920 -0.2598
   17MOL    C13 3565   8.186   6.847   2.685 -0.2259  0.2745 -0.4995
   17MOL    C14 3566   8.052   6.844   2.722  0.5276  0.7298  0.2569
   17MOL    C15 3567   7.967   6.751   2.660 -0.3201  0.6234  0.0203
   17MOL    C16 3568   8.023   6.642   2.584  0.3327 -0.9167  0.2368
   17MOL    C17 3569   8.154   6.642   2.557 -0.4840  0.6983 -0.2310
   17MOL    C18 3570   8.241   6.743   2.601 -0.1347 -0.4320  0.2410
   17MOL    O19 3571   0.122   6.745   2.581  0.0593  0.9054 -0.6632
   17MOL    H20 3572   8.253   6.917   2.731  2.0292 -0.9553 -1.7957
   17MOL    H21 3573   8.011   6.917   2.789 -0.8347 -0.4995  0.7910
   17MOL    H22 3574   7.963   6.556   2.561 -0.3251 -0.4246  0.0881
   17MOL    H23 3575   8.203   6.555   2.514  0.1619  1.6520 -1.4477
   17MOL    C24 3576   0.198   6.765   2.221  0.2339 -0.1402 -0.0581
   17MOL    C25 3577   0.146   6.794   2.349 -0.6603  0.5742 -0.7589
   17MOL    C26 3578   0.185   6.721   2.463  0.8465 -0.1545 -0.2188
   17MOL    C27 3579   0.297   6.632   2.455  0.1174  0.3074 -0.1643
   17MOL    C28 3580   0.355   6.608   2.323 -0.4335 -0.4350 -0.6138
   17MOL    C29 3581   0.314   6.680   2.209  0.9030  0.3568  0.2079
   17MOL    O30 3582   0.388   6.683   2.093  0.4207  0.3635 -0.1425
   17MOL    H31 3583   0.166   6.812   2.129  0.3990 -0.7065 -0.4085
   17MOL    H32 3584   0.073   6.874   2.345  0.0686  1.5108  2.8034
   17MOL    H33 3585   0.326   6.571   2.540  0.3110  1.6680  0.7589
   17MOL    H34 3586   0.443   6.546   2.317 -0.7162 -0.9133  0.1108
   17MOL    C35 3587   0.300   6.347   1.930 -0.2976 -0.0745 -1.0548
   17MOL    C36 3588   0.296   6.459   2.024 -0.2767 -0.9340 -0.1189
   17MOL    C37 3589   0.386   6.566   2.010 -0.1636 -0.5052  0.0504
   17MOL    C38 3590   0.490   6.551   1.914 -0.0322  0.3293  0.0456
   17MOL    C39 3591   0.499   6.435   1.830  0.4449  0.6498  0.0956
   17MOL    C40 3592   0.403   6.335   1.835 -0.1398 -0.4889 -0.2318
   17MOL    O41 3593   0.417   6.226   1.752 -0.1605 -0.3107  0.1771
   17MOL    H42 3594   0.235   6.264   1.950 -1.3960  0.6394 -1.6393
   17MOL    H43 3595   0.227   6.463   2.107 -1.7383  0.6820 -1.3675
   17MOL    H44 3596   0.553   6.635   1.892 -2.7166  2.1773 -0.8228
   17MOL    H45 3597   0.578   6.426   1.757 -0.5911  2.3009 -1.2507
   17MOL    C46 3598   0.187   6.257   1.473  0.5716  0.1622  0.1752
   17MOL    C47 3599   0.268   6.296   1.579  0.4437  0.1835 -0.8252
   17MOL    C48 3600   0.314   6.196   1.666  0.7386 -0.3967  0.2869
   17MOL    C49 3601   0.287   6.062   1.649  0.2124  0.4148 -0.0346
   17MOL    C50 3602   0.201   6.020   1.545  0.3560 -0.2907  0.0074
   17MOL    C51 3603   0.159   6.115   1.446  0.1830 -0.1199  0.1288
   17MOL    O52 3604   0.089   6.078   1.334  0.8109  0.9781 -0.5549
   17MOL    H53 3605   0.161   6.331   1.398  1.7607  0.2424 -0.1547
   17MOL    H54 3606   0.299   6.399   1.580 -0.3585  0.4330 -0.0412
   17MOL    H55 3607   0.333   5.993   1.718  3.0860  1.5247 -0.7593
   17MOL    H56 3608   0.179   5.914   1.537  0.4782 -0.3192  0.0574
   17MOL    C57 3609   0.274   6.156   1.031  0.0974 -0.5626 -0.5705
   17MOL    C58 3610   0.239   6.107   1.158 -0.0915  0.9886 -0.4764
   17MOL    C59 3611   0.119   6.137   1.214 -0.1651  1.0963  0.2405
   17MOL    C60 3612   0.021   6.211   1.143  0.0394 -0.6882 -0.4351
   17MOL    C61 3613   0.052   6.256   1.014  0.2713 -0.5651  0.2465
   17MOL    C62 3614   0.183   6.240   0.961  0.3650 -0.3810 -0.4614
   17MOL    O63 3615   0.206   6.305   0.839  0.1390  0.3301 -0.2802
   17MOL    H64 3616   0.373   6.145   0.990  0.4751  2.1983 -0.4501
   17MOL    H65 3617   0.312   6.062   1.224 -1.0059  0.5267  0.2364
   17MOL    H66 3618   8.180   6.223   1.194  0.5274 -1.7614  0.7565
   17MOL    H67 3619   8.244   6.323   0.956  1.8008  1.1960  0.5934
   17MOL    C68 3620   0.409   6.101   0.593 -0.4554 -0.0930 -0.0318
   17MOL    C69 3621   0.301   6.143   0.672 -0.2254  0.2029  0.5284
   17MOL    C70 3622   0.303   6.265   0.751  0.5363  0.0735 -0.8641
   17MOL    C71 3623   0.420   6.343   0.730  0.0787 -0.9831 -0.0331
   17MOL    C72 3624   0.532   6.307   0.653  0.3848 -0.7588  0.9155
   17MOL    C73 3625   0.528   6.183   0.592 -0.7372  0.2521  0.8281
   17MOL    O74 3626   0.641   6.146   0.516  0.0926  0.1987 -0.6938
   17MOL    H75 3627   0.410   6.008   0.538  1.1095  1.4275 -2.6429
   17MOL    H76 3628   0.214   6.079   0.682 -0.7296  0.9577  0.9879
   17MOL    H77 3629   0.420   6.437   0.785 -4.9712 -0.0326 -1.4441
   17MOL    H78 3630   0.627   6.359   0.649 -1.0652  1.9912  1.4427
   17MOL    C79 3631   0.609   5.823   0.339 -0.3316 -0.2949 -0.8853
   17MOL    C80 3632   0.602   5.962   0.368 -0.6526  0.1052 -0.1692
   17MOL    C81 3633   0.665   6.017   0.479  0.5123 -0.1166 -0.2591
   17MOL    C82 3634   0.735   5.933   0.570 -0.2582 -0.4349 -0.1462
   17MOL    C83 3635   0.758   5.799   0.536  0.8415 -0.2190 -0.6506
   17MOL    C84 3636   0.698   5.746   0.416 -0.5815 -0.5629  0.9537
   17MOL    O85 3637   0.724   5.615   0.379  0.1563 -0.4056 -0.6052
   17MOL    H86 3638   0.565   5.777   0.251  0.0180  0.7171 -1.5944
   17MOL    H87 3639   0.532   6.018   0.308 -2.6751 -1.9912  0.1549
   17MOL    H88 3640   0.778   5.976   0.659  0.3875 -2.8105  0.7138
   17MOL    H89 3641   0.820   5.742   0.604  0.8393  1.8157  1.1065
   17MOL    C90 3642   0.954   5.584   0.095  0.3699 -0.3390  0.0797
   17MOL    C91 3643   0.848   5.631   0.177  0.4739 -1.0657  0.1276
   17MOL    C92 3644   0.832   5.590   0.311 -0.3996  0.3883 -0.8456
   17MOL    C93 3645   0.933   5.507   0.370 -0.0925  0.2843  0.1191
   17MOL    C94 3646   1.041   5.463   0.290 -0.2348  0.3472  0.5019
   17MOL    C95 3647   1.050   5.498   0.152  0.7296  0.0687 -0.1667
   17MOL    O96 3648   1.144   5.448   0.071 -0.1680 -0.0984  0.0961
   17MOL    H97 3649   0.958   5.611   8.245 -0.6944  1.1570  0.4218
   17MOL    H98 3650   0.777   5.701   0.137  0.2099 -1.4377 -0.0597
   17MOL    H99 3651   0.925   5.484   0.475 -2.1111  0.9531  0.1311
   17MOL   H100 3652   1.117   5.392   0.318  1.5617  0.5848 -3.3992
   17MOL   C101 3653   1.020   5.186   8.099 -0.4342 -0.0405 -0.2713
   17MOL   C102 3654   1.059   5.254   8.217  0.1882 -0.0423  0.0193
   17MOL   C103 3655   1.098   5.385   8.213  0.5193  0.4799 -0.2835
   17MOL   C104 3656   1.108   5.450   8.088  0.3587  0.1125  0.6860
   17MOL   C105 3657   1.073   5.385   7.968 -0.1313  0.2297  0.0131
   17MOL   C106 3658   1.033   5.251   7.976 -0.5683  0.1459  0.1163
   17MOL   O107 3659   1.009   5.186   7.856  0.5693  0.5009  0.1131
   17MOL   H108 3660   0.974   5.088   8.099 -0.2353 -0.1668 -2.6314
   17MOL   H109 3661   1.054   5.201   0.057  3.0149  0.2552  0.3704
   17MOL   H110 3662   1.146   5.550   8.075  1.0253 -0.3226 -0.8976
   17MOL   H111 3663   1.091   5.439   7.876 -0.5181 -0.7618 -0.6569
   17MOL   C112 3664   1.250   4.905   7.809 -0.1986 -1.1165 -0.9957
   17MOL   C113 3665   1.201   5.033   7.823  0.2383 -0.3537 -0.7987
   17MOL   C114 3666   1.064   5.057   7.837 -0.6813 -0.4132  0.4005
   17MOL   C115 3667   0.972   4.947   7.850  0.1124  0.3059 -0.3638
   17MOL   C116 3668   1.025   4.819   7.833 -0.6028 -0.3358  0.4371
   17MOL   C117 3669   1.159   4.799   7.805  0.5226  0.2620 -0.8698
   17MOL   O118 3670   1.207   4.669   7.799  0.4489  0.0606 -0.2171
   17MOL   H119 3671   1.357   4.892   7.810 -0.1455 -0.6873  0.4461
   17MOL   H120 3672   1.276   5.110   7.830  0.1320 -0.3493  0.3575
   17MOL   H121 3673   0.865   4.960   7.855  0.2962  0.6597  3.3166
   17MOL   H122 3674   0.964   4.731   7.843 -0.5000 -0.5465 -0.7791
   17MOL   C123 3675   1.197   4.606   7.439  0.3234 -0.4568 -0.2089
   17MOL   C124 3676   1.161   4.636   7.573  0.1397  0.8566 -0.7635
   17MOL   C125 3677   1.246   4.619   7.682 -0.2253 -0.6524 -0.5626
   17MOL   C126 3678   1.378   4.577   7.653  0.3298  0.0646 -0.1990
   17MOL   C127 3679   1.411   4.538   7.521  0.2689  1.0801 -0.1658
   17MOL   C128 3680   1.324   4.560   7.412 -0.5157  0.6805 -0.3967
   17MOL   O129 3681   1.366   4.544   7.283  0.1037 -0.5004  0.0032
   17MOL   H130 3682   1.123   4.624   7.363  0.2278  0.5696  0.1113
   17MOL   H131 3683   1.066   4.682   7.592  0.0407  0.5925 -0.6165
   17MOL   H132 3684   1.454   4.566   7.729  0.3405 -2.3494 -0.5265
   17MOL   H133 3685   1.509   4.496   7.500 -0.1474 -0.0619  0.1483
   17MOL   C134 3686   1.711   4.512   7.150  0.1358 -0.0963  0.7434
   17MOL   C135 3687   1.589   4.472   7.207  0.3501 -0.3776  0.1096
   17MOL   C136 3688   1.495   4.572   7.244  0.8221  0.2007 -0.2565
   17MOL   C137 3689   1.529   4.707   7.247 -0.2149 -0.8143 -0.3350
   17MOL   C138 3690   1.658   4.742   7.204  0.1046 -0.4150 -0.0074
   17MOL   C139 3691   1.747   4.645   7.156  0.3782 -0.6052  0.2745
   17MOL   O140 3692   1.864   4.673   7.100 -0.3162  0.5667  0.3029
   17MOL   H141 3693   1.770   4.437   7.098  0.9849  1.5183 -0.6741
   17MOL   H142 3694   1.556   4.369   7.212  1.6627 -0.8888 -1.4362
   17MOL   H143 3695   1.453   4.783   7.258  0.5276 -0.2128  0.7051
   17MOL   H144 3696   1.681   4.847   7.193  0.4911 -0.2085  2.6163
   17MOL   C145 3697   1.997   5.010   7.057 -0.4190 -0.6350  0.2066
   17MOL   C146 3698   1.948   4.883   7.026  0.0852  0.0491  0.4286
   17MOL   C147 3699   1.923   4.795   7.127 -0.5782  0.3947 -0.2934
   17MOL   C148 3700   1.977   4.821   7.256  0.2862 -0.1843 -0.0416
   17MOL   C149 3701   2.051   4.936   7.272 -0.3147  0.4398  0.2727
   17MOL   C150 3702   2.063   5.037   7.181  0.4506 -0.7852  0.3268
   17MOL   O151 3703   2.133   5.148   7.212 -0.1242 -0.3489 -0.3197
   17MOL   H152 3704   1.989   5.093   6.988  2.7596  1.3030  2.0619
   17MOL   H153 3705   1.909   4.861   6.928  1.2363 -0.1915  0.0182
   17MOL   H154 3706   1.977   4.749   7.336  0.7360  0.0371  0.1548
   17MOL   H155 3707   2.097   4.953   7.368  1.1759 -1.8361 -0.0022
   17MOL   C156 3708   2.229   5.341   6.908  0.1684  0.1795  0.3357
   17MOL   C157 3709   2.241   5.245   7.011 -0.0332 -0.6295  0.0138
   17MOL   C158 3710   2.140   5.242   7.112 -0.0983  0.0889  0.4873
   17MOL   C159 3711   2.037   5.339   7.110  0.3712 -0.1461  0.2235
   17MOL   C160 3712   2.025   5.437   7.003 -0.5397  0.2102  0.3500
   17MOL   C161 3713   2.125   5.438   6.902  0.0312 -0.1193 -0.2669
   17MOL   O162 3714   2.127   5.532   6.800 -0.2364 -0.3760 -0.2913
   17MOL   H163 3715   2.305   5.335   6.832  0.9053 -0.3435  1.1016
   17MOL   H164 3716   2.319   5.172   6.994  0.9144  0.0838  1.1998
   17MOL   H165 3717   1.961   5.337   7.188  0.0611 -1.1116 -0.0922
   17MOL   H166 3718   1.944   5.507   7.013 -0.6809  0.0608  0.2384
   17MOL   C167 3719   2.224   5.866   6.931 -0.2902  0.0847 -0.1083
   17MOL   C168 3720   2.228   5.725   6.901 -0.3803  0.2174  0.2218
   17MOL   C169 3721   2.116   5.665   6.843  0.2258 -0.1865 -1.1579
   17MOL   C170 3722   1.993   5.736   6.826 -0.1019 -1.1096 -0.0637
   17MOL   C171 3723   1.997   5.874   6.843  0.2639 -0.2697  0.1263
   17MOL   C172 3724   2.103   5.940   6.906 -0.3536 -0.2372 -0.2429
   17MOL   O173 3725   2.101   6.077   6.934  0.1426  0.1225 -0.0392
   17MOL   H174 3726   2.309   5.923   6.965 -1.6729  1.4699  1.1189
   17MOL   H175 3727   2.312   5.658   6.916 -0.4341 -0.0231 -0.5389
   17MOL   H176 3728   1.900   5.693   6.790 -0.3268  0.4441 -1.3925
   17MOL   H177 3729   1.905   5.926   6.819  0.7213  0.4556 -0.0557
   17MOL   C178 3730   2.376   6.244   7.099 -0.1923 -0.5234  0.2511
   17MOL   C179 3731   2.294   6.191   7.000  0.7955  0.5145  0.0431
   17MOL   C180 3732   2.174   6.135   7.037  0.5868  0.3308  0.8312
   17MOL   C181 3733   2.128   6.132   7.168  0.6057 -0.3780  0.1435
   17MOL   C182 3734   2.206   6.190   7.268 -0.1632  0.1507  0.4536
   17MOL   C183 3735   2.325   6.250   7.233 -0.6233 -0.6004 -0.6920
   17MOL   O184 3736   2.401   6.314   7.320 -0.2659 -0.2623 -0.2458
   17MOL   H185 3737   2.473   6.283   7.073  0.2331 -2.8146 -1.7309
   17MOL   H186 3738   2.325   6.183   6.897  0.7493 -0.6399  0.1039
   17MOL   H187 3739   2.032   6.092   7.199  0.7608  0.1485  1.3343
   17MOL   H188 3740   2.164   6.188   7.367  0.1576  0.5860  0.6000
   17MOL   C189 3741   2.424   6.338   7.682 -0.0334  0.3700 -0.6098
   17MOL   C190 3742   2.453   6.315   7.550  0.2218  0.3226  0.3810
   17MOL   C191 3743   2.364   6.351   7.446  0.2354  0.1442  0.6876
   17MOL   C192 3744   2.250   6.430   7.476  0.0784 -0.3153  0.1216
   17MOL   C193 3745   2.224   6.467   7.607 -0.0267  0.2079  0.0421
   17MOL   C194 3746   2.306   6.419   7.712  0.3529 -0.0081  0.1748
   17MOL   O195 3747   2.281   6.453   7.842 -0.4904 -0.2950  0.1217
   17MOL   H196 3748   2.481   6.319   7.772  3.4197  0.6431 -2.6626
   17MOL   H197 3749   2.542   6.258   7.529  0.5405  1.1748 -0.6565
   17MOL   H198 3750   2.194   6.485   7.402  0.8809  0.4723  0.0777
   17MOL   H199 3751   2.133   6.520   7.632 -1.2543 -0.8035 -2.1400
   17MOL   C200 3752   2.414   6.791   7.908  0.0925  0.9223 -0.0064
   17MOL   C201 3753   2.340   6.688   7.853 -0.1787  0.6419 -0.3362
   17MOL   C202 3754   2.355   6.554   7.896 -0.4059  0.2516 -0.1325
   17MOL   C203 3755   2.443   6.528   8.007  0.5621  0.1073 -0.0819
   17MOL   C204 3756   2.515   6.633   8.066  0.2703 -0.5106 -0.2175
   17MOL   C205 3757   2.513   6.764   8.008  0.1752 -0.8727 -0.1525
   17MOL   O206 3758   2.576   6.865   8.073 -0.5864 -0.2595 -0.1647
   17MOL   H207 3759   2.405   6.887   7.860  2.2042  1.4447  0.6024
   17MOL   H208 3760   2.265   6.697   7.775 -1.0394 -1.8289  0.1363
   17MOL   H209 3761   2.437   6.425   8.037  0.8197 -0.6889 -2.6015
   17MOL   H210 3762   2.568   6.619   8.159  0.3264  0.3488 -0.1215
   17MOL   C211 3763   2.727   7.194   8.001 -0.3505 -0.2088 -0.3817
   17MOL   C212 3764   2.649   7.094   8.054 -0.5368 -0.0680  0.5690
   17MOL   C213 3765   2.648   6.962   8.009 -0.3526  0.8747  0.0993
   17MOL   C214 3766   2.728   6.927   7.896  0.4156 -0.0273 -0.9190
   17MOL   C215 3767   2.811   7.029   7.841  0.0913 -0.0420 -0.7674
   17MOL   C216 3768   2.809   7.162   7.890  0.7295  0.2659 -0.0196
   17MOL   O217 3769   2.893   7.259   7.846  0.5369 -0.5262 -0.2066
   17MOL   H218 3770   2.717   7.293   8.042 -3.4740  0.3067 -2.1762
   17MOL   H219 3771   2.601   7.140   8.139 -0.5695 -0.6534  0.8645
   17MOL   H220 3772   2.730   6.822   7.872  0.5722 -0.2962  0.2084
   17MOL   H221 3773   2.871   7.007   7.753  0.6584 -0.3672 -0.3010
   17MOL   H222 3774   2.930   7.230   7.764  0.9327 -1.8151  0.4049
   18MOL     C1 3775   6.182   4.453   0.447 -0.1857  0.9532 -0.5027
   18MOL     C2 3776   6.245   4.573   0.407  0.4686  0.1765  0.0215
   18MOL     C3 3777   6.385   4.575   0.379 -0.7268 -0.5421  0.4395
   18MOL     C4 3778   6.459   4.458   0.377  1.1012  0.1296  0.5913
   18MOL     C5 3779   6.399   4.335   0.424  0.2205  0.6883  0.4040
   18MOL     C6 3780   6.260   4.332   0.461 -0.1269  0.0444 -0.0408
   18MOL     O7 3781   6.201   4.216   0.499  0.2145 -0.3355 -0.0225
   18MOL     H8 3782   6.077   4.455   0.468 -0.5687  1.4840 -2.3785
   18MOL     H9 3783   6.180   4.659   0.399 -0.7801 -0.7103  0.5361
   18MOL    H10 3784   6.564   4.461   0.350  0.7706 -1.4747 -0.9846
   18MOL    H11 3785   6.458   4.246   0.413  0.2732  0.8658 -0.8567
   18MOL    H12 3786   6.428   4.668   0.344 -0.6921 -0.6558  0.1809
   18MOL    C13 3787   6.151   4.279   0.857  0.5270 -0.5805 -0.2434
   18MOL    C14 3788   6.220   4.267   0.733  0.2815 -0.2356 -0.2923
   18MOL    C15 3789   6.150   4.213   0.623 -0.0428  0.2862 -1.0136
   18MOL    C16 3790   6.022   4.152   0.643 -0.7613  0.4843  0.1738
   18MOL    C17 3791   5.960   4.169   0.764  0.1133 -0.1027 -0.6455
   18MOL    C18 3792   6.022   4.232   0.872  0.0839  0.1533 -0.1486
   18MOL    O19 3793   5.958   4.248   0.991  0.2936 -0.0284  0.0317
   18MOL    H20 3794   6.201   4.319   0.944  1.2937  0.9617 -1.3720
   18MOL    H21 3795   6.320   4.305   0.723  0.6568 -0.7594  1.2835
   18MOL    H22 3796   5.971   4.119   0.554  0.6497  1.1094 -0.8695
   18MOL    H23 3797   5.859   4.131   0.778 -0.0212  1.0210  1.7253
   18MOL    C24 3798   5.982   3.966   1.232 -0.1881  0.3711  0.4398
   18MOL    C25 3799   6.015   4.078   1.149 -0.3957  0.4582  0.3217
   18MOL    C26 3800   5.923   4.138   1.064  0.0160  0.3797 -0.0194
   18MOL    C27 3801   5.794   4.086   1.062  0.0790  0.2358  0.4730
   18MOL    C28 3802   5.757   3.988   1.152  0.4419  0.5157 -0.1368
   18MOL    C29 3803   5.850   3.921   1.235  0.5135 -0.0010  0.2218
   18MOL    O30 3804   5.813   3.816   1.314  0.2682 -0.0329  0.9005
   18MOL    H31 3805   6.051   3.921   1.301  1.3892  2.0304 -0.0169
   18MOL    H32 3806   6.118   4.112   1.144 -0.4803  0.6037 -0.4403
   18MOL    H33 3807   5.724   4.125   0.989  0.6558  0.8494  0.2431
   18MOL    H34 3808   5.656   3.954   1.171  0.8588 -0.7804 -0.2213
   18MOL    C35 3809   5.785   3.517   1.118 -0.1804  0.0225 -0.3334
   18MOL    C36 3810   5.836   3.633   1.181  0.1147  0.2920 -0.2976
   18MOL    C37 3811   5.752   3.709   1.259  0.1565 -0.1193  0.7391
   18MOL    C38 3812   5.616   3.688   1.274  0.4960  0.5040  0.2147
   18MOL    C39 3813   5.564   3.565   1.223  0.1385 -0.6568  0.4206
   18MOL    C40 3814   5.648   3.483   1.145  0.1938  0.1499  0.9341
   18MOL    O41 3815   5.599   3.362   1.100 -0.4905 -0.5873  0.4602
   18MOL    H42 3816   5.849   3.458   1.054  2.1886  1.9939  0.1631
   18MOL    H43 3817   5.942   3.651   1.175  0.2923 -1.0035 -1.2980
   18MOL    H44 3818   5.564   3.765   1.330 -0.6659 -0.0504 -0.0916
   18MOL    H45 3819   5.462   3.537   1.244  0.1383 -0.9315  0.0617
   18MOL    C46 3820   5.340   3.116   1.183  0.1914  0.4902 -0.0295
   18MOL    C47 3821   5.405   3.224   1.120  0.1643 -0.1793 -0.1375
   18MOL    C48 3822   5.529   3.271   1.173  0.9144  0.1253 -0.3196
   18MOL    C49 3823   5.579   3.206   1.290 -0.3700 -0.2754 -0.9207
   18MOL    C50 3824   5.517   3.097   1.352  0.0669  0.0035 -0.1377
   18MOL    C51 3825   5.386   3.058   1.306 -0.0746  0.3711 -0.2592
   18MOL    O52 3826   5.313   2.954   1.369 -0.5955 -0.2794  0.1020
   18MOL    H53 3827   5.252   3.076   1.134 -1.5041  0.9252  2.5880
   18MOL    H54 3828   5.356   3.274   1.038 -0.7934  0.1562  0.6194
   18MOL    H55 3829   5.677   3.232   1.327 -0.9715 -1.6762  1.7294
   18MOL    H56 3830   5.565   3.046   1.434 -2.2124 -0.6229  0.8389
   18MOL    C57 3831   4.988   3.026   1.517 -0.3290 -0.5995 -0.0492
   18MOL    C58 3832   5.084   2.990   1.422 -0.4127  0.8840  0.2118
   18MOL    C59 3833   5.220   2.998   1.460 -0.1549 -0.7911 -0.8905
   18MOL    C60 3834   5.261   3.048   1.581  0.3887  0.7415  0.0408
   18MOL    C61 3835   5.161   3.089   1.676 -0.6818  0.4704  0.2689
   18MOL    C62 3836   5.026   3.066   1.650  0.0929 -0.8527  0.4318
   18MOL    O63 3837   4.924   3.106   1.737  0.1494  0.1816 -0.3556
   18MOL    H64 3838   4.883   3.006   1.505 -0.5032 -0.2257  0.7645
   18MOL    H65 3839   5.045   2.944   1.332  1.2685  1.2370 -0.7252
   18MOL    H66 3840   5.364   3.040   1.611  0.2873 -0.0038  0.1935
   18MOL    H67 3841   5.182   3.113   1.780 -1.0120  2.3315 -0.0682
   18MOL    C68 3842   4.625   2.949   1.898  0.0637 -0.8269  0.2327
   18MOL    C69 3843   4.707   3.051   1.843 -0.6647 -0.0283 -0.1725
   18MOL    C70 3844   4.832   3.013   1.789  0.0608 -0.2509  0.3500
   18MOL    C71 3845   4.875   2.878   1.801  0.4302  0.4282  0.3399
   18MOL    C72 3846   4.787   2.781   1.847 -0.6801  1.1325 -0.3172
   18MOL    C73 3847   4.663   2.814   1.891  0.4484 -0.2480  0.2834
   18MOL    O74 3848   4.571   2.717   1.937  0.1033  0.5539 -0.1723
   18MOL    H75 3849   4.532   2.967   1.951 -0.5524 -0.9757 -0.7888
   18MOL    H76 3850   4.676   3.154   1.844 -2.0813 -0.4301  2.7031
   18MOL    H77 3851   4.975   2.844   1.780  0.7520  1.1601  0.6468
   18MOL    H78 3852   4.826   2.680   1.842  0.4326  1.5491 -0.1960
   18MOL    C79 3853   4.645   2.533   2.245  0.2653  0.3446  0.4154
   18MOL    C80 3854   4.603   2.635   2.164 -0.2580  0.3188 -0.3321
   18MOL    C81 3855   4.612   2.619   2.027  1.4991 -0.3094 -0.2256
   18MOL    C82 3856   4.659   2.500   1.971 -0.0179 -0.3245  0.0011
   18MOL    C83 3857   4.693   2.398   2.059 -0.5904  0.1309 -0.1020
   18MOL    C84 3858   4.690   2.411   2.197  0.7078  0.0457 -0.2010
   18MOL    O85 3859   4.731   2.317   2.285  0.6596  0.0607  0.4966
   18MOL    H86 3860   4.661   2.547   2.351  1.0791 -2.5041  0.7198
   18MOL    H87 3861   4.567   2.729   2.204  3.5081  0.8701  2.0168
   18MOL    H88 3862   4.668   2.471   1.867 -2.0666  0.8324 -0.5411
   18MOL    H89 3863   4.727   2.302   2.023 -0.9968  0.0911 -0.3910
   18MOL    C90 3864   4.567   1.993   2.196  0.3671  0.1089 -0.1252
   18MOL    C91 3865   4.595   2.132   2.185 -0.1334  0.5303  0.3402
   18MOL    C92 3866   4.706   2.180   2.261 -0.5268 -0.2368  0.2293
   18MOL    C93 3867   4.797   2.086   2.328 -0.0863 -0.6328  0.4625
   18MOL    C94 3868   4.781   1.949   2.323 -0.3793 -0.1843 -0.1935
   18MOL    C95 3869   4.664   1.904   2.252  0.5154 -0.2279 -0.0985
   18MOL    O96 3870   4.639   1.774   2.244  0.2922  0.3317 -0.3613
   18MOL    H97 3871   4.479   1.943   2.158  0.0794  0.3150  0.2690
   18MOL    H98 3872   4.531   2.205   2.138  0.5249 -0.0089 -1.4276
   18MOL    H99 3873   4.879   2.133   2.380  0.2664  1.4561 -1.9028
   18MOL   H100 3874   4.852   1.887   2.375 -0.8080 -0.0692  0.5401
   18MOL   C101 3875   4.464   1.675   2.556  0.2021 -0.0405  0.2621
   18MOL   C102 3876   4.505   1.750   2.442 -0.1844 -0.3665  0.1103
   18MOL   C103 3877   4.616   1.710   2.361  0.5200 -0.3088  0.0995
   18MOL   C104 3878   4.686   1.598   2.400  0.2750 -0.3857  0.2323
   18MOL   C105 3879   4.649   1.519   2.513  0.3486 -0.0619  0.1344
   18MOL   C106 3880   4.536   1.555   2.589  0.3406 -0.1398  0.1811
   18MOL   O107 3881   4.497   1.485   2.710  0.1929 -0.4483  0.7265
   18MOL   H108 3882   4.387   1.704   2.626  2.7468  1.5480  2.5288
   18MOL   H109 3883   4.445   1.835   2.415  1.1890  0.1565 -1.3230
   18MOL   H110 3884   4.778   1.569   2.351  0.7523  0.8420  0.3802
   18MOL   H111 3885   4.711   1.436   2.542  1.0625 -0.0504 -1.3333
   18MOL   C112 3886   4.630   1.146   2.794 -0.8378 -0.7881 -0.1883
   18MOL   C113 3887   4.597   1.286   2.804 -0.5348  0.2241  0.1299
   18MOL   C114 3888   4.509   1.346   2.715  0.5749  0.3224  0.0076
   18MOL   C115 3889   4.427   1.267   2.635  0.2981 -0.4698 -0.0240
   18MOL   C116 3890   4.451   1.128   2.632  0.3975  0.0820  0.4032
   18MOL   C117 3891   4.555   1.066   2.705 -0.7369 -0.1787  0.0404
   18MOL   O118 3892   4.568   0.928   2.699  0.2333  0.4432  0.3663
   18MOL   H119 3893   4.706   1.113   2.864 -1.3059 -1.4003  0.0261
   18MOL   H120 3894   4.664   1.339   2.870 -0.8012 -0.3953  0.9056
   18MOL   H121 3895   4.358   1.316   2.568 -0.8306 -0.4188  1.1486
   18MOL   H122 3896   4.391   1.073   2.561  0.1887 -0.5973  1.1167
   18MOL   C123 3897   4.934   0.853   2.666  0.6614  0.0909  0.1407
   18MOL   C124 3898   4.805   0.915   2.645 -0.7602 -0.3103  0.1748
   18MOL   C125 3899   4.690   0.868   2.714 -0.0784  0.2847 -0.9976
   18MOL   C126 3900   4.708   0.764   2.808 -0.5898 -0.0526  0.1364
   18MOL   C127 3901   4.833   0.699   2.828 -0.3026 -0.2494 -0.2039
   18MOL   C128 3902   4.946   0.746   2.756  0.5496 -0.2442  0.4730
   18MOL   O129 3903   5.072   0.683   2.771  0.3452  0.0086  0.7151
   18MOL   H130 3904   5.019   0.889   2.610  0.5262 -1.4206 -1.0649
   18MOL   H131 3905   4.803   0.999   2.578  0.1947 -0.8753 -0.5735
   18MOL   H132 3906   4.618   0.733   2.858  0.4594 -1.7867  0.9960
   18MOL   H133 3907   4.838   0.607   2.884 -0.9282 -0.9233 -1.2230
   18MOL   C134 3908   5.223   0.861   3.068  0.0418  0.8281  0.0113
   18MOL   C135 3909   5.134   0.832   2.960 -0.5265  0.8654 -0.1884
   18MOL   C136 3910   5.162   0.726   2.864 -0.3335  0.4398 -0.1178
   18MOL   C137 3911   5.269   0.641   2.895 -0.0513  0.4898 -0.0241
   18MOL   C138 3912   5.359   0.668   2.998 -0.0543 -0.1123 -0.4675
   18MOL   C139 3913   5.333   0.777   3.084 -0.9229 -0.7836 -0.2381
   18MOL   O140 3914   5.420   0.808   3.183  0.5543 -0.0715  0.4938
   18MOL   H141 3915   5.191   0.934   3.141  2.9380  1.4430  0.7248
   18MOL   H142 3916   5.043   0.889   2.961  1.6009  4.4197 -1.1593
   18MOL   H143 3917   5.283   0.552   2.836  1.0282 -1.0611  2.4470
   18MOL   H144 3918   5.442   0.600   3.009  0.7661  1.1286  1.3219
   18MOL   C145 3919   5.741   0.874   3.035  0.4982 -0.2330 -0.0032
   18MOL   C146 3920   5.605   0.894   3.064 -0.0311  0.8213 -0.4424
   18MOL   C147 3921   5.555   0.809   3.162 -0.3122  0.5907 -0.3928
   18MOL   C148 3922   5.633   0.708   3.233  0.8008  0.2086  0.4471
   18MOL   C149 3923   5.761   0.689   3.201  0.1559  0.3111  0.3101
   18MOL   C150 3924   5.815   0.764   3.095 -0.9854 -0.0614 -0.1694
   18MOL   O151 3925   5.946   0.751   3.053  0.2497 -0.2065  0.3595
   18MOL   H152 3926   5.782   0.940   2.959  0.1845 -1.0990 -0.9235
   18MOL   H153 3927   5.548   0.974   3.019 -0.6937  1.9214  2.2583
   18MOL   H154 3928   5.590   0.647   3.311  0.5793  0.1913  0.3079
   18MOL   H155 3929   5.817   0.607   3.242  0.3907 -0.0036 -0.6233
   18MOL   C156 3930   6.156   0.771   3.357  0.7426 -0.4793  0.1704
   18MOL   C157 3931   6.070   0.814   3.257  0.1757  0.5721 -0.2445
   18MOL   C158 3932   6.048   0.729   3.150  0.3942 -0.1317  0.3448
   18MOL   C159 3933   6.122   0.605   3.138 -0.2910 -0.7464  0.4435
   18MOL   C160 3934   6.219   0.568   3.234  0.3560  0.4171  0.2256
   18MOL   C161 3935   6.231   0.655   3.346 -0.1690 -0.1615  0.5058
   18MOL   O162 3936   6.315   0.636   3.448  0.3426  0.0725 -0.8019
   18MOL   H163 3937   6.170   0.828   3.448  0.4419  0.4076 -0.3275
   18MOL   H164 3938   6.019   0.908   3.272 -1.8796 -0.7414  1.1831
   18MOL   H165 3939   6.106   0.545   3.049  3.7629 -1.5127  0.1593
   18MOL   H166 3940   6.277   0.478   3.221 -0.6674 -0.2030 -0.1023
   18MOL   C167 3941   6.318   0.304   3.609 -0.0381 -0.4112  0.0052
   18MOL   C168 3942   6.272   0.426   3.557  0.0881  0.3756 -1.3804
   18MOL   C169 3943   6.360   0.512   3.490  0.1277  0.1055  0.3678
   18MOL   C170 3944   6.492   0.481   3.471 -0.2600 -0.0361  0.5319
   18MOL   C171 3945   6.542   0.359   3.518 -0.3817  0.3787  0.4430
   18MOL   C172 3946   6.458   0.268   3.592  0.7068 -0.3380 -0.3366
   18MOL   O173 3947   6.524   0.165   3.655 -0.4129  0.2248  0.1706
   18MOL   H174 3948   6.250   0.245   3.669 -1.0752  0.7057 -0.0529
   18MOL   H175 3949   6.171   0.450   3.586  0.2844  1.3667 -1.5022
   18MOL   H176 3950   6.563   0.548   3.424 -1.8449 -0.0375 -1.9677
   18MOL   H177 3951   6.648   0.341   3.529 -0.1421  1.1464 -0.5557
   18MOL   C178 3952   6.341   8.160   3.852  0.2951 -0.5656 -0.4308
   18MOL   C179 3953   6.410   8.227   3.748 -0.3657 -0.0826  0.7450
   18MOL   C180 3954   6.456   0.102   3.757 -0.3877 -0.5266 -0.2161
   18MOL   C181 3955   6.428   0.167   3.885 -0.4590 -0.1177 -0.0432
   18MOL   C182 3956   6.341   0.107   3.980  0.3776  0.3636  0.1547
   18MOL   C183 3957   6.302   8.228   3.969 -0.7853 -0.6214  0.0379
   18MOL   O184 3958   6.236   8.167   4.076  0.6113  0.0187  0.0936
   18MOL   H185 3959   6.306   8.058   3.857  1.3381 -0.8095  3.1831
   18MOL   H186 3960   6.448   8.172   3.662 -2.2955 -0.1640 -0.0866
   18MOL   H187 3961   6.462   0.269   3.897 -0.2391 -0.4058  1.9223
   18MOL   H188 3962   6.307   0.158   4.068 -1.2209 -2.0717  0.9777
   18MOL   C189 3963   5.957   7.933   4.064  0.1036  0.5110  0.1205
   18MOL   C190 3964   6.081   7.982   4.097 -0.3091 -0.4548 -0.5172
   18MOL   C191 3965   6.113   8.115   4.051  0.1656  0.3460 -0.2065
   18MOL   C192 3966   6.017   8.186   3.975 -0.4377  0.6854 -0.1845
   18MOL   C193 3967   5.889   8.133   3.958 -0.3174  0.1706  0.3472
   18MOL   C194 3968   5.855   8.005   4.002 -0.6233 -1.3069  0.0845
   18MOL   O195 3969   5.729   7.958   3.975 -0.0889 -0.1139 -0.1897
   18MOL   H196 3970   5.936   7.833   4.099 -0.4120  0.6056  0.0871
   18MOL   H197 3971   6.147   7.916   4.151 -1.0373 -0.1300  0.7913
   18MOL   H198 3972   6.050   0.023   3.928  2.0296 -0.2771 -0.3837
   18MOL   H199 3973   5.816   8.185   3.899  0.1747 -2.8313 -3.0755
   18MOL   C200 3974   5.630   7.615   4.009  0.0870 -0.0074 -0.0263
   18MOL   C201 3975   5.682   7.734   3.954  0.3137 -0.0972  0.1555
   18MOL   C202 3976   5.670   7.848   4.030 -0.5315 -0.2292  0.3048
   18MOL   C203 3977   5.600   7.857   4.150  0.5668  0.1079  0.2068
   18MOL   C204 3978   5.556   7.738   4.206  0.0906 -0.4548  0.0579
   18MOL   C205 3979   5.569   7.612   4.138 -0.1806 -0.7808  0.4869
   18MOL   O206 3980   5.542   7.489   4.197 -0.2275  0.1416 -0.4790
   18MOL   H207 3981   5.646   7.520   3.961 -0.5179 -0.4007  0.5358
   18MOL   H208 3982   5.737   7.723   3.862 -2.0185  0.9691 -1.4090
   18MOL   H209 3983   5.592   7.955   4.195 -0.6866  0.4888 -0.8367
   18MOL   H210 3984   5.527   7.727   4.309  0.4027  4.0896  0.6918
   18MOL   C211 3985   5.388   7.413   4.524 -0.0507  0.6765  0.1211
   18MOL   C212 3986   5.484   7.440   4.423  0.3548 -0.4802 -0.2458
   18MOL   C213 3987   5.445   7.488   4.297 -0.0264  0.7717 -0.1907
   18MOL   C214 3988   5.312   7.521   4.278 -0.3190  0.3332 -0.0092
   18MOL   C215 3989   5.218   7.496   4.381  0.0185  0.3526  0.0718
   18MOL   C216 3990   5.255   7.441   4.503  0.3903  0.2408  0.0272
   18MOL   O217 3991   5.164   7.423   4.601  0.3231 -0.7320  0.0320
   18MOL   H218 3992   5.423   7.403   4.626 -0.7177 -0.7224  0.2160
   18MOL   H219 3993   5.588   7.424   4.447  0.4840  1.2823  0.4708
   18MOL   H220 3994   5.276   7.570   4.189 -0.5039 -0.6147 -0.4599
   18MOL   H221 3995   5.118   7.535   4.367  0.5445  1.0632 -1.9504
   18MOL   H222 3996   5.078   7.442   4.566  1.3693 -0.1703 -2.3908
   19MOL     C1 3997   3.716   5.024   7.455 -0.1588  0.2279 -0.3949
   19MOL     C2 3998   3.603   5.108   7.432 -0.3654 -0.2765 -0.3943
   19MOL     C3 3999   3.613   5.241   7.470 -0.0436 -0.1607  0.5749
   19MOL     C4 4000   3.729   5.302   7.533  0.4746  0.7590  0.7120
   19MOL     C5 4001   3.841   5.216   7.542  0.1413 -0.2424 -0.0219
   19MOL     C6 4002   3.841   5.076   7.501  0.6046  0.1691 -0.5944
   19MOL     O7 4003   3.949   4.999   7.504 -0.3507  0.3675  0.3475
   19MOL     H8 4004   3.713   4.919   7.428  1.4712 -0.2363  1.1214
   19MOL     H9 4005   3.507   5.077   7.394 -0.9498  0.4056  0.5165
   19MOL    H10 4006   3.736   5.403   7.572  2.0399  0.3248  1.6194
   19MOL    H11 4007   3.939   5.249   7.572 -0.9313  0.9035  2.3127
   19MOL    H12 4008   3.529   5.303   7.443  1.0048  0.1257 -2.2971
   19MOL    C13 4009   3.857   4.734   7.743 -0.3380 -0.3413  0.2783
   19MOL    C14 4010   3.878   4.860   7.692 -0.0222 -0.1419  0.0068
   19MOL    C15 4011   3.944   4.877   7.567 -0.0731 -0.0780 -0.3883
   19MOL    C16 4012   4.008   4.764   7.506  0.5263 -0.5643 -0.0445
   19MOL    C17 4013   3.994   4.642   7.569  1.1897  0.2044  0.2825
   19MOL    C18 4014   3.920   4.622   7.687  1.2338  0.2857  0.2179
   19MOL    O19 4015   3.909   4.498   7.752  0.1054  0.4297  0.5399
   19MOL    H20 4016   3.797   4.725   7.832 -0.4424  0.7808  0.3317
   19MOL    H21 4017   3.837   4.945   7.746 -0.2759  0.0299 -0.4521
   19MOL    H22 4018   4.057   4.786   7.412 -0.1426  0.4180 -0.1656
   19MOL    H23 4019   4.042   4.557   7.520  1.8139 -0.2811  1.7082
   19MOL    C24 4020   4.089   4.186   7.682 -0.2173  0.3012  0.6106
   19MOL    C25 4021   3.996   4.286   7.672  0.5498 -0.8330 -0.2576
   19MOL    C26 4022   4.004   4.406   7.745 -0.8398 -0.2118 -0.0864
   19MOL    C27 4023   4.111   4.424   7.835 -0.5711 -0.0841  0.4715
   19MOL    C28 4024   4.197   4.316   7.862 -0.1400  1.0928 -0.2476
   19MOL    C29 4025   4.184   4.190   7.790  0.0882  0.3225 -0.1840
   19MOL    O30 4026   4.262   4.081   7.814  0.5602  0.0153 -0.4859
   19MOL    H31 4027   4.095   4.097   7.622  1.7245  0.6842  0.2175
   19MOL    H32 4028   3.913   4.279   7.604  0.2622 -1.1330  0.1241
   19MOL    H33 4029   4.122   4.518   7.887 -1.6899 -0.5976  1.6726
   19MOL    H34 4030   4.268   4.331   7.942  1.2513 -0.4708 -1.1605
   19MOL    C35 4031   4.087   3.945   8.110 -0.7397 -0.2040 -0.5332
   19MOL    C36 4032   4.111   4.020   7.996 -0.1008  0.4579  0.7027
   19MOL    C37 4033   4.232   4.017   7.934  1.1079  0.6212 -0.4562
   19MOL    C38 4034   4.339   3.945   7.988 -0.2296  0.0928 -0.2667
   19MOL    C39 4035   4.315   3.866   8.103  0.3261 -0.0975 -0.4646
   19MOL    C40 4036   4.188   3.868   8.166  0.0318 -0.3893  0.0315
   19MOL    O41 4037   4.175   3.803   0.032 -0.0597 -0.5177  0.8913
   19MOL    H42 4038   3.990   3.952   8.157 -2.0855 -1.2579 -3.0719
   19MOL    H43 4039   4.028   4.072   7.950 -2.0828 -1.8960  1.5194
   19MOL    H44 4040   4.432   3.949   7.933 -0.8389 -1.0902 -1.4271
   19MOL    H45 4041   4.394   3.807   8.147 -1.2570 -2.3161 -0.5575
   19MOL    C46 4042   4.396   3.982   0.274  0.6246  0.0373  0.0393
   19MOL    C47 4043   4.298   3.960   0.174 -0.4325  0.3363  0.5357
   19MOL    C48 4044   4.257   3.831   0.144  0.1323 -0.2852  0.2504
   19MOL    C49 4045   4.305   3.720   0.215  0.4327 -0.1285  0.0845
   19MOL    C50 4046   4.399   3.741   0.318  0.0329  0.6912  0.2663
   19MOL    C51 4047   4.452   3.873   0.342  0.1912  0.1399 -0.6605
   19MOL    O52 4048   4.554   3.884   0.438  0.1688  0.2869  0.0663
   19MOL    H53 4049   4.419   4.085   0.293 -2.2340  0.3759  2.0252
   19MOL    H54 4050   4.263   4.041   0.110  0.3047  0.0492 -0.2365
   19MOL    H55 4051   4.278   3.622   0.179 -3.3112  1.9642 -3.1831
   19MOL    H56 4052   4.427   3.651   0.371  2.2009  1.6293  0.8022
   19MOL    C57 4053   4.894   4.018   0.388 -0.0210  0.2475  0.1021
   19MOL    C58 4054   4.758   4.009   0.417  0.2217  0.1133 -0.2133
   19MOL    C59 4055   4.684   3.889   0.394 -0.3855  0.5521  0.4828
   19MOL    C60 4056   4.754   3.783   0.333  0.4548 -0.2834  0.3671
   19MOL    C61 4057   4.881   3.800   0.283  0.2132  0.3592 -0.1319
   19MOL    C62 4058   4.958   3.913   0.318 -0.2064  0.0289  0.1225
   19MOL    O63 4059   5.090   3.921   0.288 -0.6188 -0.3593  0.1832
   19MOL    H64 4060   4.949   4.109   0.408 -0.6717  0.7516 -0.3694
   19MOL    H65 4061   4.703   4.081   0.476 -0.2026  0.9612 -1.6324
   19MOL    H66 4062   4.699   3.691   0.315  2.0180 -1.4607  1.4382
   19MOL    H67 4063   4.918   3.716   0.227 -1.5313  1.0796 -2.4594
   19MOL    C68 4064   5.276   3.787   0.577 -0.1607 -0.3604  0.8212
   19MOL    C69 4065   5.178   3.850   0.494 -0.3311  0.7450 -0.2213
   19MOL    C70 4066   5.170   3.835   0.356  0.3883  0.5474 -0.6645
   19MOL    C71 4067   5.261   3.746   0.292  0.8281 -0.4691 -0.0378
   19MOL    C72 4068   5.345   3.669   0.371 -0.0555  0.5842  0.6346
   19MOL    C73 4069   5.351   3.691   0.513 -0.1989 -0.4971 -0.6210
   19MOL    O74 4070   5.453   3.632   0.585  0.0215  0.7589  0.0629
   19MOL    H75 4071   5.295   3.802   0.682 -0.5977  0.2487  0.8196
   19MOL    H76 4072   5.115   3.924   0.541  0.5165  0.6796  1.0230
   19MOL    H77 4073   5.260   3.741   0.184  0.6383 -0.1257 -0.0528
   19MOL    H78 4074   5.412   3.603   0.319 -1.0588  1.4142 -1.7707
   19MOL    C79 4075   5.545   3.331   0.776  0.4066  0.2055 -0.1150
   19MOL    C80 4076   5.523   3.468   0.740 -0.4871  1.1192 -0.2749
   19MOL    C81 4077   5.442   3.505   0.630 -0.4271  0.6780  0.0084
   19MOL    C82 4078   5.374   3.402   0.562 -0.3541 -0.3902 -0.7598
   19MOL    C83 4079   5.392   3.269   0.597  0.3553  0.1270  0.1980
   19MOL    C84 4080   5.481   3.230   0.704  0.3932 -0.2034  0.6095
   19MOL    O85 4081   5.507   3.100   0.734 -0.6109  0.4989 -0.0575
   19MOL    H86 4082   5.608   3.295   0.856  0.7434  1.9747  0.4481
   19MOL    H87 4083   5.582   3.546   0.786 -0.5829  0.9983  0.0573
   19MOL    H88 4084   5.320   3.423   0.471 -0.9405 -1.0325 -0.5623
   19MOL    H89 4085   5.351   3.196   0.529  1.7054 -1.5115  1.1180
   19MOL    C90 4086   5.362   2.828   0.527 -0.3662  0.5460  0.2430
   19MOL    C91 4087   5.375   2.919   0.633  0.0995  0.6221  0.9102
   19MOL    C92 4088   5.493   2.998   0.638 -0.7476  0.1100  0.2690
   19MOL    C93 4089   5.600   2.978   0.542 -0.0408 -0.3413 -0.0338
   19MOL    C94 4090   5.582   2.881   0.440  0.3425 -0.1258 -0.0864
   19MOL    C95 4091   5.465   2.805   0.440  0.2560 -0.6100 -0.3686
   19MOL    O96 4092   5.450   2.712   0.345  0.4262 -0.5605  0.0868
   19MOL    H97 4093   5.276   2.762   0.525  1.5479 -2.0435  0.8455
   19MOL    H98 4094   5.299   2.932   0.708 -0.8303  0.3081  0.0248
   19MOL    H99 4095   5.692   3.033   0.535  0.7526 -1.5428  0.8461
   19MOL   H100 4096   5.661   2.867   0.368 -1.1886 -0.6249 -1.7190
   19MOL   C101 4097   5.467   2.824   0.002  0.4027  0.3859 -0.2843
   19MOL   C102 4098   5.502   2.770   0.123 -0.2203  0.1956 -0.4090
   19MOL   C103 4099   5.410   2.757   0.226 -0.3266  0.3931 -0.3880
   19MOL   C104 4100   5.279   2.802   0.207  0.1005 -0.0087  0.6507
   19MOL   C105 4101   5.241   2.865   0.087  0.4185  0.1170 -0.2218
   19MOL   C106 4102   5.335   2.873   8.237  0.4509  0.0943 -0.0057
   19MOL   O107 4103   5.303   2.937   8.124  0.2099  0.2378 -0.5850
   19MOL   H108 4104   5.537   2.825   8.173  0.5679 -0.4295 -0.1569
   19MOL   H109 4105   5.601   2.729   0.133  0.1800  1.0338 -0.8803
   19MOL   H110 4106   5.214   2.794   0.292  0.8655 -3.4543  1.0123
   19MOL   H111 4107   5.139   2.898   0.075 -0.0828 -0.4374  2.2388
   19MOL   C112 4108   5.314   2.691   7.840 -0.5768 -0.0906  0.3026
   19MOL   C113 4109   5.332   2.745   7.968  0.5815  0.1726  0.0423
   19MOL   C114 4110   5.272   2.867   8.007  0.2859 -0.7914 -0.6674
   19MOL   C115 4111   5.176   2.923   7.929  0.0582  0.1025  0.6051
   19MOL   C116 4112   5.139   2.867   7.805  0.5831 -0.3060 -0.3543
   19MOL   C117 4113   5.210   2.755   7.762 -0.0930 -0.2077 -0.6787
   19MOL   O118 4114   5.186   2.701   7.642 -0.3094  0.3494  0.3636
   19MOL   H119 4115   5.364   2.604   7.802 -0.1883  0.9894 -1.7260
   19MOL   H120 4116   5.399   2.701   8.040  0.2040 -1.5028 -0.6249
   19MOL   H121 4117   5.126   3.010   7.967  1.5382  1.3022 -0.1286
   19MOL   H122 4118   5.069   2.926   7.748 -1.6444 -2.8298 -0.2924
   19MOL   C123 4119   5.414   2.876   7.412 -0.1148  0.3213 -0.1175
   19MOL   C124 4120   5.367   2.804   7.521 -0.0609 -0.2682 -0.8548
   19MOL   C125 4121   5.228   2.778   7.541  0.3733 -0.5551 -0.4640
   19MOL   C126 4122   5.135   2.817   7.446  0.0694 -0.2268 -0.2425
   19MOL   C127 4123   5.181   2.889   7.333 -0.0474  0.1943  0.3442
   19MOL   C128 4124   5.320   2.924   7.320 -0.5374  0.2330  0.5715
   19MOL   O129 4125   5.355   3.010   7.215  0.0215 -0.3995  0.1416
   19MOL   H130 4126   5.518   2.903   7.400 -0.1010  0.9811  1.3350
   19MOL   H131 4127   5.442   2.778   7.594 -0.5770  0.0218 -0.2149
   19MOL   H132 4128   5.030   2.794   7.456 -0.2729  1.5233  0.3692
   19MOL   H133 4129   5.116   2.918   7.252 -0.9662  0.1810  1.0706
   19MOL   C134 4130   5.530   2.942   6.888  0.6544 -0.1735 -0.3350
   19MOL   C135 4131   5.504   2.980   7.025  0.1147  0.4305  0.0420
   19MOL   C136 4132   5.382   2.957   7.085  0.1965 -0.2746  0.8899
   19MOL   C137 4133   5.286   2.879   7.017  0.5789  0.3219 -0.8026
   19MOL   C138 4134   5.320   2.827   6.891 -0.4984  0.5938 -0.4067
   19MOL   C139 4135   5.436   2.859   6.822 -0.5238 -0.0819  0.7661
   19MOL   O140 4136   5.457   2.796   6.706 -0.2465  0.1181  0.0219
   19MOL   H141 4137   5.625   2.970   6.844 -0.7987  1.3506 -2.6197
   19MOL   H142 4138   5.565   3.049   7.082  0.5100  1.3389 -1.4644
   19MOL   H143 4139   5.191   2.848   7.059  1.1768  0.9899  1.0981
   19MOL   H144 4140   5.246   2.765   6.842 -0.1191 -1.1482  1.1504
   19MOL   C145 4141   5.755   2.570   6.753 -0.4636  0.2926 -0.0771
   19MOL   C146 4142   5.646   2.646   6.790  0.9838  0.2028 -0.1791
   19MOL   C147 4143   5.582   2.729   6.694 -0.7642 -0.2650  0.2568
   19MOL   C148 4144   5.638   2.737   6.567 -0.1689  0.6414  0.4733
   19MOL   C149 4145   5.754   2.666   6.536  0.0017  0.5914  0.5955
   19MOL   C150 4146   5.815   2.584   6.630 -1.1690 -0.7872 -0.6467
   19MOL   O151 4147   5.936   2.522   6.597 -0.3662  0.0978 -0.5979
   19MOL   H152 4148   5.796   2.506   6.830  2.4551  1.6547 -0.4296
   19MOL   H153 4149   5.604   2.633   6.889 -0.5367 -0.3507 -0.8640
   19MOL   H154 4150   5.587   2.800   6.496 -2.1813 -0.3581  1.0048
   19MOL   H155 4151   5.800   2.674   6.439  1.1555 -1.9418  0.9009
   19MOL   C156 4152   5.839   2.181   6.475  0.0177 -0.4851  1.0523
   19MOL   C157 4153   5.835   2.300   6.554  0.1182  0.3773 -0.1821
   19MOL   C158 4154   5.931   2.400   6.534  0.4137  0.3848  0.0981
   19MOL   C159 4155   6.021   2.388   6.430  0.7639  0.8471  0.3106
   19MOL   C160 4156   6.029   2.270   6.358  0.7365  0.1838  0.0275
   19MOL   C161 4157   5.941   2.162   6.382  0.1408 -0.0373  0.3744
   19MOL   O162 4158   5.961   2.035   6.318 -0.0770  0.4187 -0.6548
   19MOL   H163 4159   5.764   2.106   6.497  0.4675 -1.1141  0.4496
   19MOL   H164 4160   5.759   2.323   6.627  0.6903 -1.2537  0.9527
   19MOL   H165 4161   6.090   2.469   6.409 -0.6621  2.2148  0.7624
   19MOL   H166 4162   6.083   2.259   6.265  0.6597  0.8557 -0.1041
   19MOL   C167 4163   5.756   1.741   6.348  0.1775  0.5771 -0.7561
   19MOL   C168 4164   5.855   1.838   6.377  0.8274  0.7429  0.2145
   19MOL   C169 4165   5.858   1.951   6.296  0.0310 -0.5800  0.0701
   19MOL   C170 4166   5.769   1.970   6.192 -0.0007 -0.1497 -0.0208
   19MOL   C171 4167   5.671   1.872   6.161  0.5349  0.4495 -0.2217
   19MOL   C172 4168   5.661   1.761   6.248 -0.3593  0.2354 -0.4936
   19MOL   O173 4169   5.560   1.671   6.240  0.1461 -0.7495  0.1775
   19MOL   H174 4170   5.734   1.665   6.422 -0.8194 -0.5076 -2.1407
   19MOL   H175 4171   5.920   1.833   6.463 -0.7328  0.3463  1.4073
   19MOL   H176 4172   5.774   2.057   6.128 -0.6785  1.5781  2.2016
   19MOL   H177 4173   5.596   1.887   6.085 -0.7717  0.2331  1.0141
   19MOL   C178 4174   5.344   1.658   5.946 -0.8136  0.1601  0.2086
   19MOL   C179 4175   5.395   1.688   6.076  0.2274 -0.2098 -0.1017
   19MOL   C180 4176   5.521   1.642   6.116  0.3304  0.5716 -0.0582
   19MOL   C181 4177   5.599   1.566   6.027  1.0891  1.5809 -0.6867
   19MOL   C182 4178   5.548   1.520   5.905  0.0860  0.2605  0.5608
   19MOL   C183 4179   5.419   1.561   5.869 -0.2310 -0.6387 -0.8221
   19MOL   O184 4180   5.359   1.506   5.759  0.5524 -0.1400  0.4753
   19MOL   H185 4181   5.243   1.694   5.931  0.0204  2.8445  0.8689
   19MOL   H186 4182   5.336   1.749   6.142  1.3046 -0.0414  0.7185
   19MOL   H187 4183   5.698   1.543   6.064  0.0325 -2.1515  0.0116
   19MOL   H188 4184   5.604   1.459   5.836 -0.7872 -0.3248  0.3639
   19MOL   C189 4185   5.449   1.751   5.487  0.2002  0.0331 -0.8847
   19MOL   C190 4186   5.387   1.701   5.606  0.1518  0.0442  0.5407
   19MOL   C191 4187   5.392   1.563   5.636 -0.4601 -0.3828 -0.0992
   19MOL   C192 4188   5.454   1.474   5.550 -0.0180 -0.0467  0.5099
   19MOL   C193 4189   5.514   1.524   5.432  0.1420 -0.1200  0.1070
   19MOL   C194 4190   5.508   1.661   5.391  0.3542 -0.2263 -0.1807
   19MOL   O195 4191   5.557   1.696   5.263  0.3295 -0.3079  0.2459
   19MOL   H196 4192   5.445   1.858   5.477  0.5718  0.3259  1.7099
   19MOL   H197 4193   5.331   1.771   5.667 -0.5077 -1.9314  2.2519
   19MOL   H198 4194   5.458   1.366   5.559  0.0325 -0.3417 -2.4639
   19MOL   H199 4195   5.559   1.459   5.358 -2.4189 -1.4396 -0.3339
   19MOL   C200 4196   5.607   2.047   5.182  0.1391  0.4734 -1.0339
   19MOL   C201 4197   5.628   1.915   5.222 -0.0937 -0.2799 -0.5317
   19MOL   C202 4198   5.523   1.818   5.224  0.2806  0.3148  0.5916
   19MOL   C203 4199   5.401   1.857   5.171 -0.7269 -0.4718 -1.1138
   19MOL   C204 4200   5.374   1.988   5.128  0.2472  0.0712 -0.6585
   19MOL   C205 4201   5.479   2.084   5.143 -0.0333 -0.5721 -0.4147
   19MOL   O206 4202   5.448   2.207   5.096  0.0602 -0.1680 -0.3960
   19MOL   H207 4203   5.687   2.120   5.189  0.4378 -0.0214  0.7978
   19MOL   H208 4204   5.726   1.889   5.260  0.2439  1.1611 -0.3661
   19MOL   H209 4205   5.324   1.781   5.179 -1.0933 -0.3390 -3.1109
   19MOL   H210 4206   5.279   2.024   5.090 -0.1398 -0.1398  0.0860
   19MOL   C211 4207   5.153   2.409   5.145  0.2389  0.1399 -0.1013
   19MOL   C212 4208   5.252   2.332   5.087  0.1481 -0.2971 -0.0492
   19MOL   C213 4209   5.359   2.285   5.162 -0.0807 -0.4138 -0.0082
   19MOL   C214 4210   5.368   2.325   5.303  0.6934  0.9654  0.1210
   19MOL   C215 4211   5.270   2.411   5.354  0.2548 -0.2398  0.1824
   19MOL   C216 4212   5.155   2.442   5.280 -0.5938 -0.6660 -0.5256
   19MOL   O217 4213   5.060   2.511   5.346 -0.0561 -0.0100  0.3747
   19MOL   H218 4214   5.069   2.446   5.087 -1.2364 -1.0334  1.2159
   19MOL   H219 4215   5.241   2.306   4.982 -1.0973  0.5294 -0.1188
   19MOL   H220 4216   5.441   2.277   5.368  0.4660 -0.3040 -0.5497
   19MOL   H221 4217   5.264   2.437   5.458 -4.7608  2.4761 -0.6463
   19MOL   H222 4218   4.981   2.528   5.296 -0.1702 -2.5359 -0.4133
   20MOL     C1 4219   6.885   5.644   2.510 -0.5197  0.0479  0.7320
   20MOL     C2 4220   6.985   5.746   2.528 -0.6328 -0.3003  0.5611
   20MOL     C3 4221   7.047   5.792   2.417 -0.0678  0.2225  0.0169
   20MOL     C4 4222   7.028   5.736   2.287  0.6539 -0.1829 -0.1425
   20MOL     C5 4223   6.940   5.631   2.277  0.3045  0.0375  0.0708
   20MOL     C6 4224   6.867   5.581   2.386 -0.1272 -0.6248 -0.5718
   20MOL     O7 4225   6.796   5.465   2.384 -0.3888  0.3973  0.0752
   20MOL     H8 4226   6.848   5.593   2.598  1.9876 -1.6411  0.8385
   20MOL     H9 4227   7.003   5.788   2.626  0.8026  1.5940 -0.4997
   20MOL    H10 4228   7.065   5.783   2.197 -1.9443  1.6954 -0.2995
   20MOL    H11 4229   6.931   5.578   2.184 -0.8808  0.8839 -0.3092
   20MOL    H12 4230   7.112   5.875   2.440  0.0334  0.1996 -0.1850
   20MOL    C13 4231   6.673   5.318   2.072 -1.0283 -0.5422 -0.2973
   20MOL    C14 4232   6.747   5.337   2.193  0.2735 -0.9411 -0.0897
   20MOL    C15 4233   6.710   5.443   2.279  0.8009 -0.2195  0.0238
   20MOL    C16 4234   6.606   5.530   2.250  0.0087 -0.1215  0.1015
   20MOL    C17 4235   6.535   5.515   2.130  0.4514 -0.4334  0.1260
   20MOL    C18 4236   6.568   5.408   2.038 -0.1252  0.2631  0.4868
   20MOL    O19 4237   6.498   5.390   1.922  0.0109  0.4229  0.3085
   20MOL    H20 4238   6.695   5.231   2.011 -0.7168 -1.2687  0.8490
   20MOL    H21 4239   6.827   5.271   2.223  0.2928  0.2610  2.5896
   20MOL    H22 4240   6.567   5.609   2.313 -0.3021 -0.8800  0.8696
   20MOL    H23 4241   6.447   5.574   2.109  0.0151 -1.5861 -1.3121
   20MOL    C24 4242   6.626   5.360   1.580  0.0240 -1.0435 -0.2843
   20MOL    C25 4243   6.540   5.345   1.690 -0.3200  0.3137 -0.8659
   20MOL    C26 4244   6.564   5.420   1.809  0.3653  0.9704  0.8089
   20MOL    C27 4245   6.665   5.520   1.808  0.2775  0.0073 -0.0258
   20MOL    C28 4246   6.741   5.543   1.692 -0.2382  0.6625 -0.0562
   20MOL    C29 4247   6.723   5.462   1.578  0.2465  0.0062  0.0326
   20MOL    O30 4248   6.792   5.479   1.461  0.3211  0.0059 -0.2912
   20MOL    H31 4249   6.597   5.301   1.494  0.4890 -0.5453 -0.7904
   20MOL    H32 4250   6.457   5.277   1.699 -1.6409  1.9654 -0.2271
   20MOL    H33 4251   6.685   5.581   1.895  3.1363 -0.8253 -0.0662
   20MOL    H34 4252   6.820   5.616   1.690  0.8561 -0.5333 -1.3129
   20MOL    C35 4253   6.965   5.789   1.382  0.7939 -0.0519  0.3153
   20MOL    C36 4254   6.939   5.658   1.432 -0.2510  0.5371  0.1854
   20MOL    C37 4255   6.811   5.602   1.425  0.6013 -0.1329 -0.2258
   20MOL    C38 4256   6.703   5.679   1.368 -0.1608  0.2518 -0.5676
   20MOL    C39 4257   6.728   5.808   1.315 -0.1150 -0.1458 -0.1667
   20MOL    C40 4258   6.862   5.864   1.320  0.3330  0.3414  0.2238
   20MOL    O41 4259   6.876   5.992   1.270 -0.2131 -0.1469 -0.1386
   20MOL    H42 4260   7.056   5.847   1.384  0.2534  1.0232 -3.4048
   20MOL    H43 4261   7.007   5.605   1.497 -1.3107 -0.4556  0.4956
   20MOL    H44 4262   6.608   5.635   1.343  1.2552 -2.1084 -1.9843
   20MOL    H45 4263   6.644   5.864   1.276 -0.7282 -1.1468 -0.3067
   20MOL    C46 4264   7.161   6.001   1.024  0.5886  0.2850  0.1904
   20MOL    C47 4265   7.035   5.969   1.081 -0.0681  0.4369  0.4035
   20MOL    C48 4266   6.994   6.024   1.207 -0.6289  0.1999  0.2088
   20MOL    C49 4267   7.080   6.122   1.264  0.1779 -0.9031 -0.2169
   20MOL    C50 4268   7.206   6.151   1.214 -0.3186  0.0524 -0.0471
   20MOL    C51 4269   7.249   6.088   1.098 -0.1789 -0.1643 -0.4741
   20MOL    O52 4270   7.371   6.124   1.049  0.0319 -0.0029  0.7604
   20MOL    H53 4271   7.189   5.964   0.927  0.3103  0.8587 -0.1057
   20MOL    H54 4272   6.982   5.898   1.019 -0.1546 -0.5530  1.5972
   20MOL    H55 4273   7.051   6.177   1.353  2.8050 -1.1999  0.8729
   20MOL    H56 4274   7.268   6.223   1.265 -1.5209 -1.6831  4.0617
   20MOL    C57 4275   7.654   5.990   1.243 -0.7009  0.1238  0.0271
   20MOL    C58 4276   7.562   6.077   1.194  0.2038 -0.0615  0.4616
   20MOL    C59 4277   7.476   6.043   1.086 -0.0581 -0.5561 -0.4070
   20MOL    C60 4278   7.489   5.916   1.022  0.4473 -0.5996  0.1516
   20MOL    C61 4279   7.594   5.834   1.060 -0.0759  0.1037  0.3543
   20MOL    C62 4280   7.667   5.865   1.175 -0.7320  1.2336 -0.8924
   20MOL    O63 4281   7.752   5.773   1.219 -0.5764  0.5117  0.4250
   20MOL    H64 4282   7.710   6.009   1.333 -0.1867  1.2163 -0.5123
   20MOL    H65 4283   7.541   6.169   1.246 -0.5959 -0.7825  1.4620
   20MOL    H66 4284   7.430   5.881   0.939 -2.9364  0.9711  1.8049
   20MOL    H67 4285   7.619   5.742   1.009  0.6754  0.9821 -0.8876
   20MOL    C68 4286   7.592   5.481   1.367 -0.0566  0.4474  0.1274
   20MOL    C69 4287   7.635   5.576   1.279  0.0585  0.0690 -0.4897
   20MOL    C70 4288   7.713   5.689   1.313  0.8739 -0.3344 -0.5786
   20MOL    C71 4289   7.751   5.711   1.449  0.0034 -0.0455  0.1134
   20MOL    C72 4290   7.712   5.613   1.545 -0.5504  0.1941 -0.8460
   20MOL    C73 4291   7.635   5.501   1.501  0.5237  0.5204  0.5735
   20MOL    O74 4292   7.601   5.408   1.597 -0.4407 -0.3951 -0.2592
   20MOL    H75 4293   7.532   5.396   1.339  0.6535  0.7590 -2.5324
   20MOL    H76 4294   7.626   5.551   1.174 -0.1312 -0.8202 -0.2665
   20MOL    H77 4295   7.811   5.794   1.480 -1.8964 -0.0305  3.9927
   20MOL    H78 4296   7.743   5.635   1.647  1.0733  0.9155 -1.4742
   20MOL    C79 4297   7.800   5.088   1.546 -0.2162 -0.3490  0.9176
   20MOL    C80 4298   7.709   5.193   1.521 -0.5292 -0.1740  0.1799
   20MOL    C81 4299   7.691   5.297   1.618 -0.8875  0.5703  0.6151
   20MOL    C82 4300   7.768   5.296   1.734  0.8929 -0.4717  0.5287
   20MOL    C83 4301   7.860   5.190   1.759  0.0533 -0.5130 -0.2997
   20MOL    C84 4302   7.876   5.079   1.671 -0.1940 -0.0982  0.1682
   20MOL    O85 4303   7.933   4.958   1.712  0.1723 -0.7279 -0.1251
   20MOL    H86 4304   7.804   5.004   1.479 -2.3876  1.6519 -1.8411
   20MOL    H87 4305   7.650   5.180   1.431 -0.9827  0.2504  0.4141
   20MOL    H88 4306   7.753   5.384   1.795 -0.3590 -0.3138  0.0059
   20MOL    H89 4307   7.920   5.194   1.848 -1.5059 -4.1233  1.0210
   20MOL    C90 4308   8.071   4.730   1.458  0.0904 -0.2467  0.4872
   20MOL    C91 4309   7.983   4.790   1.553  0.1664  0.2671  0.0978
   20MOL    C92 4310   8.020   4.904   1.623  0.2177 -0.0640  0.8484
   20MOL    C93 4311   8.157   4.940   1.621  0.9967 -0.7687 -0.9256
   20MOL    C94 4312   8.244   4.884   1.523 -0.0108 -0.8525  0.0616
   20MOL    C95 4313   8.203   4.770   1.455  0.6103  0.0391  0.0156
   20MOL    O96 4314   0.038   4.702   1.378 -0.0280  0.8105 -0.0156
   20MOL    H97 4315   8.044   4.636   1.412  2.1820 -1.2515  1.2321
   20MOL    H98 4316   7.886   4.746   1.572  1.3275 -2.1039  0.7557
   20MOL    H99 4317   8.192   5.014   1.691 -2.8811  0.5743 -0.2713
   20MOL   H100 4318   0.091   4.918   1.510 -1.0317  2.4555  0.3158
   20MOL   C101 4319   8.180   4.597   1.028 -0.3223  0.1952  0.3785
   20MOL   C102 4320   8.204   4.590   1.168 -0.1137  0.1157  0.8588
   20MOL   C103 4321   0.014   4.694   1.241 -0.4687 -0.0837  0.0523
   20MOL   C104 4322   0.066   4.804   1.168  0.5922  0.5607  0.3836
   20MOL   C105 4323   0.054   4.804   1.022 -0.0555 -0.5885  1.0975
   20MOL   C106 4324   8.234   4.704   0.955  0.3106 -0.7202  0.3913
   20MOL   O107 4325   8.216   4.709   0.817  0.3085 -0.3537 -0.2093
   20MOL   H108 4326   8.120   4.523   0.978  2.8417 -1.8260 -0.5922
   20MOL   H109 4327   8.161   4.511   1.228 -1.5920  0.7709  0.6800
   20MOL   H110 4328   0.110   4.889   1.218  0.3753 -0.0367  1.5926
   20MOL   H111 4329   0.091   4.893   0.973  1.7209 -1.8737  0.0516
   20MOL   C112 4330   7.956   4.623   0.572  0.5816 -0.1273 -0.0405
   20MOL   C113 4331   8.082   4.635   0.633 -0.0610  0.6309  0.1270
   20MOL   C114 4332   8.092   4.701   0.755 -0.3739  0.3703  0.3216
   20MOL   C115 4333   7.976   4.770   0.814  0.9931 -0.4947  0.3322
   20MOL   C116 4334   7.854   4.765   0.748 -0.0515  0.4191 -0.5226
   20MOL   C117 4335   7.841   4.691   0.627 -0.5309 -0.2564 -0.4030
   20MOL   O118 4336   7.711   4.675   0.580  0.2536 -0.1316 -0.4778
   20MOL   H119 4337   7.938   4.572   0.479 -1.0515  0.9665 -0.3507
   20MOL   H120 4338   8.167   4.588   0.586  1.1887  1.4880  1.4672
   20MOL   H121 4339   7.982   4.834   0.900 -2.3753 -0.3017  0.5095
   20MOL   H122 4340   7.774   4.815   0.802  1.9671  2.1321  0.9482
   20MOL   C123 4341   7.736   4.865   0.251  0.5120  0.0643  0.8081
   20MOL   C124 4342   7.762   4.822   0.386 -0.0845 -0.6005  0.1550
   20MOL   C125 4343   7.684   4.722   0.451  0.8995  0.1561 -0.3616
   20MOL   C126 4344   7.577   4.666   0.378  0.0934  0.1553  0.3619
   20MOL   C127 4345   7.555   4.708   0.246  0.4296 -0.0494 -0.3282
   20MOL   C128 4346   7.630   4.808   0.185  0.4164 -0.5876 -0.5079
   20MOL   O129 4347   7.599   4.855   0.062  0.3274  0.0494  0.0401
   20MOL   H130 4348   7.790   4.945   0.203  2.1863 -2.1445 -1.1278
   20MOL   H131 4349   7.823   4.881   0.453  0.3514 -0.4246 -0.3950
   20MOL   H132 4350   7.503   4.597   0.415 -0.5413  0.4007 -0.4406
   20MOL   H133 4351   7.470   4.678   0.187 -2.2933  3.1392  1.7642
   20MOL   C134 4352   7.510   4.655   8.025 -0.1942 -0.2849 -0.2547
   20MOL   C135 4353   7.492   4.735   8.137 -0.2818  0.0715  0.0994
   20MOL   C136 4354   7.608   4.786   8.199  0.5594 -0.1144 -0.2357
   20MOL   C137 4355   7.730   4.774   8.128  0.2898 -0.7945  0.6898
   20MOL   C138 4356   7.749   4.713   8.008  0.2201 -0.3781 -0.5404
   20MOL   C139 4357   7.637   4.646   7.956  0.0789 -0.5951  0.2351
   20MOL   O140 4358   7.653   4.560   7.851  0.0913 -0.6459 -0.0907
   20MOL   H141 4359   7.431   4.598   7.979 -1.3279 -0.1470  1.4926
   20MOL   H142 4360   7.400   4.732   8.194  0.2743  1.3622  1.0897
   20MOL   H143 4361   7.819   4.825   8.162 -0.3226  1.2500 -0.6990
   20MOL   H144 4362   7.847   4.704   7.965  0.6457 -2.0020  0.6962
   20MOL   C145 4363   7.638   4.570   7.483  0.0573 -0.2970 -0.2597
   20MOL   C146 4364   7.657   4.526   7.614 -0.3732  0.4268 -0.1029
   20MOL   C147 4365   7.634   4.608   7.722 -0.8105 -0.4374  0.1913
   20MOL   C148 4366   7.592   4.740   7.694  0.2364 -0.1804  0.6331
   20MOL   C149 4367   7.574   4.786   7.565 -0.4300  0.3027 -0.4838
   20MOL   C150 4368   7.599   4.703   7.453  0.1019  0.2823  1.0873
   20MOL   O151 4369   7.578   4.754   7.327 -0.0119 -0.0400  0.0242
   20MOL   H152 4370   7.646   4.506   7.396 -0.8517 -0.4878 -0.2061
   20MOL   H153 4371   7.702   4.429   7.631 -0.0210  0.8240  1.3360
   20MOL   H154 4372   7.581   4.810   7.776 -3.2881 -1.2918  1.1849
   20MOL   H155 4373   7.545   4.889   7.552 -0.4348  0.3246 -0.2860
   20MOL   C156 4374   7.812   5.030   7.270 -0.2305  1.1012 -0.7978
   20MOL   C157 4375   7.705   4.954   7.317  0.0098 -0.0232 -0.5201
   20MOL   C158 4376   7.687   4.821   7.278 -0.8318  0.3169  0.0920
   20MOL   C159 4377   7.770   4.765   7.177 -0.6923  0.2745  0.1282
   20MOL   C160 4378   7.885   4.841   7.131  0.6043  0.3096  0.0185
   20MOL   C161 4379   7.909   4.968   7.181  0.1552 -0.0430 -0.0889
   20MOL   O162 4380   8.011   5.040   7.125 -0.2362 -0.2318  0.4601
   20MOL   H163 4381   7.824   5.131   7.305  3.8402 -0.2633  2.1029
   20MOL   H164 4382   7.628   5.001   7.377  0.0739 -0.2162 -0.2833
   20MOL   H165 4383   7.759   4.664   7.139  4.2421  0.3761 -2.0166
   20MOL   H166 4384   7.955   4.798   7.060 -0.8002  0.0698 -1.2357
   20MOL   C167 4385   8.215   5.198   7.391 -0.1369  0.2348  0.3606
   20MOL   C168 4386   8.114   5.174   7.291  0.1558  0.7691  0.4471
   20MOL   C169 4387   8.120   5.060   7.207 -0.3368  0.0704  0.1018
   20MOL   C170 4388   8.230   4.974   7.208 -0.0040 -0.0264  0.2605
   20MOL   C171 4389   0.078   4.993   7.305 -0.6795 -0.0422 -0.5944
   20MOL   C172 4390   0.063   5.095   7.401 -0.4547  0.2768 -1.0523
   20MOL   O173 4391   0.155   5.106   7.500  0.1009 -0.2995 -0.1786
   20MOL   H174 4392   8.204   5.285   7.455  0.8950  0.6946 -0.0787
   20MOL   H175 4393   8.021   5.228   7.296 -1.5369 -1.9546 -0.5429
   20MOL   H176 4394   8.237   4.903   7.127  1.8837 -1.2801  1.4886
   20MOL   H177 4395   0.147   4.910   7.316 -2.3329 -1.3105  0.4778
   20MOL   C178 4396   0.090   4.822   7.710  0.8707  0.1243 -0.0463
   20MOL   C179 4397   0.068   4.923   7.618  0.3863  0.9926 -0.0672
   20MOL   C180 4398   0.176   5.006   7.588 -0.0259  0.3338  0.5029
   20MOL   C181 4399   0.303   4.991   7.650 -0.5846 -0.1109 -0.1973
   20MOL   C182 4400   0.323   4.895   7.749 -0.4870  0.2899  0.0640
   20MOL   C183 4401   0.213   4.812   7.782  0.5174  1.1465 -0.6742
   20MOL   O184 4402   0.243   4.715   7.877 -0.5460 -0.1002  0.0205
   20MOL   H185 4403   0.005   4.759   7.728  0.8809  0.0600 -0.2233
   20MOL   H186 4404   8.225   4.919   7.570 -0.8571 -2.3926  2.5055
   20MOL   H187 4405   0.384   5.058   7.625 -1.8822  1.4027 -0.4255
   20MOL   H188 4406   0.419   4.884   7.796 -0.2002  3.2947  0.2843
   20MOL   C189 4407   8.236   4.483   7.986  0.6704  0.6864 -0.1172
   20MOL   C190 4408   0.066   4.597   7.980  0.3884 -0.4420 -0.1380
   20MOL   C191 4409   0.165   4.602   7.883  0.4247  0.0950  0.1083
   20MOL   C192 4410   0.176   4.498   7.787 -0.2485 -0.6403  0.3253
   20MOL   C193 4411   0.100   4.385   7.799  0.3225 -0.4374 -0.1795
   20MOL   C194 4412   0.005   4.371   7.903 -0.0743 -0.4044 -0.2658
   20MOL   O195 4413   8.178   4.260   7.907 -0.1113  0.1384 -0.0254
   20MOL   H196 4414   8.143   4.487   8.040  0.3182 -0.4833 -0.6135
   20MOL   H197 4415   0.050   4.686   8.039  1.8566  0.4382 -1.0251
   20MOL   H198 4416   0.241   4.520   7.703 -0.5495 -2.5678 -0.4300
   20MOL   H199 4417   0.117   4.306   7.727  0.8345 -2.5039  2.1141
   20MOL   C200 4418   0.019   3.984   7.674  0.0314 -0.3970  0.1185
   20MOL   C201 4419   0.029   4.076   7.786 -1.1254  0.2272 -0.3177
   20MOL   C202 4420   8.178   4.169   7.803  0.4525  0.0616 -0.3063
   20MOL   C203 4421   8.069   4.172   7.713 -0.6350  0.5157  0.7673
   20MOL   C204 4422   8.055   4.077   7.604  0.3904  0.3709 -0.4742
   20MOL   C205 4423   8.161   3.982   7.587 -0.1424 -0.5703 -0.0475
   20MOL   O206 4424   8.157   3.897   7.482 -0.1956  0.1931  0.2604
   20MOL   H207 4425   0.106   3.924   7.649 -1.2838 -2.3071  0.0772
   20MOL   H208 4426   0.116   4.080   7.850 -0.0057 -3.9373 -1.4004
   20MOL   H209 4427   7.999   4.253   7.724 -0.4672  0.8723 -0.7532
   20MOL   H210 4428   7.971   4.078   7.536  0.7100 -2.1734 -0.9251
   20MOL   C211 4429   7.918   3.628   7.566  0.4885 -0.2436 -0.1643
   20MOL   C212 4430   7.970   3.758   7.549  0.2246 -0.8068  0.1613
   20MOL   C213 4431   8.105   3.770   7.504 -0.1588 -0.8552 -0.6729
   20MOL   C214 4432   8.191   3.655   7.484 -0.7468  0.0132 -0.6231
   20MOL   C215 4433   8.136   3.529   7.509  0.0658  0.0208  0.0708
   20MOL   C216 4434   8.003   3.517   7.542 -0.0052  0.3881  0.6280
   20MOL   O217 4435   7.948   3.393   7.567 -0.2704  0.3435 -0.3417
   20MOL   H218 4436   7.815   3.617   7.597  0.0295  0.2636 -1.5069
   20MOL   H219 4437   7.910   3.847   7.547  2.8837  1.0573 -2.4738
   20MOL   H220 4438   0.042   3.668   7.465 -0.6476  0.3173  0.1257
   20MOL   H221 4439   8.201   3.443   7.505  0.7475  0.5935 -1.5232
   20MOL   H222 4440   7.868   3.402   7.617 -1.3934  1.3192 -2.2623
   21MOL     C1 4441   1.969   1.235   6.777  0.2932  0.6904  1.1984
   21MOL     C2 4442   1.859   1.145   6.782 -0.1046 -0.0868 -0.0028
   21MOL     C3 4443   1.787   1.110   6.667 -0.1484 -0.6112  0.0322
   21MOL     C4 4444   1.827   1.164   6.542 -0.3154  0.2617  0.1511
   21MOL     C5 4445   1.925   1.270   6.543 -0.2631  0.2903  0.2052
   21MOL     C6 4446   1.999   1.304   6.658  0.1101 -0.3637  0.5298
   21MOL     O7 4447   2.098   1.400   6.654 -0.0914  0.4014  0.2574
   21MOL     H8 4448   2.026   1.262   6.865  1.6715 -1.1687  0.8842
   21MOL     H9 4449   1.838   1.108   6.882 -1.6131  2.8323  0.8147
   21MOL    H10 4450   1.777   1.137   6.450  2.2942 -0.8949 -0.9862
   21MOL    H11 4451   1.945   1.317   6.447  0.2564  3.1050  1.6447
   21MOL    H12 4452   1.702   1.043   6.670 -2.0801  1.5658 -2.7843
   21MOL    C13 4453   2.146   1.699   6.869  0.8361 -0.4036 -0.5851
   21MOL    C14 4454   2.170   1.580   6.793 -0.2463 -0.0298 -0.7388
   21MOL    C15 4455   2.073   1.517   6.719  0.2706 -0.6438  0.3915
   21MOL    C16 4456   1.947   1.578   6.719  0.4017  0.0021 -0.1582
   21MOL    C17 4457   1.916   1.696   6.785  0.3185 -0.5817 -0.3653
   21MOL    C18 4458   2.017   1.757   6.864 -0.4692 -0.5154 -0.0776
   21MOL    O19 4459   1.981   1.869   6.936  0.0161 -0.1262 -0.5835
   21MOL    H20 4460   2.220   1.743   6.933 -0.4143 -0.5014  0.9673
   21MOL    H21 4461   2.268   1.535   6.786  0.3145  1.1128 -0.4395
   21MOL    H22 4462   1.866   1.535   6.662  0.0497  3.7208 -2.6481
   21MOL    H23 4463   1.814   1.730   6.776  0.6953 -0.1292 -3.4247
   21MOL    C24 4464   2.156   2.196   6.900 -0.1780 -0.4724 -0.2904
   21MOL    C25 4465   2.128   2.067   6.944  0.0012  0.1062  0.0478
   21MOL    C26 4466   2.024   1.990   6.883  0.0978 -0.1022  0.7772
   21MOL    C27 4467   1.943   2.049   6.787 -0.2870  0.0297  0.1958
   21MOL    C28 4468   1.973   2.182   6.741 -0.1944  0.6730 -0.1787
   21MOL    C29 4469   2.075   2.250   6.798  0.1522  0.0850 -0.0211
   21MOL    O30 4470   2.104   2.380   6.758  0.3445  0.0491 -0.2900
   21MOL    H31 4471   2.232   2.256   6.948 -1.4974  0.5568  0.5488
   21MOL    H32 4472   2.186   2.020   7.022  2.2797  2.6790 -0.0074
   21MOL    H33 4473   1.862   1.995   6.741 -1.4845  0.8742  1.2586
   21MOL    H34 4474   1.913   2.221   6.659 -0.2352 -1.4030 -1.1726
   21MOL    C35 4475   2.364   2.354   6.482  0.4322  0.4700  0.2341
   21MOL    C36 4476   2.307   2.350   6.615  0.3882  0.2709 -0.0260
   21MOL    C37 4477   2.172   2.392   6.631 -0.3262  0.1248  0.5836
   21MOL    C38 4478   2.101   2.454   6.523 -0.7251  0.2114 -0.7875
   21MOL    C39 4479   2.167   2.469   6.395  0.3342 -0.1850 -0.1704
   21MOL    C40 4480   2.299   2.418   6.372  0.6128 -0.6862 -0.4288
   21MOL    O41 4481   2.372   2.441   6.259 -0.4132  0.4204 -0.6537
   21MOL    H42 4482   2.464   2.316   6.463 -0.6718 -1.8122 -1.1923
   21MOL    H43 4483   2.358   2.303   6.698 -0.0502 -2.5011 -1.2710
   21MOL    H44 4484   1.998   2.478   6.542 -0.0159  1.8523  1.2242
   21MOL    H45 4485   2.122   2.527   6.316  0.5332 -1.9825 -1.6192
   21MOL    C46 4486   2.191   2.437   5.941  0.6135 -0.5173  0.3758
   21MOL    C47 4487   2.266   2.400   6.054 -0.0381 -0.0381  0.2100
   21MOL    C48 4488   2.308   2.491   6.149 -1.0813  0.7976 -0.5228
   21MOL    C49 4489   2.279   2.629   6.118  0.5624  0.1539 -0.1746
   21MOL    C50 4490   2.209   2.665   6.005  0.0759  0.3621  0.2984
   21MOL    C51 4491   2.163   2.568   5.921 -0.3713 -0.3812 -0.7482
   21MOL    O52 4492   2.087   2.609   5.807 -0.0482 -0.0203  0.1200
   21MOL    H53 4493   2.158   2.361   5.872  1.1786 -3.3852  3.1185
   21MOL    H54 4494   2.268   2.295   6.081 -0.0047  0.2831  1.4977
   21MOL    H55 4495   2.321   2.706   6.182  1.5700  0.0880 -0.7406
   21MOL    H56 4496   2.174   2.766   5.985 -3.8773 -1.2534 -1.5090
   21MOL    C57 4497   1.834   2.861   5.842 -0.1815 -1.2331  0.3609
   21MOL    C58 4498   1.955   2.799   5.845 -0.0937  0.2142  0.0134
   21MOL    C59 4499   1.964   2.660   5.823 -0.1670  0.0386 -0.5831
   21MOL    C60 4500   1.849   2.582   5.802  0.1130 -0.3922 -0.1651
   21MOL    C61 4501   1.726   2.653   5.808 -0.5636  0.8823 -0.3189
   21MOL    C62 4502   1.713   2.794   5.818 -0.1506  0.6948  0.0015
   21MOL    O63 4503   1.589   2.855   5.812 -0.1480 -0.1044 -0.0869
   21MOL    H64 4504   1.832   2.969   5.847  0.0502 -1.1886 -0.3574
   21MOL    H65 4505   2.046   2.856   5.858 -0.5278  0.7853  0.5681
   21MOL    H66 4506   1.845   2.478   5.773 -1.3913 -0.4521  0.2048
   21MOL    H67 4507   1.634   2.599   5.791 -0.5379  0.9914 -0.7927
   21MOL    C68 4508   1.497   2.870   5.455 -0.0895  0.0624 -0.2054
   21MOL    C69 4509   1.577   2.874   5.567  0.3943  0.5365  0.6255
   21MOL    C70 4510   1.518   2.853   5.693  0.3665  0.6296  0.2670
   21MOL    C71 4511   1.375   2.847   5.706 -0.3446 -0.6613  0.0485
   21MOL    C72 4512   1.296   2.837   5.591  0.3551  0.5966 -0.6397
   21MOL    C73 4513   1.359   2.843   5.468  0.1309 -0.6532 -0.6223
   21MOL    O74 4514   1.287   2.843   5.347 -0.8954  0.2231 -0.8939
   21MOL    H75 4515   1.541   2.883   5.357  1.4186 -0.2529  0.4165
   21MOL    H76 4516   1.685   2.885   5.571  0.1358  3.1551  0.9658
   21MOL    H77 4517   1.332   2.834   5.804  0.9847 -0.4218  0.6893
   21MOL    H78 4518   1.188   2.834   5.588  0.3875  0.0057 -1.4694
   21MOL    C79 4519   1.337   2.516   5.190 -0.4911  0.1048 -0.3996
   21MOL    C80 4520   1.362   2.631   5.260  0.1334  0.0987 -0.6769
   21MOL    C81 4521   1.260   2.723   5.283 -0.2371  0.9343  0.0467
   21MOL    C82 4522   1.136   2.702   5.224  0.3537  0.8159  0.0383
   21MOL    C83 4523   1.119   2.590   5.144  0.3241  0.2891  0.4689
   21MOL    C84 4524   1.217   2.494   5.128  0.8612  0.1465 -0.1481
   21MOL    O85 4525   1.203   2.389   5.042  0.9662  0.5822 -0.4092
   21MOL    H86 4526   1.420   2.454   5.160 -1.0889 -1.7115  1.5752
   21MOL    H87 4527   1.462   2.660   5.287 -0.3589  2.1262 -0.9400
   21MOL    H88 4528   1.048   2.764   5.224 -0.7279 -0.6870  1.1871
   21MOL    H89 4529   1.022   2.583   5.098  0.2373  2.3534  0.2982
   21MOL    C90 4530   1.383   2.375   4.718  0.5040  0.1046  0.0062
   21MOL    C91 4531   1.359   2.371   4.858 -0.6504 -0.8374 -0.2135
   21MOL    C92 4532   1.234   2.404   4.909  0.7699  0.3092  1.0665
   21MOL    C93 4533   1.128   2.432   4.819  0.0781 -0.5037 -0.6047
   21MOL    C94 4534   1.152   2.429   4.682  0.1659  0.1302 -0.2752
   21MOL    C95 4535   1.279   2.411   4.631  0.3458 -0.8673  0.2617
   21MOL    O96 4536   1.305   2.430   4.498  0.3668 -0.0871 -0.0349
   21MOL    H97 4537   1.478   2.368   4.666 -0.4070 -1.1619 -1.5407
   21MOL    H98 4538   1.439   2.345   4.926  0.6279  1.4989 -0.7331
   21MOL    H99 4539   1.026   2.443   4.852  0.1602  1.0529 -0.8278
   21MOL   H100 4540   1.080   2.457   4.607 -0.1301  0.1690  0.0209
   21MOL   C101 4541   1.467   2.256   4.218 -0.0120 -0.1287  0.0178
   21MOL   C102 4542   1.437   2.357   4.313 -0.3645 -0.4944 -0.2259
   21MOL   C103 4543   1.345   2.330   4.415  0.1656  0.1225  0.6125
   21MOL   C104 4544   1.292   2.199   4.430  0.7678 -0.0737 -0.4483
   21MOL   C105 4545   1.324   2.102   4.339 -0.2440 -0.2490 -0.0570
   21MOL   C106 4546   1.408   2.130   4.228  0.1735 -0.2745 -0.8019
   21MOL   O107 4547   1.442   2.030   4.147  0.2777  0.1278 -0.2840
   21MOL   H108 4548   1.529   2.277   4.131  1.4532 -0.4542  0.9601
   21MOL   H109 4549   1.473   2.458   4.305  0.1736 -0.6443  0.2170
   21MOL   H110 4550   1.218   2.175   4.505 -0.8434  2.4541 -1.1516
   21MOL   H111 4551   1.276   2.006   4.350 -0.5760  0.0470  1.1460
   21MOL   C112 4552   1.378   2.173   3.803  0.4141 -0.9137 -0.2189
   21MOL   C113 4553   1.356   2.146   3.944 -0.7814 -0.7933 -0.2315
   21MOL   C114 4554   1.439   2.052   4.013 -0.0662 -0.0517  0.1013
   21MOL   C115 4555   1.529   1.978   3.940 -0.3396  0.3101  0.1334
   21MOL   C116 4556   1.546   2.006   3.804 -0.3798  0.9058  0.6531
   21MOL   C117 4557   1.472   2.098   3.731 -0.9235  0.4717 -0.0150
   21MOL   O118 4558   1.490   2.112   3.600  1.0431 -0.5018 -0.2054
   21MOL   H119 4559   1.309   2.245   3.762 -0.1432 -0.7186  1.0516
   21MOL   H120 4560   1.282   2.209   3.992 -0.2036  2.0515 -2.8947
   21MOL   H121 4561   1.602   1.912   3.985  0.8446  0.1626 -1.9292
   21MOL   H122 4562   1.623   1.945   3.757 -2.3523 -1.5329  0.4713
   21MOL   C123 4563   1.766   2.301   3.454  0.8259 -0.1651  0.9580
   21MOL   C124 4564   1.694   2.197   3.507 -0.2822 -0.0984  0.2135
   21MOL   C125 4565   1.562   2.217   3.552  0.6820  0.2031 -0.7454
   21MOL   C126 4566   1.499   2.345   3.542  0.5116  0.0948 -0.0862
   21MOL   C127 4567   1.568   2.453   3.486  0.0273  0.3246 -0.1445
   21MOL   C128 4568   1.704   2.431   3.438  0.1895 -0.0301  0.0120
   21MOL   O129 4569   1.774   2.540   3.386 -0.3644 -0.5651  0.1511
   21MOL   H130 4570   1.860   2.270   3.412  1.1222  0.5608  1.0801
   21MOL   H131 4571   1.737   2.098   3.512  1.0923  0.4935  0.2258
   21MOL   H132 4572   1.397   2.369   3.567 -0.0404  0.2693 -2.4724
   21MOL   H133 4573   1.511   2.545   3.482 -0.7669 -0.1236  0.6354
   21MOL   C134 4574   1.689   2.528   3.024  0.1128  0.5514 -0.5351
   21MOL   C135 4575   1.682   2.506   3.165  0.1340  0.4685  0.5711
   21MOL   C136 4576   1.782   2.559   3.249 -0.6414  0.1948 -0.5981
   21MOL   C137 4577   1.886   2.633   3.196 -0.0553 -0.5314  0.3938
   21MOL   C138 4578   1.889   2.652   3.059  0.1293  0.3130  0.4374
   21MOL   C139 4579   1.797   2.602   2.971  0.3660 -0.0105  0.0832
   21MOL   O140 4580   1.794   2.631   2.836  0.8149  0.0853 -0.7541
   21MOL   H141 4581   1.611   2.486   2.962 -1.3666 -0.5515  1.9785
   21MOL   H142 4582   1.592   2.463   3.206  2.1739 -2.0745  2.5995
   21MOL   H143 4583   1.968   2.671   3.256  0.9194  1.4359 -2.1091
   21MOL   H144 4584   1.977   2.708   3.030 -0.8953  1.6036 -0.1928
   21MOL   C145 4585   2.022   2.384   2.688  0.2788 -0.4078 -1.1181
   21MOL   C146 4586   1.908   2.438   2.751  0.3929  0.1906 -0.2388
   21MOL   C147 4587   1.889   2.581   2.756 -0.7737  0.1850 -1.3235
   21MOL   C148 4588   1.977   2.667   2.695 -0.4645 -0.1053 -0.0883
   21MOL   C149 4589   2.083   2.614   2.616  0.3215 -0.3912  0.1750
   21MOL   C150 4590   2.108   2.472   2.615  0.1147  1.0735 -0.6775
   21MOL   O151 4591   2.221   2.418   2.550  0.7559  0.2525  0.0521
   21MOL   H152 4592   2.045   2.278   2.685  3.3011  0.1702 -0.3753
   21MOL   H153 4593   1.838   2.372   2.799  1.0821 -1.7767 -1.8616
   21MOL   H154 4594   1.960   2.772   2.715 -1.0400 -0.3217  0.5630
   21MOL   H155 4595   2.147   2.670   2.549 -1.3216  1.9199  0.5089
   21MOL   C156 4596   2.348   2.391   2.208  0.0763 -0.1139 -0.2292
   21MOL   C157 4597   2.343   2.415   2.349 -0.0661 -1.0602 -0.0852
   21MOL   C158 4598   2.225   2.378   2.421 -0.6848 -0.5730 -0.6025
   21MOL   C159 4599   2.108   2.328   2.350  0.0772 -0.8134 -0.2902
   21MOL   C160 4600   2.124   2.296   2.218  0.0443  0.1400  0.5201
   21MOL   C161 4601   2.241   2.320   2.146 -0.3872 -0.2081  0.1855
   21MOL   O162 4602   2.240   2.276   2.019  0.2937 -0.0012  0.3554
   21MOL   H163 4603   2.433   2.430   2.153 -1.3506  1.8818 -1.0634
   21MOL   H164 4604   2.425   2.464   2.399 -2.2447  1.7335  0.9228
   21MOL   H165 4605   2.019   2.311   2.408  1.5961 -1.5599  1.9307
   21MOL   H166 4606   2.048   2.241   2.164 -0.2298  1.0063  0.0227
   21MOL   C167 4607   2.528   2.368   1.803  0.2774  0.5784  0.1318
   21MOL   C168 4608   2.402   2.377   1.864 -0.1653 -0.6265 -0.0998
   21MOL   C169 4609   2.361   2.269   1.949  0.9593 -0.0360  0.3361
   21MOL   C170 4610   2.444   2.150   1.960 -0.1850  0.5654 -0.2582
   21MOL   C171 4611   2.560   2.136   1.878 -0.2302 -0.2965 -0.1771
   21MOL   C172 4612   2.602   2.249   1.800 -0.1530 -0.1059 -0.2678
   21MOL   O173 4613   2.715   2.235   1.724 -0.0474 -0.3300  0.4563
   21MOL   H174 4614   2.572   2.444   1.740 -0.4022 -0.9794 -2.2761
   21MOL   H175 4615   2.349   2.471   1.867  2.1121  0.6711  0.7869
   21MOL   H176 4616   2.412   2.066   2.020 -0.3207  0.2251 -0.7937
   21MOL   H177 4617   2.619   2.046   1.884  0.3292  0.1641  1.5582
   21MOL   C178 4618   3.034   2.214   1.908 -0.4455 -0.4112  0.0840
   21MOL   C179 4619   2.911   2.181   1.847 -0.4854 -0.4198 -0.2285
   21MOL   C180 4620   2.832   2.277   1.783  0.4169 -0.0963 -0.4068
   21MOL   C181 4621   2.881   2.408   1.778  0.7394 -0.7974  0.3443
   21MOL   C182 4622   3.011   2.444   1.821 -0.4009 -0.3326  0.3242
   21MOL   C183 4623   3.084   2.343   1.891 -0.5291  0.3876 -0.1442
   21MOL   O184 4624   3.207   2.384   1.939  0.0710  0.2128 -0.1109
   21MOL   H185 4625   3.093   2.142   1.962 -0.4109  0.8600  1.7995
   21MOL   H186 4626   2.882   2.077   1.853 -2.8227  0.0528 -2.3564
   21MOL   H187 4627   2.820   2.472   1.716 -0.3435 -1.1642  1.0255
   21MOL   H188 4628   3.039   2.547   1.807 -3.6659  0.4440 -0.9457
   21MOL   C189 4629   3.318   2.300   2.281 -0.3859  0.5228  0.3947
   21MOL   C190 4630   3.314   2.292   2.138  0.1100 -0.2301  0.3678
   21MOL   C191 4631   3.218   2.377   2.077 -0.3183 -0.4531 -0.1721
   21MOL   C192 4632   3.131   2.458   2.156  0.7517  0.0914  0.5122
   21MOL   C193 4633   3.130   2.453   2.298  0.4975  0.4506 -0.4926
   21MOL   C194 4634   3.225   2.369   2.360 -0.3562 -0.6726  0.8802
   21MOL   O195 4635   3.229   2.358   2.499  0.2670 -0.3009  0.2601
   21MOL   H196 4636   3.389   2.243   2.339 -0.6049  1.5557  1.6904
   21MOL   H197 4637   3.383   2.226   2.089  0.7254 -0.2900  1.3011
   21MOL   H198 4638   3.053   2.510   2.103  0.4332 -1.7125 -0.8479
   21MOL   H199 4639   3.052   2.499   2.357 -0.5325 -0.5348 -1.0511
   21MOL   C200 4640   2.927   2.302   2.697  0.0277  0.0960 -0.3339
   21MOL   C201 4641   3.035   2.363   2.636  0.3063  0.2132  0.2460
   21MOL   C202 4642   3.128   2.289   2.561  1.0802 -0.4467  0.2279
   21MOL   C203 4643   3.110   2.150   2.545  0.0800 -0.5599  0.3719
   21MOL   C204 4644   3.002   2.085   2.604 -0.5464 -0.5358 -0.0467
   21MOL   C205 4645   2.910   2.163   2.681  0.3012  0.3535  0.4495
   21MOL   O206 4646   2.809   2.103   2.752 -0.2765 -0.2902 -0.1255
   21MOL   H207 4647   2.861   2.365   2.755  1.0527  0.4502  0.4523
   21MOL   H208 4648   3.039   2.468   2.659  1.5805  0.4873 -1.1485
   21MOL   H209 4649   3.190   2.104   2.490 -0.2044  0.0179 -0.5275
   21MOL   H210 4650   2.989   1.978   2.595  0.8139 -0.6290 -1.0481
   21MOL   C211 4651   2.453   2.158   2.662 -0.3788 -0.1921 -0.8003
   21MOL   C212 4652   2.577   2.169   2.714 -0.7675 -0.3368 -0.0555
   21MOL   C213 4653   2.685   2.084   2.685  0.3787 -0.3435 -1.0548
   21MOL   C214 4654   2.665   1.978   2.594  0.3173 -0.8211  0.0780
   21MOL   C215 4655   2.537   1.959   2.540  0.3466 -0.2133 -0.4799
   21MOL   C216 4656   2.435   2.051   2.569  0.2426 -0.6265  0.5409
   21MOL   O217 4657   2.314   2.049   2.504 -0.6718 -0.2546  0.2354
   21MOL   H218 4658   2.380   2.230   2.695  1.9818 -0.0540  4.5236
   21MOL   H219 4659   2.604   2.240   2.790 -2.3058  0.9404 -0.6864
   21MOL   H220 4660   2.742   1.907   2.568  1.4202  0.2055  0.4651
   21MOL   H221 4661   2.513   1.873   2.478 -0.6524 -1.3151  1.4125
   21MOL   H222 4662   2.252   2.113   2.536 -1.3505 -0.1439 -1.2604
   22MOL     C1 4663   6.391   7.485   4.486  0.1012  0.4984 -0.5465
   22MOL     C2 4664   6.324   7.373   4.439 -0.4757  0.0883 -0.6319
   22MOL     C3 4665   6.311   7.358   4.301  0.2645 -0.0551  0.7372
   22MOL     C4 4666   6.362   7.451   4.210  0.0138  0.6678 -0.6302
   22MOL     C5 4667   6.419   7.569   4.256 -0.1329  0.2732  0.0887
   22MOL     C6 4668   6.430   7.586   4.396  0.0610 -0.5070  0.1899
   22MOL     O7 4669   6.496   7.697   4.441  0.8918 -0.0893 -0.1820
   22MOL     H8 4670   6.404   7.500   4.592  0.3073  0.3049 -0.5428
   22MOL     H9 4671   6.302   7.299   4.515  0.8009  1.8928  1.5570
   22MOL    H10 4672   6.351   7.422   4.107 -1.9785 -0.5802 -0.0786
   22MOL    H11 4673   6.459   7.645   4.192 -1.9982  1.2446  0.0330
   22MOL    H12 4674   6.263   7.273   4.255  0.6743  0.7401 -1.2153
   22MOL    C13 4675   6.407   8.034   4.323 -0.7418  0.2018 -0.3860
   22MOL    C14 4676   6.460   7.906   4.328 -0.1958  1.0344  0.2718
   22MOL    C15 4677   6.424   7.813   4.427  0.4303  0.3158 -0.1176
   22MOL    C16 4678   6.327   7.848   4.518  0.2085  0.2316  0.8909
   22MOL    C17 4679   6.256   7.974   4.506 -0.9217  0.2962  0.2671
   22MOL    C18 4680   6.301   8.068   4.407 -0.8439  0.1924  0.6200
   22MOL    O19 4681   6.242   8.197   4.399  0.0550  0.6713 -0.9397
   22MOL    H20 4682   6.448   8.101   4.249  0.2368  1.2208  1.0554
   22MOL    H21 4683   6.549   7.887   4.270 -1.0777 -0.7063 -0.5447
   22MOL    H22 4684   6.303   7.769   4.587 -0.1701  0.2633  0.7968
   22MOL    H23 4685   6.173   7.996   4.571 -1.8559 -0.6856 -0.5760
   22MOL    C24 4686   6.393   0.099   4.706  0.4237 -0.6491 -0.2054
   22MOL    C25 4687   6.378   0.032   4.586 -0.0855 -0.4711 -0.3592
   22MOL    C26 4688   6.256   0.026   4.517 -0.2541 -0.2925 -0.9193
   22MOL    C27 4689   6.154   0.114   4.564 -0.5016 -0.1523  0.1135
   22MOL    C28 4690   6.171   0.202   4.677  0.2642 -0.5144 -0.0314
   22MOL    C29 4691   6.291   0.193   4.748 -0.1399  0.6792 -0.4360
   22MOL    O30 4692   6.307   0.293   4.846  0.7348  0.2839 -0.5257
   22MOL    H31 4693   6.485   0.091   4.763  1.1562 -0.6095 -1.3762
   22MOL    H32 4694   6.467   8.236   4.549 -0.0439 -3.6904  3.8057
   22MOL    H33 4695   6.058   0.120   4.514 -0.8517  0.9439  0.8752
   22MOL    H34 4696   6.087   0.259   4.715  0.5012 -0.7034  0.8044
   22MOL    C35 4697   6.474   0.204   5.163 -0.0252  0.2814 -0.0217
   22MOL    C36 4698   6.380   0.220   5.058 -0.2342 -0.2047 -0.2084
   22MOL    C37 4699   6.408   0.282   4.936  0.6763  0.6302  0.4452
   22MOL    C38 4700   6.537   0.336   4.916  0.0784  0.3172  0.3212
   22MOL    C39 4701   6.635   0.317   5.011 -0.8741 -0.2693 -0.3710
   22MOL    C40 4702   6.607   0.255   5.136 -0.8263 -0.3304 -0.2226
   22MOL    O41 4703   6.700   0.266   5.232 -0.1415  0.4405 -0.3764
   22MOL    H42 4704   6.442   0.154   5.253 -1.5817  0.8451 -0.2523
   22MOL    H43 4705   6.284   0.183   5.091  0.1796 -0.3324  0.8607
   22MOL    H44 4706   6.555   0.391   4.824  1.3291  0.0936  0.4161
   22MOL    H45 4707   6.731   0.366   4.995 -1.2902  1.0493  0.9922
   22MOL    C46 4708   6.763   8.195   5.407 -0.3088 -0.8497 -0.4300
   22MOL    C47 4709   6.694   0.047   5.345 -0.2898 -0.8738 -0.3768
   22MOL    C48 4710   6.764   0.158   5.284 -0.0692 -0.4154 -0.7319
   22MOL    C49 4711   6.903   0.153   5.292 -0.4365  0.3616  0.0396
   22MOL    C50 4712   6.970   0.047   5.360  0.4011  1.4013 -0.0690
   22MOL    C51 4713   6.900   8.196   5.422 -0.4140 -0.3020  0.0171
   22MOL    O52 4714   6.961   8.112   5.504  0.1582 -0.5988  0.4256
   22MOL    H53 4715   6.692   8.117   5.432 -1.7074  0.2247 -0.9742
   22MOL    H54 4716   6.587   0.044   5.354 -0.2812 -1.0881 -0.3572
   22MOL    H55 4717   6.959   0.232   5.244  1.9764 -1.0569  0.4445
   22MOL    H56 4718   7.078   0.050   5.371  0.2310 -0.2808  2.5648
   22MOL    C57 4719   6.920   7.871   5.777  0.0684  0.3497 -0.3368
   22MOL    C58 4720   6.945   7.922   5.654 -0.0207 -0.5195  0.0528
   22MOL    C59 4721   6.910   8.055   5.620 -0.3662 -0.7280  0.8262
   22MOL    C60 4722   6.855   8.131   5.725 -0.0152 -0.1144  0.4901
   22MOL    C61 4723   6.831   8.074   5.850 -0.4359  0.1775 -0.2564
   22MOL    C62 4724   6.865   7.941   5.879 -0.4957 -0.6479 -0.8234
   22MOL    O63 4725   6.830   7.879   5.999 -0.0956 -0.0730 -0.1077
   22MOL    H64 4726   6.950   7.770   5.798 -0.0531 -0.0249 -1.8865
   22MOL    H65 4727   6.987   7.856   5.579  3.3819 -0.3146  1.6625
   22MOL    H66 4728   6.824   8.234   5.711 -0.7161  0.0218  2.8254
   22MOL    H67 4729   6.784   8.127   5.931 -2.0223  1.8814 -2.2423
   22MOL    C68 4730   7.088   8.004   6.238 -0.0398  0.4445 -0.3269
   22MOL    C69 4731   7.024   7.970   6.114  0.9515 -0.2654 -0.5993
   22MOL    C70 4732   6.894   7.916   6.115 -0.2024  0.1853  0.3820
   22MOL    C71 4733   6.830   7.899   6.241 -0.0828  0.1865  0.2903
   22MOL    C72 4734   6.898   7.933   6.363 -0.3437  1.0671  0.7799
   22MOL    C73 4735   7.031   7.983   6.360 -0.7717 -0.1189  0.0011
   22MOL    O74 4736   7.093   8.013   6.476 -0.0264  0.2188 -0.2976
   22MOL    H75 4737   7.189   8.043   6.235 -0.8439  2.5430 -1.9899
   22MOL    H76 4738   7.081   7.983   6.023 -0.1539  1.0118 -1.1315
   22MOL    H77 4739   6.731   7.857   6.247  0.1156 -0.4599 -0.8791
   22MOL    H78 4740   6.847   7.924   6.458 -0.6401  2.0716  0.7172
   22MOL    C79 4741   7.185   0.026   6.709  0.8371 -0.0415 -0.2831
   22MOL    C80 4742   7.158   8.159   6.654  0.4635 -0.1615  0.0771
   22MOL    C81 4743   7.115   8.143   6.516 -0.5033 -0.5324 -0.6989
   22MOL    C82 4744   7.094   0.001   6.444  0.1838  0.5859  0.5282
   22MOL    C83 4745   7.142   0.127   6.493 -0.0097  0.3830  0.3464
   22MOL    C84 4746   7.181   0.141   6.627 -0.6749 -0.4188  0.4354
   22MOL    O85 4747   7.219   0.261   6.685 -0.2466  0.4941  0.1904
   22MOL    H86 4748   7.215   0.028   6.813  3.0474  0.0468 -0.9167
   22MOL    H87 4749   7.161   8.066   6.710  0.9676  0.1553  0.5831
   22MOL    H88 4750   7.057   8.249   6.343 -2.0459  1.1351  1.2924
   22MOL    H89 4751   7.140   0.215   6.431  2.7143 -0.7111 -1.3354
   22MOL    C90 4752   7.535   0.398   6.803 -0.1476  0.7499  0.0325
   22MOL    C91 4753   7.398   0.368   6.802  0.4924  0.4177 -0.0365
   22MOL    C92 4754   7.357   0.293   6.690  0.2455 -0.5162 -0.9014
   22MOL    C93 4755   7.443   0.248   6.591  0.4074  0.5861  0.5705
   22MOL    C94 4756   7.577   0.279   6.591 -0.5722  0.9108 -0.2041
   22MOL    C95 4757   7.623   0.356   6.696 -0.1774 -0.1711  0.1251
   22MOL    O96 4758   7.754   0.403   6.688  0.5865 -0.1416  1.7407
   22MOL    H97 4759   7.590   0.462   6.870  1.3181  0.5420 -0.9523
   22MOL    H98 4760   7.329   0.415   6.870  0.3270 -0.4081  0.3744
   22MOL    H99 4761   7.397   0.192   6.510  4.0518 -0.5729 -0.7790
   22MOL   H100 4762   7.636   0.258   6.502 -0.4843 -1.8596  0.4716
   22MOL   C101 4763   7.948   0.193   6.922 -0.0365 -0.6559  0.0228
   22MOL   C102 4764   7.842   0.244   6.850  0.1383 -0.3541  0.0164
   22MOL   C103 4765   7.854   0.359   6.767  0.1966 -0.0673  0.1607
   22MOL   C104 4766   7.984   0.415   6.751  0.3259  0.6360 -0.5468
   22MOL   C105 4767   8.094   0.370   6.831 -0.3007  0.2952 -0.1306
   22MOL   C106 4768   8.073   0.255   6.911  0.3830 -0.7563  0.5435
   22MOL   O107 4769   8.179   0.202   6.978 -0.1261  0.4244  0.2168
   22MOL   H108 4770   7.943   0.123   7.004  0.6415  0.5947  1.1542
   22MOL   H109 4771   7.744   0.199   6.862  1.0058 -1.9264  1.3035
   22MOL   H110 4772   7.991   0.498   6.683  0.7235  0.8163 -0.2812
   22MOL   H111 4773   8.189   0.420   6.835  0.9602 -1.8655 -1.9245
   22MOL   C112 4774   0.159   0.293   7.259  0.3682  0.6334  0.0840
   22MOL   C113 4775   0.093   0.219   7.157  0.1616 -0.1001 -0.5684
   22MOL   C114 4776   8.227   0.262   7.095 -0.2103  0.0573  0.3532
   22MOL   C115 4777   8.174   0.385   7.143 -0.1109  0.6226 -0.0253
   22MOL   C116 4778   8.240   0.464   7.239  0.3817  0.5568  0.2586
   22MOL   C117 4779   0.105   0.410   7.308  0.7950  0.0221 -0.1433
   22MOL   O118 4780   0.176   0.470   7.416  0.4639 -0.0571 -0.3043
   22MOL   H119 4781   0.249   0.254   7.304 -0.2631 -2.0072 -0.8282
   22MOL   H120 4782   0.132   0.128   7.114  1.0831  0.3821 -0.7603
   22MOL   H121 4783   8.092   0.433   7.092  0.2039  0.4569 -0.6931
   22MOL   H122 4784   8.213   0.560   7.281  2.2015 -0.7168  4.7261
   22MOL   C123 4785   8.173   0.603   7.644  0.0254 -0.5177 -0.1656
   22MOL   C124 4786   8.244   0.513   7.557  0.9041  0.1968  0.7890
   22MOL   C125 4787   0.102   0.551   7.492 -0.1602 -0.4698 -0.4795
   22MOL   C126 4788   0.146   0.685   7.512  0.2625 -0.4495 -0.5369
   22MOL   C127 4789   0.076   0.779   7.581  0.1140  0.2593 -0.2412
   22MOL   C128 4790   8.217   0.737   7.656  0.8227 -0.1118  0.6461
   22MOL   O129 4791   8.157   0.829   7.741 -0.0371  0.3229 -0.7317
   22MOL   H130 4792   8.086   0.558   7.690 -0.2159  0.3028  0.1794
   22MOL   H131 4793   8.209   0.410   7.553 -1.1818  0.9115  0.1238
   22MOL   H132 4794   0.241   0.713   7.468 -0.4856  2.5592 -0.3109
   22MOL   H133 4795   0.109   0.880   7.602 -1.8541  0.5153  1.9175
   22MOL   C134 4796   0.010   0.837   8.093  0.1631 -0.0108  0.0404
   22MOL   C135 4797   8.192   0.800   7.984  0.4516 -0.1627  0.2435
   22MOL   C136 4798   8.213   0.862   7.862  0.2151 -0.2219 -0.3205
   22MOL   C137 4799   0.043   0.972   7.854 -0.9922  0.2178 -1.1363
   22MOL   C138 4800   0.113   1.018   7.972 -0.3125  0.0791  0.6875
   22MOL   C139 4801   0.095   0.947   8.092  0.3795 -0.1341  0.1827
   22MOL   O140 4802   0.160   0.993   8.205  0.1683  0.0506 -0.0666
   22MOL   H141 4803   8.241   0.784   8.184 -0.3132  0.9749  0.4963
   22MOL   H142 4804   8.129   0.712   7.986  0.2854 -0.0100  2.2095
   22MOL   H143 4805   0.062   1.030   7.764  0.5330  0.0971 -0.8991
   22MOL   H144 4806   0.170   1.109   7.971  1.6294 -1.1205 -1.2099
   22MOL   C145 4807   0.364   0.825   0.216  0.1766 -0.9469 -0.4652
   22MOL   C146 4808   0.258   0.897   0.152 -0.4625 -0.4663  0.6136
   22MOL   C147 4809   0.259   0.917   0.015 -0.3098  0.0411 -0.2962
   22MOL   C148 4810   0.368   0.879   8.191  0.6381  0.1359 -0.1076
   22MOL   C149 4811   0.478   0.810   0.001  0.3718 -0.7818 -0.0593
   22MOL   C150 4812   0.470   0.777   0.139 -0.0903 -0.8476  0.6533
   22MOL   O151 4813   0.578   0.708   0.200  0.4537 -0.9735  0.4432
   22MOL   H152 4814   0.347   0.801   0.320  0.6571 -0.1367 -0.1918
   22MOL   H153 4815   0.168   0.934   0.201  0.0817 -0.2595  1.4750
   22MOL   H154 4816   0.358   0.888   8.084 -2.1811  0.6206  0.1363
   22MOL   H155 4817   0.566   0.779   8.201  1.4844  2.2808 -0.0922
   22MOL   C156 4818   0.441   0.388   0.315  0.1883 -0.1379 -0.1008
   22MOL   C157 4819   0.447   0.526   0.289 -0.3314  0.3176 -0.6042
   22MOL   C158 4820   0.564   0.573   0.226 -0.2121  0.4073 -0.2500
   22MOL   C159 4821   0.677   0.490   0.198  0.1708 -0.2879 -0.4751
   22MOL   C160 4822   0.665   0.358   0.235 -0.2250  0.0206  0.1704
   22MOL   C161 4823   0.548   0.300   0.289 -0.8860 -0.7355  0.0873
   22MOL   O162 4824   0.539   0.168   0.316  0.2505 -0.5859 -0.1080
   22MOL   H163 4825   0.353   0.346   0.362 -0.7281 -1.0173 -2.5346
   22MOL   H164 4826   0.365   0.587   0.323  0.7083  0.3872  1.8801
   22MOL   H165 4827   0.765   0.532   0.151  0.2925  0.7035  0.6239
   22MOL   H166 4828   0.753   0.303   0.206  0.3742  0.4606  1.1677
   22MOL   C167 4829   0.742   8.161   0.461  0.0424  0.3537  0.2196
   22MOL   C168 4830   0.652   8.228   0.377 -0.8813 -0.0281  0.5957
   22MOL   C169 4831   0.625   0.107   0.402  0.5179 -0.3146  0.1216
   22MOL   C170 4832   0.681   0.167   0.516 -0.0985  0.3320  0.3081
   22MOL   C171 4833   0.771   0.098   0.601 -1.0666 -0.1241  0.1339
   22MOL   C172 4834   0.805   8.217   0.571  0.2695  0.3727  0.2193
   22MOL   O173 4835   0.891   8.149   0.658 -0.3582 -0.2906 -0.0679
   22MOL   H174 4836   0.760   8.057   0.436  0.7282  0.7748 -1.0585
   22MOL   H175 4837   0.596   8.182   0.297  0.3191 -0.6061  0.0731
   22MOL   H176 4838   0.656   0.270   0.534 -1.8559 -0.1049  0.4369
   22MOL   H177 4839   0.820   0.146   0.685  0.2296 -1.2222  0.0258
   22MOL   C178 4840   0.709   7.847   0.768 -0.1104 -0.2222  0.4005
   22MOL   C179 4841   0.731   7.982   0.728  0.7062 -0.1089  0.3595
   22MOL   C180 4842   0.862   8.021   0.699  0.0840  0.2013 -0.4380
   22MOL   C181 4843   0.966   7.930   0.724 -0.7488  1.0155 -0.1260
   22MOL   C182 4844   0.942   7.802   0.774  0.5783  0.1960 -0.6659
   22MOL   C183 4845   0.814   7.756   0.792  0.4069  0.1577 -0.3450
   22MOL   O184 4846   0.779   7.636   0.845 -0.3400 -0.1619  0.5318
   22MOL   H185 4847   0.607   7.819   0.790  0.4735 -3.6308 -0.9824
   22MOL   H186 4848   0.647   8.049   0.711  1.2773  0.2331 -1.2234
   22MOL   H187 4849   1.068   7.961   0.711 -0.1789 -0.2348  1.2713
   22MOL   H188 4850   1.022   7.730   0.784  0.2512 -0.0975 -0.1473
   22MOL   C189 4851   0.865   7.658   1.202  0.6580 -0.4971 -0.1500
   22MOL   C190 4852   0.808   7.682   1.077  0.8142 -0.6105 -0.7859
   22MOL   C191 4853   0.845   7.607   0.965 -0.3094 -0.2925  0.8663
   22MOL   C192 4854   0.944   7.506   0.972  0.3525 -0.8953 -0.0520
   22MOL   C193 4855   0.993   7.477   1.097  0.1018  0.5760  0.0408
   22MOL   C194 4856   0.949   7.543   1.213  0.3570 -0.6011  0.3143
   22MOL   O195 4857   0.988   7.489   1.333  0.0870 -0.5314 -0.2383
   22MOL   H196 4858   0.830   7.709   1.290 -1.4730  1.1885 -1.9158
   22MOL   H197 4859   0.726   7.750   1.061 -0.9684 -2.1212  1.6214
   22MOL   H198 4860   0.970   7.454   0.881 -0.2772 -0.2612 -0.5954
   22MOL   H199 4861   1.064   7.395   1.100 -0.2847  0.1557 -1.9002
   22MOL   C200 4862   0.657   7.348   1.449 -0.5705 -0.7885 -0.6381
   22MOL   C201 4863   0.764   7.392   1.367 -0.9554  0.4862  0.4193
   22MOL   C202 4864   0.884   7.452   1.421 -0.7956  0.4039 -0.0481
   22MOL   C203 4865   0.895   7.457   1.558 -0.3710 -0.4643 -0.3476
   22MOL   C204 4866   0.801   7.400   1.640  0.3667  0.3623  0.6175
   22MOL   C205 4867   0.678   7.357   1.592 -0.2952  0.3600 -0.6871
   22MOL   O206 4868   0.578   7.323   1.683  0.0315  0.4438 -0.0522
   22MOL   H207 4869   0.562   7.312   1.415 -0.7149 -0.3306 -0.7261
   22MOL   H208 4870   0.752   7.374   1.261  0.4990 -0.0416  0.3316
   22MOL   H209 4871   0.990   7.491   1.597  0.5021 -2.2287 -0.8993
   22MOL   H210 4872   0.818   7.391   1.747  0.1950  0.2032  0.6316
   22MOL   C211 4873   0.714   7.006   1.831  0.1282 -0.1279 -0.2355
   22MOL   C212 4874   0.706   7.111   1.737  0.3723  0.2326 -0.2962
   22MOL   C213 4875   0.597   7.203   1.758  0.4351  0.6335 -0.4965
   22MOL   C214 4876   0.506   7.181   1.857 -0.0730  0.2013  0.2886
   22MOL   C215 4877   0.509   7.064   1.937 -1.1918  0.2031  0.2570
   22MOL   C216 4878   0.618   6.979   1.924  0.0925  0.4527  0.7764
   22MOL   O217 4879   0.619   6.862   1.992  0.0217  0.1640  0.2734
   22MOL   H218 4880   0.792   6.933   1.816  1.7437  1.2546  1.1973
   22MOL   H219 4881   0.793   7.137   1.679  0.1188  2.6660  0.3599
   22MOL   H220 4882   0.428   7.255   1.866  0.5160  0.7513  0.9705
   22MOL   H221 4883   0.426   7.044   2.003 -0.8686 -1.1663  0.2754
   22MOL   H222 4884   0.539   6.840   2.037  0.3916 -3.1068 -0.5473
   23MOL     C1 4885   0.314   4.072   0.146 -0.6383 -0.1251 -0.1032
   23MOL     C2 4886   0.172   4.083   0.124  0.1774 -1.1834  0.0997
   23MOL     C3 4887   0.122   4.174   0.030 -0.5768 -0.4577  0.2801
   23MOL     C4 4888   0.209   4.246   8.205 -0.0138 -1.1822 -0.0678
   23MOL     C5 4889   0.350   4.239   8.227 -0.0116 -0.2688  0.0993
   23MOL     C6 4890   0.403   4.157   0.072  0.2383 -0.2911 -0.1923
   23MOL     O7 4891   0.539   4.154   0.098  0.0670 -0.0407 -0.1538
   23MOL     H8 4892   0.344   4.003   0.225 -0.3571 -0.0905 -0.1778
   23MOL     H9 4893   0.098   4.032   0.184  0.2436 -2.3523 -0.7788
   23MOL    H10 4894   0.165   4.302   8.124  2.4306 -0.5759 -1.0247
   23MOL    H11 4895   0.409   4.310   8.171 -2.0795  1.4766  0.0743
   23MOL    H12 4896   0.017   4.191   0.012 -0.4041  0.6569  0.3067
   23MOL    C13 4897   0.660   4.503   0.143 -0.2396  0.5350  0.1007
   23MOL    C14 4898   0.621   4.381   0.080  0.0090 -0.6802 -0.3679
   23MOL    C15 4899   0.589   4.268   0.161 -0.5261  0.4897  0.2704
   23MOL    C16 4900   0.605   4.273   0.300  0.1829  0.1246 -0.4105
   23MOL    C17 4901   0.648   4.395   0.362 -0.5727  0.2811  0.3201
   23MOL    C18 4902   0.669   4.513   0.285 -0.1592  0.7860  0.3341
   23MOL    O19 4903   0.702   4.635   0.335 -0.3304 -0.4582 -0.4336
   23MOL    H20 4904   0.681   4.588   0.080 -0.4045  1.0362  0.7161
   23MOL    H21 4905   0.602   4.376   8.228 -0.8176  1.4787 -0.3483
   23MOL    H22 4906   0.569   4.189   0.358  1.8125 -0.6914 -0.5364
   23MOL    H23 4907   0.660   4.405   0.468  0.2339 -0.5742  0.3214
   23MOL    C24 4908   0.825   4.684   0.678 -0.2562  0.5802 -0.1250
   23MOL    C25 4909   0.733   4.669   0.569 -0.6049  0.1949  0.1755
   23MOL    C26 4910   0.781   4.643   0.439 -0.8748  0.5537 -0.2479
   23MOL    C27 4911   0.920   4.619   0.422  0.5641  0.7341 -1.3407
   23MOL    C28 4912   1.016   4.644   0.526 -0.8521  0.1612  0.0682
   23MOL    C29 4913   0.964   4.663   0.661  0.0218  0.2868 -0.1603
   23MOL    O30 4914   1.054   4.662   0.762  0.1396 -0.4357  0.1026
   23MOL    H31 4915   0.779   4.706   0.773 -2.3074  0.6162 -1.0972
   23MOL    H32 4916   0.628   4.692   0.577 -0.5460  0.5209  0.0133
   23MOL    H33 4917   0.949   4.595   0.320 -0.7405  1.1020 -1.8090
   23MOL    H34 4918   1.120   4.629   0.499 -1.1905  0.1011 -1.2440
   23MOL    C35 4919   0.985   4.898   1.033  0.6109  0.5814 -0.2831
   23MOL    C36 4920   0.974   4.782   0.951  0.3308  0.2729  0.2007
   23MOL    C37 4921   1.062   4.773   0.845 -0.2487 -0.2931 -0.0414
   23MOL    C38 4922   1.148   4.876   0.812 -0.1492 -0.4276 -0.2107
   23MOL    C39 4923   1.164   4.982   0.901 -0.0970  0.0887 -0.1069
   23MOL    C40 4924   1.080   4.996   1.008  0.4194  0.7723  1.2206
   23MOL    O41 4925   1.090   5.105   1.084  0.2246  0.3559  0.0270
   23MOL    H42 4926   0.910   4.906   1.111  0.8242 -1.2284  0.1334
   23MOL    H43 4927   0.898   4.712   0.983  0.5856  0.8130  2.0539
   23MOL    H44 4928   1.217   4.855   0.732  0.7878 -2.2491  1.0517
   23MOL    H45 4929   1.242   5.052   0.874 -0.4172  0.1628 -0.8420
   23MOL    C46 4930   1.206   5.048   1.432  0.1485  1.0689 -0.2630
   23MOL    C47 4931   1.124   5.059   1.318 -0.3897 -0.0464 -0.0429
   23MOL    C48 4932   1.177   5.103   1.194  0.1197 -0.8088 -0.5805
   23MOL    C49 4933   1.313   5.127   1.179 -0.1078  0.0559 -0.4374
   23MOL    C50 4934   1.398   5.113   1.288 -0.5031 -0.6751 -0.5182
   23MOL    C51 4935   1.342   5.074   1.418 -0.8961  0.2096 -0.4791
   23MOL    O52 4936   1.422   5.096   1.528  0.5247 -0.2030  0.3956
   23MOL    H53 4937   1.168   5.031   1.532  0.2061  2.0489 -0.0654
   23MOL    H54 4938   1.020   5.029   1.322 -0.4149  0.2158  1.1404
   23MOL    H55 4939   1.342   5.171   1.084 -3.3470  1.0948 -1.0132
   23MOL    H56 4940   1.499   5.152   1.279 -0.5344 -0.2038  1.1024
   23MOL    C57 4941   1.598   5.427   1.551 -0.6953  0.4216  0.5147
   23MOL    C58 4942   1.568   5.290   1.515  0.7672  0.5583 -0.5414
   23MOL    C59 4943   1.449   5.229   1.559 -0.4789  0.1227 -0.4994
   23MOL    C60 4944   1.353   5.305   1.628  0.2453  0.4915  0.5630
   23MOL    C61 4945   1.369   5.440   1.642 -0.5166  0.0032  0.3371
   23MOL    C62 4946   1.493   5.505   1.598  0.6093 -0.0551 -0.1940
   23MOL    O63 4947   1.496   5.638   1.612 -0.3392 -0.2528  0.1681
   23MOL    H64 4948   1.692   5.476   1.529 -0.7808 -0.2128 -1.3867
   23MOL    H65 4949   1.647   5.236   1.465  2.2865 -0.6371  2.9767
   23MOL    H66 4950   1.263   5.256   1.663 -2.2233  2.7455 -2.4572
   23MOL    H67 4951   1.289   5.504   1.677 -0.6785  2.2821 -3.8589
   23MOL    C68 4952   1.789   5.837   1.714 -0.9252  0.3943  0.1025
   23MOL    C69 4953   1.699   5.767   1.633 -0.4030  0.8654  0.3087
   23MOL    C70 4954   1.597   5.687   1.692 -0.1118 -0.6923  0.9248
   23MOL    C71 4955   1.608   5.658   1.833  0.1940 -0.0973 -0.0559
   23MOL    C72 4956   1.701   5.727   1.909  0.1282  0.1040  0.0980
   23MOL    C73 4957   1.794   5.816   1.855 -0.3683 -0.1067 -0.2002
   23MOL    O74 4958   1.886   5.881   1.931  0.1173  0.0707 -0.3311
   23MOL    H75 4959   1.863   5.902   1.669 -1.9258  2.2065  0.9932
   23MOL    H76 4960   1.697   5.772   1.526 -2.7322  0.2118  0.2894
   23MOL    H77 4961   1.548   5.583   1.882  0.3266  0.3207  0.7472
   23MOL    H78 4962   1.705   5.711   2.016  0.5561  1.6578  0.3341
   23MOL    C79 4963   1.722   6.121   2.161  0.1426 -0.3629 -0.0868
   23MOL    C80 4964   1.775   5.999   2.106  0.1348  0.7552 -0.3433
   23MOL    C81 4965   1.842   6.003   1.981 -0.0626 -0.0241 -0.3397
   23MOL    C82 4966   1.861   6.131   1.914  0.1708 -0.0097 -0.5463
   23MOL    C83 4967   1.807   6.245   1.971  0.1848 -0.8193 -0.2583
   23MOL    C84 4968   1.740   6.244   2.092  0.3335  0.6818 -0.3391
   23MOL    O85 4969   1.684   6.361   2.135  0.2540  0.1997  0.1004
   23MOL    H86 4970   1.668   6.118   2.255 -0.2113  2.9221 -0.1272
   23MOL    H87 4971   1.761   5.908   2.163 -0.5006  0.9398 -0.2029
   23MOL    H88 4972   1.919   6.131   1.823 -1.1751  1.7083 -1.4252
   23MOL    H89 4973   1.823   6.336   1.915  1.6765 -1.3271 -0.6793
   23MOL    C90 4974   1.611   6.502   2.465  0.3838  0.3455 -0.2472
   23MOL    C91 4975   1.593   6.439   2.340  0.6658 -0.2015  0.2571
   23MOL    C92 4976   1.705   6.393   2.265 -0.3966 -0.1332 -0.3375
   23MOL    C93 4977   1.833   6.407   2.322 -0.0069  0.1955  0.3284
   23MOL    C94 4978   1.846   6.453   2.453 -0.0845  0.3050  0.4597
   23MOL    C95 4979   1.738   6.508   2.520 -0.0996 -0.3232 -0.0807
   23MOL    O96 4980   1.753   6.539   2.655  0.3229  0.0085 -0.0244
   23MOL    H97 4981   1.526   6.534   2.524  0.3416  1.9665 -1.1614
   23MOL    H98 4982   1.494   6.424   2.301  0.6620  0.8409 -0.1473
   23MOL    H99 4983   1.916   6.366   2.267 -0.3145 -1.2502  0.9259
   23MOL   H100 4984   1.944   6.446   2.498  0.9381  1.5236 -1.5143
   23MOL   C101 4985   1.890   6.889   2.616  0.0241 -0.2307  0.1676
   23MOL   C102 4986   1.800   6.779   2.600  0.4069 -0.6049 -0.0298
   23MOL   C103 4987   1.823   6.660   2.679  0.0771 -0.0713  1.3371
   23MOL   C104 4988   1.925   6.654   2.777 -0.1711 -0.0295  0.5689
   23MOL   C105 4989   2.000   6.768   2.798  0.1511  0.2357  0.1792
   23MOL   C106 4990   1.983   6.884   2.723  0.1948  0.4094  0.3314
   23MOL   O107 4991   2.069   6.989   2.743 -0.3102 -0.3902 -0.7267
   23MOL   H108 4992   1.875   6.982   2.563  1.0708  0.2223  0.6642
   23MOL   H109 4993   1.722   6.781   2.525  1.2360 -1.3304 -0.9381
   23MOL   H110 4994   1.946   6.560   2.826  3.5851 -0.7546 -2.1351
   23MOL   H111 4995   2.074   6.779   2.876  0.1479 -0.3889  0.2738
   23MOL   C112 4996   2.206   7.167   2.457 -0.0784  0.0881 -0.5060
   23MOL   C113 4997   2.130   7.146   2.573 -0.1789  0.8341  0.0851
   23MOL   C114 4998   2.147   7.027   2.638  0.4818 -0.0626  0.7950
   23MOL   C115 4999   2.249   6.935   2.602  0.2732  0.1159  0.5961
   23MOL   C116 5000   2.325   6.961   2.481 -0.0332  0.3201 -0.0326
   23MOL   C117 5001   2.300   7.081   2.415  0.2241 -0.2026  0.2028
   23MOL   O118 5002   2.382   7.122   2.312 -0.0066  0.1427  0.1672
   23MOL   H119 5003   2.184   7.263   2.413 -4.0895 -0.7900 -0.6427
   23MOL   H120 5004   2.055   7.212   2.613 -0.5086  1.3874 -1.4169
   23MOL   H121 5005   2.261   6.847   2.663 -0.0007  0.8671  1.7531
   23MOL   H122 5006   2.403   6.893   2.451 -1.6338 -0.8431 -1.6566
   23MOL   C123 5007   2.303   7.223   1.969 -0.6327 -0.0069  0.3767
   23MOL   C124 5008   2.346   7.231   2.100 -0.0151 -0.0194  0.3350
   23MOL   C125 5009   2.334   7.115   2.182 -0.8102  0.2997  0.1164
   23MOL   C126 5010   2.293   6.996   2.126 -0.4589  0.4305  0.2462
   23MOL   C127 5011   2.248   6.984   1.995  0.1927 -0.1003  0.2998
   23MOL   C128 5012   2.247   7.102   1.921 -0.4189 -0.7078 -0.3557
   23MOL   O129 5013   2.185   7.103   1.796  0.3967 -0.0147 -0.0424
   23MOL   H130 5014   2.294   7.310   1.906 -1.4768 -0.9885 -0.8740
   23MOL   H131 5015   2.385   7.323   2.141 -0.1899 -0.5285  1.6760
   23MOL   H132 5016   2.289   6.911   2.193 -0.0797 -1.1829 -1.7219
   23MOL   H133 5017   2.214   6.886   1.964  0.7408 -0.4458  0.7781
   23MOL   C134 5018   2.168   6.805   1.592 -0.3554  0.9548  1.3462
   23MOL   C135 5019   2.137   6.901   1.691  0.1067 -0.1388 -0.1726
   23MOL   C136 5020   2.222   7.010   1.706 -0.3553  0.1282  0.2860
   23MOL   C137 5021   2.339   7.022   1.630  0.0877 -0.3807 -0.7836
   23MOL   C138 5022   2.375   6.924   1.538 -0.1171 -0.5252  0.3778
   23MOL   C139 5023   2.283   6.820   1.511 -0.2393  0.7571 -0.2780
   23MOL   O140 5024   2.317   6.725   1.414  0.0190 -0.1704 -0.2150
   23MOL   H141 5025   2.107   6.717   1.576  0.4889  0.3327  1.5520
   23MOL   H142 5026   2.049   6.884   1.751 -1.1410 -2.6882 -2.6045
   23MOL   H143 5027   2.398   7.111   1.651  0.0688 -0.6983  0.6793
   23MOL   H144 5028   2.457   6.940   1.470 -1.4041  2.0527 -0.6415
   23MOL   C145 5029   2.620   6.520   1.496 -1.0630  0.2387 -0.0772
   23MOL   C146 5030   2.545   6.633   1.459  0.3793  0.5084 -0.4931
   23MOL   C147 5031   2.401   6.618   1.446  0.2130  0.1707  0.3624
   23MOL   C148 5032   2.340   6.503   1.494  0.3520 -0.0188  0.7834
   23MOL   C149 5033   2.418   6.393   1.524  0.0809  0.2653 -0.0015
   23MOL   C150 5034   2.556   6.397   1.515  0.0294 -0.2087  0.3539
   23MOL   O151 5035   2.629   6.289   1.530  0.3480 -0.3023 -0.3262
   23MOL   H152 5036   2.728   6.522   1.493 -0.9263 -1.6693  1.9058
   23MOL   H153 5037   2.599   6.724   1.436  0.7970  0.0005 -1.5339
   23MOL   H154 5038   2.233   6.507   1.506  0.3912 -0.8614  1.4426
   23MOL   H155 5039   2.372   6.300   1.556 -0.6319  0.2847 -0.9482
   23MOL   C156 5040   2.837   6.071   1.319  0.3894  0.2095  0.1678
   23MOL   C157 5041   2.770   6.118   1.435  0.3474 -0.0760 -0.6232
   23MOL   C158 5042   2.692   6.239   1.418 -0.2877 -0.1761 -0.6932
   23MOL   C159 5043   2.663   6.280   1.284 -0.1135  0.1967  0.5546
   23MOL   C160 5044   2.719   6.217   1.174  0.3474 -0.1367 -0.2186
   23MOL   C161 5045   2.811   6.116   1.195 -0.3919  0.0472  0.2555
   23MOL   O162 5046   2.865   6.052   1.087 -0.1736  0.5558  0.3779
   23MOL   H163 5047   2.900   5.983   1.325 -0.0304 -0.0784  0.3432
   23MOL   H164 5048   2.782   6.083   1.536  0.9467 -0.4916 -0.8387
   23MOL   H165 5049   2.590   6.355   1.257  1.4914  0.7285 -2.6117
   23MOL   H166 5050   2.703   6.262   1.076 -1.6790 -0.0051  0.1459
   23MOL   C167 5051   3.160   5.828   1.068 -0.6197  0.0939 -0.7796
   23MOL   C168 5052   3.029   5.870   1.066  0.0051 -0.2783  0.1228
   23MOL   C169 5053   3.001   6.009   1.083  0.3938 -1.3580  0.8303
   23MOL   C170 5054   3.102   6.108   1.090  0.2324 -0.2259  0.2817
   23MOL   C171 5055   3.233   6.064   1.088 -0.3458 -0.4161 -0.4619
   23MOL   C172 5056   3.264   5.927   1.076 -0.0982 -0.3325  0.0714
   23MOL   O173 5057   3.395   5.884   1.087  0.1752  0.1367 -0.6648
   23MOL   H174 5058   3.180   5.722   1.076 -2.4828 -0.1994  0.1745
   23MOL   H175 5059   2.948   5.799   1.056 -0.9263  0.5103  1.7803
   23MOL   H176 5060   3.075   6.212   1.099 -0.9181 -0.5681  0.9461
   23MOL   H177 5061   3.314   6.135   1.089  0.3879 -1.2474  0.7576
   23MOL   C178 5062   3.577   5.818   0.771 -0.3131 -0.2428  0.9739
   23MOL   C179 5063   3.510   5.894   0.871 -0.4271  0.5074  0.8321
   23MOL   C180 5064   3.452   5.824   0.979 -0.2756  0.0779 -1.1118
   23MOL   C181 5065   3.463   5.683   0.993 -0.1019  0.2835  0.3192
   23MOL   C182 5066   3.542   5.608   0.903 -0.6644  0.3577 -0.0469
   23MOL   C183 5067   3.586   5.675   0.786 -0.1454  0.7247  0.3389
   23MOL   O184 5068   3.662   5.607   0.697  0.5166  0.4147  0.1931
   23MOL   H185 5069   3.610   5.873   0.684 -1.3584 -0.2897  0.5463
   23MOL   H186 5070   3.508   6.001   0.854  0.1335  0.1562 -1.6898
   23MOL   H187 5071   3.426   5.635   1.083 -0.9344  1.0321  0.3817
   23MOL   H188 5072   3.576   5.509   0.931  2.5583  1.2600 -0.5191
   23MOL   C189 5073   3.905   5.364   0.822 -0.6534 -0.4046  0.8469
   23MOL   C190 5074   3.793   5.414   0.755  0.5459 -0.5629 -0.0276
   23MOL   C191 5075   3.776   5.556   0.744  0.0549  0.9078  0.2478
   23MOL   C192 5076   3.882   5.635   0.770  0.0201  1.0980 -0.3060
   23MOL   C193 5077   4.005   5.583   0.822  0.1685  0.4112  0.3459
   23MOL   C194 5078   4.017   5.446   0.854  0.1938  1.3053 -0.5480
   23MOL   O195 5079   4.124   5.383   0.914  0.0662  0.9327  0.2105
   23MOL   H196 5080   3.903   5.256   0.827  0.4741 -0.4015  1.6021
   23MOL   H197 5081   3.713   5.345   0.735 -0.8189  0.3217  2.2270
   23MOL   H198 5082   3.878   5.737   0.735  0.5305  1.6051  1.0568
   23MOL   H199 5083   4.085   5.651   0.847 -1.1042  1.9796  0.1739
   23MOL   C200 5084   4.422   5.598   0.992  0.6247 -0.3919  0.0158
   23MOL   C201 5085   4.296   5.533   1.003  0.2037 -0.2306  0.5205
   23MOL   C202 5086   4.240   5.456   0.898  0.7520  0.5742  0.3294
   23MOL   C203 5087   4.310   5.446   0.781  0.3691  0.0048  0.1377
   23MOL   C204 5088   4.437   5.502   0.774 -0.0062  0.5770 -0.0030
   23MOL   C205 5089   4.495   5.577   0.876  0.6370  0.7080 -0.1148
   23MOL   O206 5090   4.619   5.624   0.855 -0.1478  0.5292 -0.3925
   23MOL   H207 5091   4.471   5.657   1.068  1.4111 -2.1878  0.9122
   23MOL   H208 5092   4.243   5.538   1.097 -0.7515  1.7880 -0.0803
   23MOL   H209 5093   4.286   5.370   0.707  1.8604 -0.3071 -0.0422
   23MOL   H210 5094   4.499   5.492   0.686  0.4602  0.0188  0.3829
   23MOL   C211 5095   4.707   5.964   0.952 -0.0162 -0.5583  0.1509
   23MOL   C212 5096   4.678   5.828   0.965 -0.1997  0.0670 -0.3314
   23MOL   C213 5097   4.644   5.756   0.847 -0.1878  0.3525  0.6173
   23MOL   C214 5098   4.647   5.818   0.721  0.6319 -0.9294 -0.6528
   23MOL   C215 5099   4.672   5.956   0.712 -0.3742 -0.2081 -0.2515
   23MOL   C216 5100   4.706   6.028   0.829  0.2797  0.1041 -0.2281
   23MOL   O217 5101   4.737   6.160   0.816  0.9942  0.0871 -0.1614
   23MOL   H218 5102   4.733   6.016   1.043  0.6463  0.6615 -0.7254
   23MOL   H219 5103   4.674   5.772   1.057 -2.7852  1.6926  0.5847
   23MOL   H220 5104   4.610   5.773   0.630 -0.2408  1.0789 -1.3075
   23MOL   H221 5105   4.659   6.006   0.617 -2.4603  1.4662  0.8669
   23MOL   H222 5106   4.702   6.211   0.888  2.5508  2.2105 -0.8666
   24MOL     C1 5107   4.390   5.632   5.882  1.1798 -0.2786 -0.7089
   24MOL     C2 5108   4.463   5.530   5.946  0.4181  0.1497  0.4824
   24MOL     C3 5109   4.441   5.496   6.077  0.1497 -1.0807 -0.2254
   24MOL     C4 5110   4.343   5.575   6.147 -0.5866 -0.2935 -0.1444
   24MOL     C5 5111   4.272   5.680   6.092  0.0233 -0.1556 -0.4463
   24MOL     C6 5112   4.295   5.705   5.958 -0.1052  0.4452  0.5271
   24MOL     O7 5113   4.199   5.783   5.901 -0.0032 -0.2816 -0.0744
   24MOL     H8 5114   4.405   5.648   5.776  0.2821  0.4040 -0.7380
   24MOL     H9 5115   4.536   5.478   5.885 -0.5910  0.9224 -1.4232
   24MOL    H10 5116   4.311   5.555   6.248  0.3478  1.5527  0.5461
   24MOL    H11 5117   4.193   5.734   6.143  1.6507  0.7085  1.2156
   24MOL    H12 5118   4.485   5.406   6.116  0.1799  0.5307  3.7225
   24MOL    C13 5119   4.402   6.005   5.676  0.1727  1.4090  0.4411
   24MOL    C14 5120   4.369   5.927   5.785 -0.1116 -0.3365  0.6750
   24MOL    C15 5121   4.241   5.862   5.790 -0.0786  0.2112  0.2793
   24MOL    C16 5122   4.153   5.882   5.683  0.1347  0.0115 -0.4524
   24MOL    C17 5123   4.182   5.971   5.573 -0.1712 -1.0462 -0.0869
   24MOL    C18 5124   4.311   6.030   5.569  0.6703  0.1290 -0.7605
   24MOL    O19 5125   4.341   6.099   5.454 -0.5608 -0.3117 -0.2434
   24MOL    H20 5126   4.504   6.036   5.660  0.7539 -0.0459  1.2295
   24MOL    H21 5127   4.443   5.903   5.859 -2.3428 -0.0867  3.0712
   24MOL    H22 5128   4.062   5.824   5.688 -0.2214  0.7857  3.2280
   24MOL    H23 5129   4.104   5.984   5.501  0.4744 -1.5220 -0.8800
   24MOL    C24 5130   4.654   6.117   5.248  0.2735  0.3081  0.1484
   24MOL    C25 5131   4.562   6.144   5.355  1.3453 -0.0993 -0.3000
   24MOL    C26 5132   4.442   6.062   5.370  0.0050 -0.6587 -0.4698
   24MOL    C27 5133   4.428   5.943   5.289  0.4957  0.4126  0.2332
   24MOL    C28 5134   4.524   5.910   5.190  0.5392  0.3183 -0.8649
   24MOL    C29 5135   4.638   5.993   5.173 -0.2863  0.9301  0.1406
   24MOL    O30 5136   4.724   5.948   5.077  0.1216 -0.0303 -0.4968
   24MOL    H31 5137   4.730   6.191   5.226  1.3696 -0.4437  1.2959
   24MOL    H32 5138   4.574   6.235   5.412  1.3756  0.6987 -1.5585
   24MOL    H33 5139   4.331   5.898   5.299 -1.0395  2.8310 -2.7862
   24MOL    H34 5140   4.512   5.830   5.118 -2.3350 -2.3097  2.3190
   24MOL    C35 5141   5.016   6.153   4.984 -0.0440 -0.1326  0.1493
   24MOL    C36 5142   4.882   6.109   4.996  0.2215 -0.2476  0.3555
   24MOL    C37 5143   4.855   5.993   5.077 -0.6340 -0.1333 -0.3622
   24MOL    C38 5144   4.959   5.938   5.156  0.3937  0.5276 -0.2171
   24MOL    C39 5145   5.083   5.997   5.157  0.4577 -0.7615  0.1092
   24MOL    C40 5146   5.111   6.100   5.066 -1.0527  0.4009  0.2408
   24MOL    O41 5147   5.241   6.139   5.063  0.0949 -0.0548  0.0523
   24MOL    H42 5148   5.027   6.232   4.911 -1.2699  0.6063  0.7462
   24MOL    H43 5149   4.798   6.163   4.956 -1.2377 -1.6266  1.4876
   24MOL    H44 5150   4.933   5.856   5.222 -0.1101  2.1692  1.6588
   24MOL    H45 5151   5.168   5.960   5.214  0.8341 -0.3546 -0.1895
   24MOL    C46 5152   5.244   6.509   5.103  0.3900  0.4644  1.2493
   24MOL    C47 5153   5.227   6.373   5.129  0.7208 -0.6482  0.4082
   24MOL    C48 5154   5.266   6.273   5.041  0.1948  1.0465  0.6533
   24MOL    C49 5155   5.327   6.315   4.919  0.0553 -0.2925 -0.0866
   24MOL    C50 5156   5.356   6.450   4.894  1.0067  0.1209 -0.4380
   24MOL    C51 5157   5.313   6.549   4.988 -1.3919  1.2472  0.9300
   24MOL    O52 5158   5.337   6.672   4.950 -0.4730 -0.1970 -0.5708
   24MOL    H53 5159   5.203   6.581   5.172 -0.1802  0.8750  0.4929
   24MOL    H54 5160   5.165   6.356   5.217  0.2123 -0.0468  0.1692
   24MOL    H55 5161   5.358   6.235   4.853 -1.4905 -0.5692 -0.5010
   24MOL    H56 5162   5.408   6.473   4.802  0.6572 -0.4117 -0.7697
   24MOL    C57 5163   5.315   6.980   5.152  0.3002  0.0999 -0.1303
   24MOL    C58 5164   5.277   6.878   5.061  0.2794 -0.4245  0.0849
   24MOL    C59 5165   5.363   6.771   5.035 -0.4826 -0.3495  0.1807
   24MOL    C60 5166   5.493   6.768   5.092 -0.0832  0.3977 -0.7529
   24MOL    C61 5167   5.535   6.877   5.174 -0.6448  0.2167 -0.5366
   24MOL    C62 5168   5.447   6.980   5.207  0.8415 -0.1139  0.3195
   24MOL    O63 5169   5.493   7.074   5.291  0.0746 -0.0303 -0.3005
   24MOL    H64 5170   5.242   7.058   5.171 -1.2952 -1.5055  0.4360
   24MOL    H65 5171   5.182   6.884   5.011  0.6796  0.4031 -0.5891
   24MOL    H66 5172   5.555   6.682   5.071 -2.6255 -1.2858 -1.5640
   24MOL    H67 5173   5.635   6.875   5.215 -1.4591 -1.5607  1.4933
   24MOL    C68 5174   5.326   7.392   5.373 -0.5488 -0.3535 -1.0315
   24MOL    C69 5175   5.406   7.293   5.307 -0.3402 -1.1399  0.4459
   24MOL    C70 5176   5.413   7.161   5.356 -0.1216 -0.7377  0.2254
   24MOL    C71 5177   5.336   7.120   5.469 -0.0845  0.5761  0.0912
   24MOL    C72 5178   5.251   7.214   5.527  0.1271  0.0497  0.4383
   24MOL    C73 5179   5.239   7.348   5.479 -0.5557  0.3942 -0.7162
   24MOL    O74 5180   5.158   7.441   5.527  0.1521 -0.1576 -0.3832
   24MOL    H75 5181   5.313   7.490   5.331  4.1000  0.7233 -0.2453
   24MOL    H76 5182   5.466   7.319   5.221  1.7918 -0.7947  1.9853
   24MOL    H77 5183   5.341   7.018   5.502  3.0420  0.2956 -1.0130
   24MOL    H78 5184   5.180   7.178   5.601  0.0792  1.7069  1.2155
   24MOL    C79 5185   5.140   7.434   5.900  0.2998  0.7905 -1.1949
   24MOL    C80 5186   5.192   7.429   5.771  0.4137 -0.2588 -0.6600
   24MOL    C81 5187   5.110   7.437   5.657  0.6393 -0.2521  0.2612
   24MOL    C82 5188   4.967   7.438   5.677 -1.0191 -0.4487 -0.1715
   24MOL    C83 5189   4.913   7.445   5.805  0.0497 -0.1063 -0.8318
   24MOL    C84 5190   5.002   7.449   5.914 -0.3796 -0.3240 -0.1383
   24MOL    O85 5191   4.958   7.450   6.047  0.2765 -0.1784  0.0694
   24MOL    H86 5192   5.206   7.443   5.985  0.6081  2.6060 -1.6147
   24MOL    H87 5193   5.297   7.416   5.753  0.6870  0.3707  0.4605
   24MOL    H88 5194   4.909   7.437   5.586 -2.4086  1.2422  0.6706
   24MOL    H89 5195   4.806   7.442   5.822  0.2536 -0.0952  0.4744
   24MOL    C90 5196   4.927   7.096   6.172 -0.1849  0.3975  0.0739
   24MOL    C91 5197   4.983   7.214   6.122  0.7639  0.0768  0.1385
   24MOL    C92 5198   4.902   7.327   6.091  0.2381 -0.0836  0.1218
   24MOL    C93 5199   4.763   7.314   6.097 -0.2962 -0.7486 -0.5604
   24MOL    C94 5200   4.702   7.194   6.146  0.4327  0.0493 -1.0479
   24MOL    C95 5201   4.783   7.087   6.180  0.0671 -0.1956  0.0732
   24MOL    O96 5202   4.713   6.980   6.233  0.1324 -0.1072  0.1962
   24MOL    H97 5203   4.993   7.013   6.191  3.2044  2.8441 -0.6013
   24MOL    H98 5204   5.090   7.222   6.115  0.5628  2.6053 -0.6228
   24MOL    H99 5205   4.699   7.389   6.053 -1.8907 -1.7448  0.0475
   24MOL   H100 5206   4.595   7.188   6.154  0.4352  1.0568  0.0221
   24MOL   C101 5207   4.915   6.673   6.245  0.0322  0.2410 -0.6965
   24MOL   C102 5208   4.844   6.783   6.195 -1.1459  0.0644  0.0552
   24MOL   C103 5209   4.793   6.881   6.282  0.4885  0.0751  0.3657
   24MOL   C104 5210   4.818   6.869   6.419 -0.0504  1.2104 -0.1386
   24MOL   C105 5211   4.870   6.750   6.473  0.4657 -0.0010  0.3366
   24MOL   C106 5212   4.916   6.652   6.383  0.2918  0.2659  0.1316
   24MOL   O107 5213   4.982   6.542   6.434  0.0019  0.6753  0.3676
   24MOL   H108 5214   4.947   6.594   6.178  0.9041  1.6073 -1.9263
   24MOL   H109 5215   4.827   6.795   6.089  0.1397 -0.5287 -0.2346
   24MOL   H110 5216   4.778   6.943   6.487 -0.9323  2.7621 -2.3282
   24MOL   H111 5217   4.888   6.730   6.577 -1.8847  1.9833  1.1709
   24MOL   C112 5218   4.918   6.183   6.481  0.1126 -0.2525 -0.2164
   24MOL   C113 5219   4.985   6.307   6.482 -0.3906  0.5744 -0.3809
   24MOL   C114 5220   4.918   6.420   6.446 -0.0198 -0.1110 -0.0364
   24MOL   C115 5221   4.780   6.406   6.421  0.5129 -0.0156 -0.1339
   24MOL   C116 5222   4.711   6.278   6.418 -0.1729  0.1930  0.7800
   24MOL   C117 5223   4.785   6.167   6.445  0.4417 -0.8556 -0.0927
   24MOL   O118 5224   4.726   6.044   6.442 -0.3432  0.0454  0.4274
   24MOL   H119 5225   4.966   6.097   6.525 -0.3670  0.5640  1.9629
   24MOL   H120 5226   5.087   6.311   6.519 -0.5236 -0.2845  0.0923
   24MOL   H121 5227   4.708   6.485   6.405  0.0676 -0.4952 -0.5228
   24MOL   H122 5228   4.607   6.255   6.401  0.0052 -0.4378  0.5290
   24MOL   C123 5229   4.590   5.875   6.144 -0.3795 -0.1719  0.3628
   24MOL   C124 5230   4.602   5.954   6.259 -0.2349 -0.1287 -0.5674
   24MOL   C125 5231   4.721   5.973   6.327  0.4026  0.5233  0.8642
   24MOL   C126 5232   4.833   5.907   6.269 -0.1805 -0.9574 -0.3731
   24MOL   C127 5233   4.826   5.843   6.143  0.2383  0.1495  0.0327
   24MOL   C128 5234   4.704   5.824   6.087 -0.8455  0.4800  0.4002
   24MOL   O129 5235   4.702   5.744   5.976  0.4868 -0.1127 -0.0972
   24MOL   H130 5236   4.492   5.843   6.112  0.3197 -1.6798 -0.3078
   24MOL   H131 5237   4.507   5.973   6.306 -1.0567  0.1220 -2.3054
   24MOL   H132 5238   4.929   5.927   6.313  0.6060 -2.7449 -1.2507
   24MOL   H133 5239   4.910   5.817   6.080  0.5862 -0.2231  0.6462
   24MOL   C134 5240   4.792   5.973   5.700  0.3287  0.5724  0.2164
   24MOL   C135 5241   4.732   5.931   5.820  0.3282 -0.2508  0.4262
   24MOL   C136 5242   4.756   5.800   5.865  0.0700  0.6638  0.0532
   24MOL   C137 5243   4.844   5.721   5.790 -0.4123 -0.0502  0.0081
   24MOL   C138 5244   4.910   5.767   5.680  0.5362 -0.5923  0.2409
   24MOL   C139 5245   4.880   5.895   5.628 -0.0189  0.4916  0.4886
   24MOL   O140 5246   4.933   5.942   5.507 -0.8164  0.4997 -0.0367
   24MOL   H141 5247   4.788   6.079   5.679  0.0494  0.7849  1.2803
   24MOL   H142 5248   4.662   5.996   5.870  0.6871  0.8730 -0.5161
   24MOL   H143 5249   4.878   5.634   5.844  0.5177  0.9368  1.0414
   24MOL   H144 5250   4.978   5.691   5.643  1.6826  0.6362 -0.2159
   24MOL   C145 5251   5.244   6.104   5.608 -0.9105  0.3954 -0.6802
   24MOL   C146 5252   5.154   5.999   5.583  0.4735 -0.2098 -0.3624
   24MOL   C147 5253   5.034   6.033   5.521  0.3368 -0.4455  0.4721
   24MOL   C148 5254   5.016   6.163   5.459  0.6147 -0.2687 -0.2831
   24MOL   C149 5255   5.112   6.264   5.474  0.0267 -0.1954  0.2204
   24MOL   C150 5256   5.223   6.231   5.560  0.0537 -0.4898 -0.0564
   24MOL   O151 5257   5.310   6.332   5.579  0.4828 -0.0209  0.9403
   24MOL   H152 5258   5.336   6.091   5.664 -0.9468  0.3824 -0.6240
   24MOL   H153 5259   5.171   5.901   5.625 -0.1665  0.6527  1.9439
   24MOL   H154 5260   4.929   6.185   5.399 -0.1149 -0.4603  0.6953
   24MOL   H155 5261   5.105   6.362   5.428  2.3172  0.6122  1.5149
   24MOL   C156 5262   5.323   6.449   5.914  0.8900  0.4778 -0.1799
   24MOL   C157 5263   5.354   6.375   5.801  0.9136  0.6553 -0.8178
   24MOL   C158 5264   5.281   6.408   5.688 -0.4996  0.1384  0.2115
   24MOL   C159 5265   5.183   6.510   5.682  0.1164  0.4773 -0.1302
   24MOL   C160 5266   5.161   6.586   5.797 -1.1094  0.3629 -0.3366
   24MOL   C161 5267   5.227   6.557   5.912  0.1633  0.1690 -0.0911
   24MOL   O162 5268   5.200   6.620   6.034 -0.1669 -0.3416  0.1561
   24MOL   H163 5269   5.373   6.424   6.006 -0.2723 -1.3262 -0.0021
   24MOL   H164 5270   5.425   6.293   5.802 -0.4460 -0.5329 -0.7463
   24MOL   H165 5271   5.127   6.528   5.591 -0.7129 -1.3352  0.0084
   24MOL   H166 5272   5.079   6.657   5.799 -1.4547 -0.0625  1.1795
   24MOL   C167 5273   5.293   6.978   6.003  0.0826 -0.2218 -0.2565
   24MOL   C168 5274   5.235   6.857   5.960  0.0301  0.7287 -0.5014
   24MOL   C169 5275   5.239   6.749   6.056  0.2287  0.0361 -0.3718
   24MOL   C170 5276   5.258   6.785   6.190 -0.4078  0.1276 -0.3887
   24MOL   C171 5277   5.298   6.911   6.231  0.0341 -0.5325 -0.5144
   24MOL   C172 5278   5.329   7.005   6.133 -0.7469  0.8022 -0.0086
   24MOL   O173 5279   5.376   7.133   6.164  0.3025  0.5484  0.1092
   24MOL   H174 5280   5.309   7.049   5.923 -0.0984 -0.4874 -0.5281
   24MOL   H175 5281   5.194   6.849   5.861  0.9281 -0.6967 -0.7769
   24MOL   H176 5282   5.238   6.709   6.265 -0.2565 -2.0058 -2.4359
   24MOL   H177 5283   5.321   6.939   6.333  1.6350 -0.2104 -0.9533
   24MOL   C178 5284   5.713   7.101   6.301  0.2170 -0.0593 -0.9551
   24MOL   C179 5285   5.586   7.068   6.269  0.1869 -0.0440 -0.6861
   24MOL   C180 5286   5.510   7.151   6.183 -0.5259 -0.4418 -0.5042
   24MOL   C181 5287   5.559   7.272   6.137 -0.2325 -0.1399  0.1756
   24MOL   C182 5288   5.693   7.307   6.174 -0.7622 -0.1034  0.3558
   24MOL   C183 5289   5.768   7.225   6.259  0.5083  0.5391 -0.1958
   24MOL   O184 5290   5.887   7.263   6.311  0.8776  0.5537 -0.1444
   24MOL   H185 5291   5.779   7.043   6.365 -1.6994  1.1409  2.2367
   24MOL   H186 5292   5.547   6.972   6.298 -1.7239  0.4765 -1.4329
   24MOL   H187 5293   5.492   7.339   6.085 -0.8732  0.1562  1.3793
   24MOL   H188 5294   5.743   7.399   6.145 -1.3179  0.2212  0.4153
   24MOL   C189 5295   6.133   7.464   6.139  0.4477 -0.4816  0.4573
   24MOL   C190 5296   6.033   7.423   6.226  0.4156 -0.1465 -0.4065
   24MOL   C191 5297   5.978   7.295   6.219 -0.5738  0.7567 -0.1668
   24MOL   C192 5298   6.021   7.203   6.124 -0.2078 -0.3326 -0.0546
   24MOL   C193 5299   6.121   7.245   6.033 -0.4217 -0.3448  1.2203
   24MOL   C194 5300   6.184   7.369   6.041  0.2546 -0.0062  0.4809
   24MOL   O195 5301   6.292   7.399   5.958  0.3726 -0.2360  0.3756
   24MOL   H196 5302   6.175   7.563   6.143  0.0789 -0.3189  0.3312
   24MOL   H197 5303   6.005   7.493   6.303  0.7522 -0.0179 -0.4002
   24MOL   H198 5304   5.964   7.113   6.109 -0.8031  0.0024  0.1809
   24MOL   H199 5305   6.146   7.176   5.953  0.7672  0.4768  0.8729
   24MOL   C200 5306   6.300   7.600   5.636  0.5967  0.0033 -0.7275
   24MOL   C201 5307   6.332   7.560   5.770  0.1216 -0.4912 -0.4836
   24MOL   C202 5308   6.266   7.446   5.829  0.0244 -0.2409  0.3326
   24MOL   C203 5309   6.169   7.374   5.743 -0.4934 -0.3917 -0.7052
   24MOL   C204 5310   6.129   7.428   5.620 -0.5803 -0.1171  0.3648
   24MOL   C205 5311   6.196   7.538   5.563  0.7245  0.9581 -0.5358
   24MOL   O206 5312   6.155   7.577   5.435  0.6949  0.1219 -0.0741
   24MOL   H207 5313   6.363   7.673   5.587 -1.6536  2.0636 -0.6047
   24MOL   H208 5314   6.395   7.623   5.831 -0.6531  0.3831 -0.5723
   24MOL   H209 5315   6.126   7.282   5.780  0.3811 -0.2488  0.7254
   24MOL   H210 5316   6.056   7.375   5.560  2.0518 -1.4872 -1.7481
   24MOL   C211 5317   6.394   7.659   5.172  0.4445  0.1625  0.1011
   24MOL   C212 5318   6.290   7.671   5.265  0.2809 -0.3171 -0.2948
   24MOL   C213 5319   6.244   7.559   5.340 -1.0271  0.3623 -0.1213
   24MOL   C214 5320   6.313   7.439   5.325 -0.5406  0.2311 -0.0155
   24MOL   C215 5321   6.413   7.422   5.226 -0.0251  0.2317  1.0219
   24MOL   C216 5322   6.449   7.529   5.139  0.6717  0.2347  0.4706
   24MOL   O217 5323   6.534   7.517   5.037  0.0649  0.6071  0.5708
   24MOL   H218 5324   6.424   7.750   5.122  2.4536  0.8675  2.4798
   24MOL   H219 5325   6.236   7.762   5.286 -2.1535 -1.5971 -0.7942
   24MOL   H220 5326   6.300   7.359   5.396 -0.5815  0.6834  0.4908
   24MOL   H221 5327   6.473   7.332   5.222 -0.7146 -0.1693 -1.1359
   24MOL   H222 5328   6.572   7.597   5.003 -1.0674  1.4951  1.3627
   25MOL     C1 5329   0.268   5.928   0.316  0.1890 -0.3125  0.8777
   25MOL     C2 5330   0.317   5.907   0.188  0.1384  0.6241  0.1477
   25MOL     C3 5331   0.291   5.784   0.127 -0.0486 -0.2873 -0.0648
   25MOL     C4 5332   0.191   5.698   0.183  0.2112  0.5096 -0.4102
   25MOL     C5 5333   0.142   5.723   0.312  0.0226  0.1393 -0.0447
   25MOL     C6 5334   0.181   5.840   0.376  0.6451  0.7259 -0.1323
   25MOL     O7 5335   0.148   5.872   0.503 -0.2242  0.6460  0.5332
   25MOL     H8 5336   0.298   6.014   0.375 -0.3053 -1.6339  3.1029
   25MOL     H9 5337   0.387   5.978   0.146  2.0846 -0.5977  1.2622
   25MOL    H10 5338   0.164   5.604   0.137 -0.4033  0.5530 -0.1468
   25MOL    H11 5339   0.089   5.639   0.354  1.4224 -0.4789  0.5211
   25MOL    H12 5340   0.344   5.762   0.035 -0.1745 -0.0018 -0.2076
   25MOL    C13 5341   8.235   5.612   0.702 -1.0095 -0.1619  0.3928
   25MOL    C14 5342   8.254   5.720   0.612  0.3044  0.3778 -0.3337
   25MOL    C15 5343   0.127   5.778   0.596  0.0311  0.2495 -0.3977
   25MOL    C16 5344   0.227   5.754   0.690  0.0101 -0.5015 -0.8677
   25MOL    C17 5345   0.208   5.652   0.784  0.3508  0.6266  0.2604
   25MOL    C18 5346   0.089   5.578   0.786  0.6399  0.2933 -0.5248
   25MOL    O19 5347   0.073   5.471   0.877  0.1411 -0.0682 -0.2287
   25MOL    H20 5348   8.147   5.549   0.713 -1.0985 -0.5251 -2.0244
   25MOL    H21 5349   8.179   5.741   0.537  0.2332  1.1700 -0.0528
   25MOL    H22 5350   0.321   5.804   0.671 -1.1516  2.0582 -0.0705
   25MOL    H23 5351   0.290   5.624   0.849  1.8527 -0.0203 -1.8252
   25MOL    C24 5352   0.021   5.111   0.796 -0.4538  0.0728  0.1760
   25MOL    C25 5353   0.003   5.243   0.847  0.5357 -0.3873 -0.6714
   25MOL    C26 5354   0.099   5.346   0.832 -0.2091 -0.3815 -0.7680
   25MOL    C27 5355   0.227   5.312   0.780  0.2717  0.3427  0.1659
   25MOL    C28 5356   0.249   5.183   0.729 -0.3736  0.3023 -0.4432
   25MOL    C29 5357   0.149   5.081   0.741  0.1678  0.2960 -0.1413
   25MOL    O30 5358   0.192   4.956   0.701  0.2417 -0.1759  0.8368
   25MOL    H31 5359   8.197   5.037   0.791 -1.3412  0.9426  0.8511
   25MOL    H32 5360   8.161   5.269   0.889  1.1796  1.8578 -0.5325
   25MOL    H33 5361   0.303   5.389   0.771 -0.5057  1.3297  1.7812
   25MOL    H34 5362   0.344   5.161   0.682  0.3447 -3.7069  2.5467
   25MOL    C35 5363   0.270   4.858   0.353 -0.7202 -1.2708 -0.3761
   25MOL    C36 5364   0.276   4.898   0.487 -0.6265  0.1642  0.7263
   25MOL    C37 5365   0.170   4.921   0.571 -0.6470 -0.0753 -0.0911
   25MOL    C38 5366   0.039   4.904   0.515 -0.9456  0.0167 -0.4733
   25MOL    C39 5367   0.027   4.862   0.384 -0.7574  0.5422 -0.1106
   25MOL    C40 5368   0.142   4.839   0.302  0.0423  0.5750 -0.0574
   25MOL    O41 5369   0.114   4.810   0.166  0.3755  0.7835 -0.2380
   25MOL    H42 5370   0.354   4.835   0.289 -0.9715 -1.4538 -0.6460
   25MOL    H43 5371   0.377   4.890   0.524 -0.7250 -0.3905  0.8793
   25MOL    H44 5372   8.208   4.912   0.581  0.4181 -1.0082  1.4885
   25MOL    H45 5373   8.187   4.838   0.336  0.0824 -1.4546 -0.7927
   25MOL    C46 5374   0.383   4.910   8.183 -0.5771 -0.2136  0.2249
   25MOL    C47 5375   0.278   4.926   0.025  0.8422 -0.2064  0.1725
   25MOL    C48 5376   0.213   4.808   0.071 -0.4234 -0.5737  0.1660
   25MOL    C49 5377   0.263   4.687   0.028 -0.0847 -0.5412  0.4995
   25MOL    C50 5378   0.360   4.668   8.185 -0.7207  0.2352  0.5176
   25MOL    C51 5379   0.426   4.783   8.137 -0.3504 -0.4854  0.0030
   25MOL    O52 5380   0.529   4.786   8.052  0.3588 -0.1213 -0.8373
   25MOL    H53 5381   0.438   4.994   8.143  0.9898 -2.3146 -2.1669
   25MOL    H54 5382   0.236   5.018   0.062 -1.0972 -0.7645 -0.6199
   25MOL    H55 5383   0.215   4.602   0.075  0.4420 -0.8539  0.4723
   25MOL    H56 5384   0.381   4.570   8.146 -0.6936  1.1932 -1.9667
   25MOL    C57 5385   0.853   4.601   8.114 -0.5378 -0.2265 -0.0272
   25MOL    C58 5386   0.723   4.630   8.063  0.0285 -0.0506  0.1891
   25MOL    C59 5387   0.654   4.746   8.104 -0.5465  0.0363  0.4615
   25MOL    C60 5388   0.718   4.842   8.185 -0.3384  0.3811 -0.2413
   25MOL    C61 5389   0.844   4.809   8.245  0.2638 -0.0482 -0.3563
   25MOL    C62 5390   0.913   4.692   8.205  0.1691  0.0741  0.1314
   25MOL    O63 5391   1.029   4.657   0.017  0.4077 -0.2993  0.4613
   25MOL    H64 5392   0.900   4.506   8.096 -0.1952 -0.1273  0.3435
   25MOL    H65 5393   0.666   4.565   7.998 -1.0440 -0.8371  1.8747
   25MOL    H66 5394   0.680   4.942   8.197  2.2460  1.5886 -1.5659
   25MOL    H67 5395   0.891   4.874   0.064  1.3892 -1.4857  0.2280
   25MOL    C68 5396   1.250   4.932   0.124 -0.9402  0.0985 -0.4278
   25MOL    C69 5397   1.146   4.837   0.120 -0.5639  0.2174 -0.0736
   25MOL    C70 5398   1.130   4.749   0.013 -0.0169  0.0403  0.3654
   25MOL    C71 5399   1.209   4.762   8.154  0.1897 -0.5884 -0.2941
   25MOL    C72 5400   1.326   4.847   8.165  0.4731 -0.3152 -0.2691
   25MOL    C73 5401   1.345   4.933   0.023  0.3525 -0.2094  0.8381
   25MOL    O74 5402   1.456   5.010   0.023 -0.5917  0.1278 -0.2985
   25MOL    H75 5403   1.266   5.002   0.204  1.1486  0.5933 -1.2590
   25MOL    H76 5404   1.078   4.823   0.203  0.7806 -2.5935  0.6168
   25MOL    H77 5405   1.210   4.705   8.062  1.3287 -0.7578 -0.1869
   25MOL    H78 5406   1.392   4.851   8.079  0.2557 -0.0720 -0.4283
   25MOL    C79 5407   1.435   5.349   0.184  0.0789  0.1082 -0.0812
   25MOL    C80 5408   1.419   5.244   0.086  0.3226 -0.0820 -0.0963
   25MOL    C81 5409   1.472   5.114   0.112  0.1440  0.0458 -0.3160
   25MOL    C82 5410   1.541   5.096   0.237 -0.5151  0.5562 -0.1032
   25MOL    C83 5411   1.542   5.197   0.338  0.2243 -0.4037  0.1558
   25MOL    C84 5412   1.492   5.326   0.304  0.1945 -0.2073 -0.4418
   25MOL    O85 5413   1.516   5.434   0.388 -0.3918  0.8563 -0.1453
   25MOL    H86 5414   1.390   5.446   0.169 -0.0357  0.0667 -0.0060
   25MOL    H87 5415   1.373   5.269   8.245  3.2304  1.4599 -1.1732
   25MOL    H88 5416   1.593   5.002   0.249 -0.4081  0.3882 -1.7507
   25MOL    H89 5417   1.594   5.197   0.432 -2.6170  3.0148  1.8499
   25MOL    C90 5418   1.823   5.478   0.588 -0.4337  1.1870  0.2312
   25MOL    C91 5419   1.702   5.427   0.542  0.5110  0.6589  0.3854
   25MOL    C92 5420   1.647   5.462   0.421 -0.1383 -0.6919  0.7022
   25MOL    C93 5421   1.725   5.554   0.345 -0.4471 -0.0129  0.5466
   25MOL    C94 5422   1.856   5.595   0.373 -0.4544 -0.0127 -0.0485
   25MOL    C95 5423   1.904   5.555   0.498 -0.5447 -0.0239 -0.1964
   25MOL    O96 5424   2.031   5.594   0.527 -0.5372 -0.3871  0.5030
   25MOL    H97 5425   1.848   5.441   0.686 -1.1527  1.7064  0.6118
   25MOL    H98 5426   1.644   5.356   0.599 -0.5985  0.4977 -0.9064
   25MOL    H99 5427   1.681   5.584   0.250  0.4557  0.8110  0.3804
   25MOL   H100 5428   1.919   5.648   0.304  0.5194  0.5478  1.2375
   25MOL   C101 5429   2.009   5.965   0.576  0.6950  0.0994  0.1972
   25MOL   C102 5430   1.974   5.832   0.536 -0.3028 -0.7580  1.0907
   25MOL   C103 5431   2.054   5.722   0.569 -0.5885  0.1127  0.9149
   25MOL   C104 5432   2.178   5.747   0.640 -0.2915  0.1691  0.2615
   25MOL   C105 5433   2.207   5.878   0.681 -0.4329  0.4168 -0.5326
   25MOL   C106 5434   2.123   5.985   0.650 -0.4613 -0.5640 -0.3091
   25MOL   O107 5435   2.158   6.104   0.701 -0.4048 -0.6500 -0.3765
   25MOL   H108 5436   1.948   6.046   0.540  0.0773 -0.4560 -0.0290
   25MOL   H109 5437   1.881   5.816   0.483  0.2218 -0.9922  0.2375
   25MOL   H110 5438   2.244   5.666   0.666  0.6735  0.1308 -2.1690
   25MOL   H111 5439   2.299   5.899   0.734 -0.1977 -0.3178 -0.6431
   25MOL   C112 5440   1.949   6.364   0.849 -0.0206 -0.5090  0.5144
   25MOL   C113 5441   2.026   6.294   0.752  0.2803 -0.2096  0.1125
   25MOL   C114 5442   2.068   6.166   0.786  0.3987 -0.4391 -0.0577
   25MOL   C115 5443   2.021   6.101   0.905  0.5880  0.0915  0.7939
   25MOL   C116 5444   1.924   6.167   0.986  0.0250  0.3487  0.0259
   25MOL   C117 5445   1.890   6.298   0.960  0.5423  0.1077 -0.2841
   25MOL   O118 5446   1.814   6.362   1.049 -0.0332  0.1482  0.0817
   25MOL   H119 5447   1.917   6.466   0.839  0.1181 -0.5186 -0.0041
   25MOL   H120 5448   2.057   6.347   0.663 -1.9204  2.0064  0.6024
   25MOL   H121 5449   2.055   6.000   0.919  0.0752 -0.4954 -1.9237
   25MOL   H122 5450   1.873   6.115   1.066  2.3008  0.4928  1.6267
   25MOL   C123 5451   1.490   6.276   1.181  0.2305  0.0911 -0.4180
   25MOL   C124 5452   1.623   6.325   1.167 -0.5531 -0.2121 -0.0762
   25MOL   C125 5453   1.681   6.333   1.047 -0.2119 -0.1770 -0.3968
   25MOL   C126 5454   1.604   6.315   0.936  0.2161 -0.4797  0.6153
   25MOL   C127 5455   1.469   6.286   0.936  0.0401 -0.3374 -0.4136
   25MOL   C128 5456   1.412   6.254   1.065  0.7882  0.2521  0.4766
   25MOL   O129 5457   1.288   6.196   1.090 -0.2612  0.6682  0.0575
   25MOL   H130 5458   1.440   6.257   1.275 -0.4672  1.6945 -0.4395
   25MOL   H131 5459   1.684   6.340   1.255 -0.1588 -2.4516  0.0742
   25MOL   H132 5460   1.654   6.319   0.840  1.1648 -0.1714  1.1184
   25MOL   H133 5461   1.414   6.281   0.843  0.1286  1.4084 -0.5664
   25MOL   C134 5462   1.254   5.917   0.849 -0.7916 -0.8052 -0.7721
   25MOL   C135 5463   1.316   6.012   0.931 -0.7695  0.0618 -0.3397
   25MOL   C136 5464   1.237   6.096   1.016  1.1401 -0.7025 -0.8254
   25MOL   C137 5465   1.097   6.077   1.008  0.2107 -0.8003  0.0505
   25MOL   C138 5466   1.033   5.983   0.924  0.2745 -0.1626 -0.6640
   25MOL   C139 5467   1.115   5.898   0.846 -0.0138 -0.3436 -0.3012
   25MOL   O140 5468   1.062   5.812   0.752  0.2555 -0.0575  0.0790
   25MOL   H141 5469   1.320   5.867   0.778  0.9399 -0.7404  0.7420
   25MOL   H142 5470   1.424   6.023   0.928 -0.8094  0.8588  0.6495
   25MOL   H143 5471   1.036   6.130   1.080 -0.3633 -1.3388 -0.0445
   25MOL   H144 5472   0.926   5.972   0.929  0.1434  0.1965 -2.3063
   25MOL   C145 5473   1.167   5.463   0.835  0.2330 -0.3899 -0.2545
   25MOL   C146 5474   1.117   5.594   0.852  0.2346 -0.5689 -1.0194
   25MOL   C147 5475   1.126   5.687   0.745 -0.1304 -0.2559  0.5644
   25MOL   C148 5476   1.182   5.649   0.623  0.0286  0.3509  0.6690
   25MOL   C149 5477   1.238   5.523   0.613  0.1290 -0.1634 -0.0955
   25MOL   C150 5478   1.232   5.431   0.719  0.6113 -0.0198 -0.4066
   25MOL   O151 5479   1.272   5.296   0.706 -0.5647 -0.3228  0.4541
   25MOL   H152 5480   1.149   5.392   0.914  1.0329 -1.5927 -1.1236
   25MOL   H153 5481   1.072   5.624   0.945  0.9732 -0.3734 -0.7162
   25MOL   H154 5482   1.183   5.724   0.545  1.3500 -0.3886 -0.0418
   25MOL   H155 5483   1.264   5.491   0.513 -0.3275  0.9725 -0.5929
   25MOL   C156 5484   1.148   5.022   0.487  0.4966  0.2135  0.7354
   25MOL   C157 5485   1.237   5.104   0.557  0.6013 -0.0121 -0.4428
   25MOL   C158 5486   1.190   5.211   0.628 -0.2092 -0.6822  0.6682
   25MOL   C159 5487   1.055   5.240   0.627  0.1815 -0.2883 -0.1709
   25MOL   C160 5488   0.960   5.159   0.557  0.1253  0.3545  0.2397
   25MOL   C161 5489   1.007   5.052   0.482 -0.2216 -0.0547 -0.5253
   25MOL   O162 5490   0.928   4.965   0.406  0.1152  0.3323 -0.2189
   25MOL   H163 5491   1.180   4.938   0.427 -0.3699  1.1536 -1.0902
   25MOL   H164 5492   1.344   5.087   0.558  0.2161 -2.7949 -1.5177
   25MOL   H165 5493   1.010   5.322   0.682 -1.4749 -0.2206 -1.5905
   25MOL   H166 5494   0.856   5.182   0.544 -0.8758 -3.6056  0.4771
   25MOL   C167 5495   0.784   5.188   0.148 -0.6093  0.9337  0.3490
   25MOL   C168 5496   0.882   5.129   0.236 -0.1043 -0.5626  0.6296
   25MOL   C169 5497   0.838   5.022   0.319 -0.1800 -0.5027  0.3833
   25MOL   C170 5498   0.707   4.971   0.303 -0.1957  0.0434 -0.0076
   25MOL   C171 5499   0.615   5.032   0.212 -0.5554 -0.5755 -1.1427
   25MOL   C172 5500   0.656   5.140   0.132 -0.2466 -0.2730  0.0406
   25MOL   O173 5501   0.562   5.190   0.048  0.1655 -0.2679 -0.6904
   25MOL   H174 5502   0.822   5.278   0.102 -1.1919  0.3583 -1.2941
   25MOL   H175 5503   0.981   5.170   0.247 -0.3424  0.9005 -2.3080
   25MOL   H176 5504   0.669   4.888   0.361  2.6251 -1.8737 -0.7625
   25MOL   H177 5505   0.511   5.005   0.203 -0.5425 -0.7003 -0.9130
   25MOL   C178 5506   0.663   5.409   8.031 -0.1451  0.2911 -0.4424
   25MOL   C179 5507   0.630   5.292   8.103  0.8335 -1.0419  0.2550
   25MOL   C180 5508   0.581   5.297   8.229  0.1294 -0.8620 -0.1911
   25MOL   C181 5509   0.552   5.423   0.032 -0.9057  0.0992  0.7552
   25MOL   C182 5510   0.575   5.544   8.214 -0.2283 -0.2888 -0.0374
   25MOL   C183 5511   0.630   5.537   8.086 -0.3364  0.2097  0.2450
   25MOL   O184 5512   0.663   5.651   8.015 -0.2296  0.4377  0.0871
   25MOL   H185 5513   0.728   5.391   7.946  1.9124  1.4960  0.8508
   25MOL   H186 5514   0.663   5.197   8.064  0.6887 -0.7121 -0.6848
   25MOL   H187 5515   0.509   5.416   0.130  0.9032  0.7254  1.6207
   25MOL   H188 5516   0.558   5.639   0.007  0.5964  0.5064 -1.3264
   25MOL   C189 5517   0.785   5.623   7.666  0.5371  0.3860  0.7380
   25MOL   C190 5518   0.696   5.627   7.777  0.5141  0.7242 -0.0773
   25MOL   C191 5519   0.751   5.647   7.903  0.3358  0.1366 -0.0547
   25MOL   C192 5520   0.889   5.681   7.921 -0.4376 -0.3732 -0.0999
   25MOL   C193 5521   0.971   5.679   7.807 -0.1378 -1.2169 -0.0491
   25MOL   C194 5522   0.922   5.646   7.680 -0.4302 -0.8265 -0.2367
   25MOL   O195 5523   1.007   5.636   7.573 -0.5834 -0.9158 -0.0265
   25MOL   H196 5524   0.752   5.602   7.566 -0.1956  0.5027  0.9570
   25MOL   H197 5525   0.591   5.643   7.759  0.5229  1.6656  0.6511
   25MOL   H198 5526   0.916   5.721   8.017  0.6423 -0.7301 -0.2573
   25MOL   H199 5527   1.073   5.714   7.815 -0.9756  1.0672  1.0587
   25MOL   C200 5528   0.998   5.986   7.441 -0.3406 -0.2980 -0.7247
   25MOL   C201 5529   0.963   5.862   7.500  0.1187 -0.1663 -0.3275
   25MOL   C202 5530   1.053   5.754   7.519  0.4773  1.1161  0.1728
   25MOL   C203 5531   1.183   5.772   7.472 -0.8446  0.0217 -0.4111
   25MOL   C204 5532   1.226   5.892   7.415 -0.0724 -0.5738 -0.5221
   25MOL   C205 5533   1.134   6.005   7.397 -0.2805  0.4059  0.8829
   25MOL   O206 5534   1.177   6.118   7.327  0.4152  0.4487  0.0209
   25MOL   H207 5535   0.924   6.064   7.437  0.3686  0.5766  2.2615
   25MOL   H208 5536   0.861   5.855   7.536 -0.0784  2.6799 -0.1813
   25MOL   H209 5537   1.243   5.682   7.475  1.6708  1.6561 -0.1060
   25MOL   H210 5538   1.327   5.901   7.378 -0.4560 -0.4208 -1.5592
   25MOL   C211 5539   1.116   6.461   7.440  0.2715  0.7906 -0.4057
   25MOL   C212 5540   1.105   6.347   7.366 -0.4585  0.3191  0.1028
   25MOL   C213 5541   1.184   6.235   7.399 -0.1941 -0.0597  0.1950
   25MOL   C214 5542   1.290   6.247   7.488 -0.4569 -0.7610 -0.0751
   25MOL   C215 5543   1.309   6.371   7.554 -0.0886  0.3660 -0.6140
   25MOL   C216 5544   1.221   6.479   7.529  0.5354 -0.1248 -1.0097
   25MOL   O217 5545   1.239   6.596   7.598  0.1120 -0.6507  0.3968
   25MOL   H218 5546   1.047   6.544   7.430 -0.8864  0.0773  1.3862
   25MOL   H219 5547   1.024   6.333   7.296 -0.5144 -0.9955  0.4274
   25MOL   H220 5548   1.362   6.168   7.503  0.5602  0.3381  1.0667
   25MOL   H221 5549   1.400   6.389   7.610  0.2242  0.7211 -1.2364
   25MOL   H222 5550   1.180   6.663   7.566  0.2458 -0.3620  0.7606
   26MOL     C1 5551   5.250   4.163   2.434  0.9117 -0.1806  0.6585
   26MOL     C2 5552   5.190   4.067   2.518  0.1886  0.0617 -0.6822
   26MOL     C3 5553   5.158   4.099   2.653  0.3356  0.0565 -0.1292
   26MOL     C4 5554   5.182   4.231   2.694  0.1942  0.1626 -0.5184
   26MOL     C5 5555   5.251   4.325   2.613  0.0460  0.4205 -0.5466
   26MOL     C6 5556   5.287   4.289   2.483  0.4864  0.6317  0.3739
   26MOL     O7 5557   5.367   4.367   2.409 -0.3469 -0.2138 -0.2626
   26MOL     H8 5558   5.269   4.147   2.329  1.0649 -0.1930  0.6873
   26MOL     H9 5559   5.184   3.966   2.479  1.8209  0.0357 -0.9039
   26MOL    H10 5560   5.161   4.256   2.798 -0.6380 -0.9826 -0.4074
   26MOL    H11 5561   5.279   4.424   2.646 -1.4381  0.2774  1.2103
   26MOL    H12 5562   5.117   4.032   2.727 -0.7641  1.3157  0.4010
   26MOL    C13 5563   5.715   4.283   2.478 -0.0126  0.0399  0.2325
   26MOL    C14 5564   5.583   4.265   2.448  0.5639 -0.2273  0.0982
   26MOL    C15 5565   5.494   4.374   2.451 -0.2146  0.3443  0.6335
   26MOL    C16 5566   5.542   4.504   2.481 -1.0425 -0.2179  0.4386
   26MOL    C17 5567   5.677   4.524   2.518 -0.2863 -0.2399 -0.6756
   26MOL    C18 5568   5.767   4.410   2.519  1.3006 -0.3467  0.0589
   26MOL    O19 5569   5.896   4.412   2.552  0.0504  0.2188 -0.1729
   26MOL    H20 5570   5.783   4.201   2.462  0.1996  0.5439 -1.5501
   26MOL    H21 5571   5.549   4.164   2.429 -1.1687  0.7127 -1.9820
   26MOL    H22 5572   5.469   4.584   2.483 -0.1602  0.5862  0.9637
   26MOL    H23 5573   5.710   4.620   2.557 -1.7705  0.9221 -2.2275
   26MOL    C24 5574   6.226   4.416   2.383 -0.8202 -0.0594 -0.5697
   26MOL    C25 5575   6.124   4.421   2.477  0.1333 -0.2560  0.4859
   26MOL    C26 5576   5.986   4.418   2.444  0.5474  0.2278 -0.1647
   26MOL    C27 5577   5.952   4.411   2.309 -0.1184  1.1176 -0.5323
   26MOL    C28 5578   6.057   4.419   2.213 -0.1312  0.5746  1.0198
   26MOL    C29 5579   6.197   4.413   2.246  0.2181  0.0996  0.2824
   26MOL    O30 5580   6.294   4.415   2.156 -0.6450 -0.2746 -0.0264
   26MOL    H31 5581   6.328   4.409   2.417 -1.1189 -1.3520  0.1144
   26MOL    H32 5582   6.158   4.413   2.580  2.0271 -2.7040 -0.2848
   26MOL    H33 5583   5.851   4.413   2.273 -0.4678 -3.5120 -0.0897
   26MOL    H34 5584   6.035   4.415   2.108  1.2308  1.6998  0.6616
   26MOL    C35 5585   6.201   4.396   1.800 -0.5265 -0.0332 -0.6091
   26MOL    C36 5586   6.237   4.448   1.926 -0.1016 -0.1902 -0.3912
   26MOL    C37 5587   6.279   4.364   2.030 -0.6064  0.4304  0.2471
   26MOL    C38 5588   6.290   4.224   1.999  0.1943 -0.2780  0.1525
   26MOL    C39 5589   6.269   4.172   1.872 -0.0035  0.0615 -0.0812
   26MOL    C40 5590   6.218   4.259   1.772 -0.1716 -0.4403  0.9306
   26MOL    O41 5591   6.193   4.218   1.646 -0.0446 -0.2470  0.0179
   26MOL    H42 5592   6.159   4.463   1.726 -1.0406  2.2090  1.6337
   26MOL    H43 5593   6.220   4.553   1.947  1.1442  0.0829 -0.7537
   26MOL    H44 5594   6.326   4.152   2.071 -0.8915 -0.8975  0.0890
   26MOL    H45 5595   6.291   4.069   1.844  1.2309  0.2058  0.3151
   26MOL    C46 5596   5.888   4.025   1.571  0.8192 -0.1057 -0.3692
   26MOL    C47 5597   6.014   4.063   1.617 -0.0521  0.0912  0.8169
   26MOL    C48 5598   6.067   4.192   1.602 -0.7955  0.5626  0.2964
   26MOL    C49 5599   5.995   4.284   1.525  0.1292  0.2083  0.1540
   26MOL    C50 5600   5.868   4.246   1.477  0.6231  0.2937 -0.6343
   26MOL    C51 5601   5.808   4.120   1.505 -0.5243  0.0813  0.1790
   26MOL    O52 5602   5.685   4.089   1.457 -0.3119 -0.2767 -0.0971
   26MOL    H53 5603   5.851   3.925   1.585  1.2977 -0.3289 -0.6901
   26MOL    H54 5604   6.080   3.990   1.662  0.2884 -0.1473 -0.0656
   26MOL    H55 5605   6.034   4.383   1.507  0.9220 -0.2568 -0.7740
   26MOL    H56 5606   5.811   4.323   1.426 -1.7968 -0.1760  1.2891
   26MOL    C57 5607   5.411   4.293   1.595  0.0198  0.0907  0.5531
   26MOL    C58 5608   5.530   4.217   1.583 -0.3587  0.6137 -0.2996
   26MOL    C59 5609   5.580   4.179   1.460  0.7807 -0.1049  0.1318
   26MOL    C60 5610   5.509   4.214   1.342  0.8861 -0.3627  0.1892
   26MOL    C61 5611   5.401   4.305   1.349 -0.4392  0.1510 -0.5953
   26MOL    C62 5612   5.344   4.337   1.476 -0.0628  1.1670  0.8125
   26MOL    O63 5613   5.217   4.389   1.479 -0.6077 -0.0865  0.0585
   26MOL    H64 5614   5.360   4.317   1.687  0.2340  0.2525  0.6326
   26MOL    H65 5615   5.566   4.169   1.673 -1.3955 -0.4587 -0.4395
   26MOL    H66 5616   5.523   4.184   1.239 -3.2522 -2.8745  0.2537
   26MOL    H67 5617   5.337   4.347   1.273 -1.3878 -2.4566 -1.2884
   26MOL    C68 5618   5.056   4.704   1.586 -0.4294 -0.4079  0.1849
   26MOL    C69 5619   5.082   4.566   1.567 -0.3459 -0.2499 -0.4617
   26MOL    C70 5620   5.199   4.520   1.506  0.5734  0.3167 -0.4052
   26MOL    C71 5621   5.287   4.622   1.467  0.5352 -0.1934  0.2817
   26MOL    C72 5622   5.265   4.764   1.486 -0.2052  0.5863 -0.2644
   26MOL    C73 5623   5.148   4.801   1.554 -0.9222  0.2906  0.1580
   26MOL    O74 5624   5.134   4.934   1.591 -0.0226 -0.0498 -0.0350
   26MOL    H75 5625   4.958   4.728   1.625  0.2229 -0.5738  2.0134
   26MOL    H76 5626   4.996   4.507   1.593 -1.3050  0.3047 -2.2806
   26MOL    H77 5627   5.373   4.592   1.409  0.4770  1.7687 -0.8763
   26MOL    H78 5628   5.330   4.845   1.456  0.0108 -0.3827 -2.5279
   26MOL    C79 5629   4.993   5.146   1.320 -0.3348 -0.7333  0.4561
   26MOL    C80 5630   5.007   5.038   1.406  0.5709 -1.2015 -0.2116
   26MOL    C81 5631   5.121   5.026   1.490  0.2403 -0.2270  0.3138
   26MOL    C82 5632   5.231   5.114   1.468  0.1375  0.0747  0.0248
   26MOL    C83 5633   5.216   5.227   1.381 -0.8747  0.3089  0.5211
   26MOL    C84 5634   5.097   5.243   1.300 -0.4921  1.3194  0.4599
   26MOL    O85 5635   5.082   5.333   1.208  0.4015  0.6397 -0.0890
   26MOL    H86 5636   4.903   5.159   1.260 -0.8380 -0.2385  1.3089
   26MOL    H87 5637   4.926   4.969   1.419  3.6363 -4.5725  2.2376
   26MOL    H88 5638   5.315   5.101   1.533 -1.3690 -0.9057  1.8168
   26MOL    H89 5639   5.294   5.301   1.376 -0.4693 -0.1321  0.2156
   26MOL    C90 5640   5.381   5.429   1.011 -0.4536 -0.2447 -0.6102
   26MOL    C91 5641   5.274   5.353   1.061 -0.1420  0.8612  0.8585
   26MOL    C92 5642   5.185   5.404   1.159 -0.1929 -0.7554 -0.0136
   26MOL    C93 5643   5.199   5.541   1.199 -0.2312  0.3314  0.5034
   26MOL    C94 5644   5.310   5.618   1.149  0.4043 -0.1406 -0.1186
   26MOL    C95 5645   5.396   5.566   1.052  0.9328  0.3595 -0.6141
   26MOL    O96 5646   5.504   5.634   0.997  0.3619  0.9610 -0.0239
   26MOL    H97 5647   5.450   5.393   0.936  0.7213 -2.8583  1.6664
   26MOL    H98 5648   5.262   5.255   1.016  3.6538  0.6018  0.2814
   26MOL    H99 5649   5.146   5.583   1.283  1.8509  0.5526  1.7591
   26MOL   H100 5650   5.313   5.718   1.190  1.9993 -0.3660  0.3463
   26MOL   C101 5651   5.478   5.995   1.039 -0.9171  0.6081 -0.9674
   26MOL   C102 5652   5.450   5.865   0.988 -0.2039 -0.7345  0.0940
   26MOL   C103 5653   5.535   5.762   1.028  0.0946  0.2220  0.0009
   26MOL   C104 5654   5.651   5.784   1.099  0.0695 -0.8664 -0.0157
   26MOL   C105 5655   5.672   5.906   1.162 -0.0603 -0.3573  0.0325
   26MOL   C106 5656   5.584   6.013   1.136  0.6920 -0.5782  0.3101
   26MOL   O107 5657   5.606   6.137   1.185  0.7091  0.2491 -0.3179
   26MOL   H108 5658   5.417   6.076   1.000 -0.4253  0.5693 -1.8171
   26MOL   H109 5659   5.357   5.848   0.934 -1.0412 -1.0411  1.6068
   26MOL   H110 5660   5.719   5.702   1.118  0.1226 -0.9231 -0.4365
   26MOL   H111 5661   5.761   5.913   1.222  0.2900  0.1038 -0.5340
   26MOL   C112 5662   5.504   6.369   1.450 -0.6154  0.1561  0.3233
   26MOL   C113 5663   5.570   6.313   1.339 -0.4205 -0.3381  0.2317
   26MOL   C114 5664   5.529   6.189   1.291  0.1308 -0.5111 -0.7034
   26MOL   C115 5665   5.425   6.116   1.354 -0.1135 -0.3001 -0.2489
   26MOL   C116 5666   5.360   6.181   1.463 -0.4201  0.9626  0.5922
   26MOL   C117 5667   5.409   6.300   1.522 -0.1260  0.2187  0.1677
   26MOL   O118 5668   5.345   6.351   1.630  0.0678  0.2250  0.6282
   26MOL   H119 5669   5.537   6.468   1.475 -0.7507  0.4548 -0.6835
   26MOL   H120 5670   5.648   6.372   1.293  0.6634 -2.9789 -1.4514
   26MOL   H121 5671   5.381   6.022   1.327  0.9078 -0.8544 -0.0027
   26MOL   H122 5672   5.284   6.122   1.513 -2.5768  1.3885 -2.0630
   26MOL   C123 5673   5.444   6.161   1.921  0.4825  1.0355  0.3949
   26MOL   C124 5674   5.392   6.190   1.799  0.7049 -0.1847 -0.0699
   26MOL   C125 5675   5.400   6.322   1.749  0.2550 -0.8665  0.0055
   26MOL   C126 5676   5.455   6.433   1.825  0.2585 -0.4562  0.0038
   26MOL   C127 5677   5.504   6.402   1.955  0.2376  0.1178  0.2656
   26MOL   C128 5678   5.499   6.267   2.004  0.1879  0.4428 -0.1804
   26MOL   O129 5679   5.558   6.229   2.123  0.0360 -0.1164 -0.4048
   26MOL   H130 5680   5.452   6.058   1.951 -3.0325  0.7964  0.7031
   26MOL   H131 5681   5.367   6.101   1.743  0.8492 -0.7051  0.6914
   26MOL   H132 5682   5.454   6.534   1.788 -1.3904 -0.1265  0.9490
   26MOL   H133 5683   5.545   6.486   2.009  1.8556  0.5353 -1.5332
   26MOL   C134 5684   5.524   6.293   2.486  0.1269  1.0954  0.0489
   26MOL   C135 5685   5.582   6.256   2.360  0.4562 -0.5400  0.3811
   26MOL   C136 5686   5.509   6.280   2.240 -0.1486  0.3809 -0.2348
   26MOL   C137 5687   5.382   6.348   2.251 -0.0535  0.2451  1.2156
   26MOL   C138 5688   5.340   6.395   2.376 -0.6542  0.0541  0.4247
   26MOL   C139 5689   5.402   6.360   2.496 -0.0867 -0.0668  0.0504
   26MOL   O140 5690   5.363   6.387   2.622 -0.1633 -0.3169  0.0920
   26MOL   H141 5691   5.575   6.263   2.577  1.4397  0.0150 -1.0164
   26MOL   H142 5692   5.677   6.204   2.352 -0.6467 -2.3770 -1.1382
   26MOL   H143 5693   5.323   6.376   2.165  0.7401 -0.4962  0.4110
   26MOL   H144 5694   5.254   6.459   2.385  0.8132  1.9833  1.0579
   26MOL   C145 5695   5.097   6.627   2.695 -0.3654 -1.0177  0.0884
   26MOL   C146 5696   5.160   6.510   2.648  0.2508 -0.3009 -0.0822
   26MOL   C147 5697   5.302   6.510   2.650  0.0917  0.4236  0.2108
   26MOL   C148 5698   5.374   6.624   2.685 -0.2937  0.4955 -0.3325
   26MOL   C149 5699   5.306   6.737   2.723  0.1246 -0.5114  0.0036
   26MOL   C150 5700   5.168   6.741   2.728 -0.0893 -0.3422  0.1124
   26MOL   O151 5701   5.093   6.855   2.751  0.5104  0.1273 -0.9468
   26MOL   H152 5702   4.989   6.634   2.692 -0.3113 -0.0673  0.1344
   26MOL   H153 5703   5.100   6.422   2.632 -2.2327  1.0726  1.3776
   26MOL   H154 5704   5.482   6.635   2.686 -0.1799 -0.0685 -3.1359
   26MOL   H155 5705   5.360   6.822   2.761 -1.0833 -0.3859  1.5410
   26MOL   C156 5706   5.257   7.187   2.727 -0.4509  0.4074 -0.4224
   26MOL   C157 5707   5.216   7.055   2.693 -0.1748 -0.7549 -0.6979
   26MOL   C158 5708   5.145   6.978   2.788 -0.3283 -0.1239  0.3512
   26MOL   C159 5709   5.109   7.030   2.918  0.0577  0.1059  0.5682
   26MOL   C160 5710   5.146   7.165   2.944  0.2986 -0.1438 -0.4665
   26MOL   C161 5711   5.224   7.246   2.853 -0.5175  0.8100 -0.4075
   26MOL   O162 5712   5.258   7.376   2.891 -0.8603 -0.0178 -0.0202
   26MOL   H163 5713   5.319   7.240   2.657 -0.0789  1.9085  1.0070
   26MOL   H164 5714   5.229   7.025   2.590 -1.7359 -0.8719 -0.8841
   26MOL   H165 5715   5.057   6.973   2.992 -1.0269 -1.5954 -1.4484
   26MOL   H166 5716   5.132   7.207   3.043 -0.0074 -1.3338  0.0035
   26MOL   C167 5717   5.561   7.521   2.762  0.3747 -0.1525 -0.4897
   26MOL   C168 5718   5.474   7.438   2.836 -0.2264 -0.2182 -0.2118
   26MOL   C169 5719   5.340   7.451   2.812 -0.2050  0.3542  0.6312
   26MOL   C170 5720   5.293   7.543   2.710  0.3086 -0.1911  0.1543
   26MOL   C171 5721   5.387   7.609   2.624 -0.3840  0.3508 -0.3113
   26MOL   C172 5722   5.527   7.602   2.658  0.2818 -0.3044  0.2897
   26MOL   O173 5723   5.629   7.669   2.597  0.2381 -0.6287 -0.1362
   26MOL   H174 5724   5.663   7.514   2.796 -0.1323 -0.1295  1.0768
   26MOL   H175 5725   5.504   7.368   2.913 -0.7414 -1.4016 -1.0836
   26MOL   H176 5726   5.187   7.547   2.693  0.1936  0.0024  0.9146
   26MOL   H177 5727   5.352   7.665   2.538 -0.0855 -0.7739 -1.1748
   26MOL   C178 5728   5.540   7.881   2.308  0.1656 -0.4315 -0.6871
   26MOL   C179 5729   5.585   7.842   2.438 -0.5675 -0.7304  0.3572
   26MOL   C180 5730   5.603   7.707   2.467 -0.1840  0.5734 -0.3043
   26MOL   C181 5731   5.582   7.607   2.372  0.2346 -0.1862  0.2493
   26MOL   C182 5732   5.539   7.639   2.245  0.2521  0.7405  0.9697
   26MOL   C183 5733   5.513   7.782   2.217  0.4170  0.5331  0.1123
   26MOL   O184 5734   5.480   7.812   2.090 -0.7284  0.3062  0.1891
   26MOL   H185 5735   5.522   7.985   2.285 -2.6183 -0.8889 -0.7656
   26MOL   H186 5736   5.606   7.912   2.517  1.8583  0.3310 -1.1634
   26MOL   H187 5737   5.597   7.502   2.393 -0.5934 -0.1160  1.2340
   26MOL   H188 5738   5.526   7.568   2.165  2.6932  1.1218  0.1881
   26MOL   C189 5739   5.764   7.957   1.897 -0.2957 -0.0078  0.0995
   26MOL   C190 5740   5.654   7.946   1.982  0.5327 -0.2359 -0.3213
   26MOL   C191 5741   5.579   7.828   2.000 -0.7574  0.0905 -0.1858
   26MOL   C192 5742   5.601   7.723   1.903 -0.0989 -0.0444 -0.0801
   26MOL   C193 5743   5.708   7.733   1.807  0.5252 -0.1501  0.3785
   26MOL   C194 5744   5.800   7.846   1.814  1.0861  0.0110 -0.3251
   26MOL   O195 5745   5.909   7.845   1.727  0.2538  0.4173  0.1708
   26MOL   H196 5746   5.813   8.053   1.883 -0.5203  0.2869  1.2748
   26MOL   H197 5747   5.634   8.036   2.038  2.0824  1.5111 -2.5292
   26MOL   H198 5748   5.537   7.638   1.887  0.1319 -0.2385  0.0149
   26MOL   H199 5749   5.715   7.660   1.728 -0.9429 -1.1246  1.1304
   26MOL   C200 5750   6.240   7.802   1.898 -0.6161  0.4067 -0.3372
   26MOL   C201 5751   6.117   7.771   1.840 -0.3883 -0.7278  0.4996
   26MOL   C202 5752   6.035   7.868   1.778 -0.1057 -0.7225 -0.4524
   26MOL   C203 5753   6.089   7.998   1.764 -0.2124 -0.0303  0.3118
   26MOL   C204 5754   6.218   8.030   1.818  0.1633 -0.4959 -0.1975
   26MOL   C205 5755   6.295   7.934   1.887 -0.1393 -0.4456 -0.1012
   26MOL   O206 5756   6.419   7.967   1.940  0.0812  0.2739  0.5007
   26MOL   H207 5757   6.303   7.733   1.953  2.5637  3.2111 -0.3195
   26MOL   H208 5758   6.067   7.676   1.852 -2.4088  0.1865 -0.4560
   26MOL   H209 5759   6.032   8.078   1.720 -1.3169  0.2020  2.1107
   26MOL   H210 5760   6.255   8.130   1.801 -0.3316 -0.1901  0.4943
   26MOL   C211 5761   6.410   8.231   2.198 -0.1851  0.5220  0.4393
   26MOL   C212 5762   6.415   8.174   2.070 -0.4572  0.0538 -0.0771
   26MOL   C213 5763   6.420   8.034   2.059 -0.5236 -0.4476  0.1556
   26MOL   C214 5764   6.400   7.950   2.174  0.1134 -0.2022  0.0191
   26MOL   C215 5765   6.388   8.007   2.300  0.1596  0.4561 -0.3307
   26MOL   C216 5766   6.390   8.150   2.312 -0.3991  0.5381 -0.4904
   26MOL   O217 5767   6.360   8.222   2.424 -0.5839 -0.4019  0.2107
   26MOL   H218 5768   6.402   0.084   2.203 -1.3380  0.6522 -2.9634
   26MOL   H219 5769   6.397   8.241   1.987  0.7942  1.2077  0.5547
   26MOL   H220 5770   6.385   7.845   2.155  0.0842 -0.2706  0.4213
   26MOL   H221 5771   6.377   7.937   2.382  2.6219 -0.5413 -0.8027
   26MOL   H222 5772   6.354   0.062   2.411  1.2594 -0.6015 -2.4282
   27MOL     C1 5773   4.496   6.974   4.506 -0.1103 -0.5282  0.4128
   27MOL     C2 5774   4.474   7.084   4.416 -0.0580  0.1901 -0.4045
   27MOL     C3 5775   4.372   7.174   4.437 -0.3959  0.2824  0.4384
   27MOL     C4 5776   4.303   7.171   4.553  0.7912  0.3171 -1.3290
   27MOL     C5 5777   4.327   7.067   4.645  0.0374  0.0370 -0.0579
   27MOL     C6 5778   4.422   6.969   4.622 -0.2152  0.0496  0.2571
   27MOL     O7 5779   4.456   6.867   4.707  0.2917 -0.0617  0.0267
   27MOL     H8 5780   4.560   6.889   4.487 -0.0389 -0.7305  1.5121
   27MOL     H9 5781   4.526   7.102   4.322  0.2357  3.1552  0.2999
   27MOL    H10 5782   4.227   7.247   4.565 -2.1414 -2.3089 -2.6298
   27MOL    H11 5783   4.266   7.070   4.734 -0.4464  1.1531 -0.4173
   27MOL    H12 5784   4.341   7.257   4.374 -0.0311  0.6118  0.6857
   27MOL    C13 5785   4.471   7.011   5.048  0.5543  0.5406  0.4666
   27MOL    C14 5786   4.485   6.995   4.910 -0.2187  0.8493  0.4140
   27MOL    C15 5787   4.452   6.879   4.839 -0.0550  0.6983  0.6239
   27MOL    C16 5788   4.407   6.772   4.914  0.2647 -0.1475  1.2586
   27MOL    C17 5789   4.383   6.785   5.055  0.0788 -0.7753  0.3404
   27MOL    C18 5790   4.408   6.903   5.121  0.2676 -0.1267 -0.0391
   27MOL    O19 5791   4.354   6.922   5.247 -0.7569  0.0815  0.2522
   27MOL    H20 5792   4.492   7.099   5.108 -1.0316  1.0879  0.2299
   27MOL    H21 5793   4.527   7.080   4.857  0.2600 -0.0164 -0.6170
   27MOL    H22 5794   4.377   6.681   4.864 -0.0846 -0.4641  2.0385
   27MOL    H23 5795   4.352   6.704   5.120 -1.5507  1.0188  1.8856
   27MOL    C24 5796   4.583   6.864   5.535  0.3395  0.2065 -0.0923
   27MOL    C25 5797   4.523   6.925   5.420 -0.2130 -0.2980  0.0211
   27MOL    C26 5798   4.419   6.859   5.348  0.1043 -0.2170  0.4343
   27MOL    C27 5799   4.374   6.731   5.394  0.2210 -0.1740 -0.0025
   27MOL    C28 5800   4.437   6.670   5.501  0.0578 -0.2809 -0.2874
   27MOL    C29 5801   4.529   6.742   5.578  0.2847  0.1034  0.5791
   27MOL    O30 5802   4.584   6.681   5.684 -0.0006 -0.2430 -0.3095
   27MOL    H31 5803   4.648   6.915   5.605 -0.7993  1.0772  0.3506
   27MOL    H32 5804   4.558   7.021   5.385 -0.9732  0.3716  1.0624
   27MOL    H33 5805   4.298   6.687   5.331  1.3751 -0.9620 -0.8571
   27MOL    H34 5806   4.411   6.570   5.529  1.1508 -0.8212 -1.1506
   27MOL    C35 5807   4.326   6.668   5.959 -0.0540 -0.8242  0.6968
   27MOL    C36 5808   4.384   6.660   5.831  0.3713  0.2893  0.3349
   27MOL    C37 5809   4.523   6.690   5.812  0.2634 -0.2951 -0.4188
   27MOL    C38 5810   4.603   6.695   5.928  0.5294  0.7261  0.0203
   27MOL    C39 5811   4.545   6.694   6.055  0.2966 -0.8538 -0.5668
   27MOL    C40 5812   4.405   6.683   6.073 -0.1771  0.3444 -0.6025
   27MOL    O41 5813   4.347   6.704   6.202 -0.1542  0.5645  0.1234
   27MOL    H42 5814   4.219   6.671   5.975 -0.3500  0.8668 -1.5214
   27MOL    H43 5815   4.319   6.650   5.746 -0.8072 -0.6094  1.3236
   27MOL    H44 5816   4.710   6.705   5.922  0.7027 -0.1843  1.2403
   27MOL    H45 5817   4.601   6.699   6.148 -0.6123 -1.1716 -0.0026
   27MOL    C46 5818   4.377   7.061   6.289  0.4906  0.0987  0.5138
   27MOL    C47 5819   4.409   6.926   6.273  0.7632 -0.5390  0.5346
   27MOL    C48 5820   4.315   6.836   6.219  0.4077 -0.4575  0.3179
   27MOL    C49 5821   4.187   6.888   6.188 -0.8174 -0.2366 -0.1032
   27MOL    C50 5822   4.154   7.022   6.203  0.1865  0.9858 -1.2605
   27MOL    C51 5823   4.250   7.112   6.249 -0.0170  0.2842  0.2552
   27MOL    O52 5824   4.210   7.243   6.267  0.7099 -0.0663 -0.6424
   27MOL    H53 5825   4.449   7.130   6.331  0.2938 -0.2408  1.4178
   27MOL    H54 5826   4.506   6.888   6.301  0.8566 -0.4843  0.2884
   27MOL    H55 5827   4.109   6.819   6.162  0.0738 -0.6832 -1.6696
   27MOL    H56 5828   4.049   7.050   6.202  0.2224  1.1048 -1.6751
   27MOL    C57 5829   4.367   7.426   6.007 -0.2107 -0.6429  0.5218
   27MOL    C58 5830   4.273   7.342   6.069 -0.3959 -0.0236  0.2065
   27MOL    C59 5831   4.281   7.336   6.210 -0.3213  0.7037  0.2118
   27MOL    C60 5832   4.375   7.411   6.282  0.0798  0.1811 -0.6308
   27MOL    C61 5833   4.463   7.495   6.217 -0.7852 -0.7804  0.4904
   27MOL    C62 5834   4.464   7.499   6.078  0.0341  0.5434 -1.0359
   27MOL    O63 5835   4.560   7.580   6.012 -0.4017 -0.5871 -0.1550
   27MOL    H64 5836   4.350   7.438   5.901 -1.0181 -1.8669  0.4987
   27MOL    H65 5837   4.201   7.275   6.025  0.1913 -1.6403  1.6365
   27MOL    H66 5838   4.372   7.413   6.390 -2.8308 -0.5821 -0.6597
   27MOL    H67 5839   4.535   7.556   6.271 -0.2908 -0.6937 -0.2631
   27MOL    C68 5840   4.680   7.913   6.069  0.2365 -0.1349  0.4278
   27MOL    C69 5841   4.677   7.777   6.047  0.1009  0.0097  0.1727
   27MOL    C70 5842   4.557   7.714   6.031  0.5992  0.0551 -0.1552
   27MOL    C71 5843   4.437   7.787   6.044  0.4069 -0.0632 -0.4953
   27MOL    C72 5844   4.442   7.924   6.065 -0.3429 -0.3815 -0.1760
   27MOL    C73 5845   4.563   7.988   6.077  0.3140  0.8086 -0.8036
   27MOL    O74 5846   4.563   8.126   6.087  0.3271  0.4534  0.4415
   27MOL    H75 5847   4.777   7.957   6.082 -0.0160 -0.5202  4.0149
   27MOL    H76 5848   4.766   7.717   6.035 -0.0237 -0.0104 -0.7444
   27MOL    H77 5849   4.343   7.736   6.028  0.5727 -1.1837  2.0320
   27MOL    H78 5850   4.351   7.982   6.072 -0.4083 -0.5217  0.1475
   27MOL    C79 5851   4.803   8.222   6.353 -0.4256 -0.5415 -0.3335
   27MOL    C80 5852   4.692   8.155   6.294  0.4660  0.1106 -0.0227
   27MOL    C81 5853   4.666   8.181   6.156  0.8165  0.4735  0.4341
   27MOL    C82 5854   4.747   0.007   6.081  0.0758  0.4414  0.3214
   27MOL    C83 5855   4.857   0.071   6.140  0.5145  0.1792 -0.2804
   27MOL    C84 5856   4.883   0.057   6.278 -0.0749  0.5607 -0.2896
   27MOL    O85 5857   4.983   0.129   6.335 -0.0247  0.1100  0.0497
   27MOL    H86 5858   4.824   8.212   6.459 -1.8814 -0.9588 -0.0609
   27MOL    H87 5859   4.623   8.086   6.340  1.1394 -1.6518 -1.6345
   27MOL    H88 5860   4.718   0.012   5.977 -0.8522 -2.7633  0.3713
   27MOL    H89 5861   4.919   0.139   6.083 -2.5149  2.0251 -1.5030
   27MOL    C90 5862   5.116   0.419   6.153 -0.1589  0.0045 -0.3657
   27MOL    C91 5863   5.090   0.289   6.198 -0.1329  0.2444  0.3640
   27MOL    C92 5864   4.995   0.260   6.293 -0.1335 -0.2372  0.2017
   27MOL    C93 5865   4.917   0.366   6.348 -0.4040  0.1250  0.4632
   27MOL    C94 5866   4.950   0.493   6.308  0.7818  0.0613  0.2795
   27MOL    C95 5867   5.046   0.523   6.211 -0.0155  0.8707 -0.0823
   27MOL    O96 5868   5.067   0.650   6.167  0.3252 -0.1926  0.0214
   27MOL    H97 5869   5.184   0.443   6.073 -2.3922  2.1642 -1.6869
   27MOL    H98 5870   5.143   0.211   6.145  1.0185  0.3703  1.3206
   27MOL    H99 5871   4.837   0.358   6.420 -0.5461  1.9714  0.5268
   27MOL   H100 5872   4.897   0.581   6.341  1.8310  0.5568  0.6660
   27MOL   C101 5873   5.364   0.777   6.336  0.1188  0.3771  0.7664
   27MOL   C102 5874   5.265   0.687   6.294 -0.0686 -0.6170  0.2362
   27MOL   C103 5875   5.151   0.740   6.232 -0.3820  0.1911  0.1455
   27MOL   C104 5876   5.138   0.882   6.204  0.2752 -0.6435  0.1736
   27MOL   C105 5877   5.243   0.962   6.244 -0.0302 -0.2073  0.1399
   27MOL   C106 5878   5.358   0.912   6.309  0.1704 -0.1000 -0.2868
   27MOL   O107 5879   5.469   0.981   6.325  0.3734 -0.1559 -0.2349
   27MOL   H108 5880   5.461   0.740   6.369  0.6403  0.7776 -0.2953
   27MOL   H109 5881   5.271   0.579   6.297 -2.6596 -0.8450 -0.9920
   27MOL   H110 5882   5.055   0.926   6.150  0.7261  0.3926  0.3163
   27MOL   H111 5883   5.250   1.064   6.211 -3.4905 -0.0611 -0.3133
   27MOL   C112 5884   5.730   0.951   6.071 -0.4973 -0.0747  0.5005
   27MOL   C113 5885   5.644   0.914   6.173  0.2311 -0.2030  0.0617
   27MOL   C114 5886   5.546   1.005   6.215  0.3715  0.1498  0.0224
   27MOL   C115 5887   5.534   1.134   6.156  0.5313  0.3866  0.1933
   27MOL   C116 5888   5.632   1.171   6.064 -0.5503  0.0423  0.4333
   27MOL   C117 5889   5.718   1.076   6.007 -0.2011 -0.2118 -0.1277
   27MOL   O118 5890   5.809   1.121   5.917 -0.0098 -0.2828  0.0338
   27MOL   H119 5891   5.803   0.879   6.039 -0.4916 -0.1226  0.6224
   27MOL   H120 5892   5.643   0.811   6.206 -0.2093 -0.5492 -1.0456
   27MOL   H121 5893   5.469   1.208   6.201  0.8525  1.0810 -0.4769
   27MOL   H122 5894   5.631   1.271   6.023  3.4347  0.1152  0.3287
   27MOL   C123 5895   5.613   1.153   5.604  0.1693 -0.4548 -0.5573
   27MOL   C124 5896   5.644   1.111   5.735 -0.3182  0.2851 -0.4571
   27MOL   C125 5897   5.769   1.151   5.796 -0.0261 -0.5589  0.3582
   27MOL   C126 5898   5.864   1.220   5.718  0.0076  0.5452  0.0392
   27MOL   C127 5899   5.835   1.254   5.583  0.3894  0.3906  0.6141
   27MOL   C128 5900   5.713   1.215   5.525 -0.0293 -0.0837 -0.4396
   27MOL   O129 5901   5.679   1.260   5.397  0.3540 -0.0710 -0.6586
   27MOL   H130 5902   5.526   1.122   5.549  0.0258 -1.6847  0.3691
   27MOL   H131 5903   5.584   1.044   5.795  0.3811  0.7635  0.7958
   27MOL   H132 5904   5.963   1.238   5.756 -0.9653  3.0965  1.4447
   27MOL   H133 5905   5.916   1.293   5.524  1.0656  0.0427  1.3012
   27MOL   C134 5906   5.895   1.318   5.104  0.1656  0.4559 -0.5044
   27MOL   C135 5907   5.792   1.331   5.196 -0.5116  0.6135 -0.2383
   27MOL   C136 5908   5.773   1.234   5.296  0.1082  0.2146  0.1924
   27MOL   C137 5909   5.856   1.117   5.295 -0.5893  0.6348 -0.1937
   27MOL   C138 5910   5.962   1.103   5.204 -0.2092 -0.1710 -0.6766
   27MOL   C139 5911   5.974   1.197   5.101  0.1178 -0.1200  0.3049
   27MOL   O140 5912   6.067   1.168   5.009  0.4926 -0.2933 -0.1489
   27MOL   H141 5913   5.904   1.391   5.025  1.2384  2.1144  1.1035
   27MOL   H142 5914   5.736   1.424   5.202 -0.2953  0.6919  0.5187
   27MOL   H143 5915   5.841   1.053   5.381  0.6559  1.7213  0.8478
   27MOL   H144 5916   6.022   1.014   5.213  2.0503  1.4672  1.2392
   27MOL   C145 5917   6.156   1.401   4.740 -0.7985  0.3936 -0.7965
   27MOL   C146 5918   6.097   1.295   4.811  0.2229 -0.9473  0.4132
   27MOL   C147 5919   6.134   1.264   4.941  0.0656 -0.3355  0.2128
   27MOL   C148 5920   6.237   1.339   4.997 -0.2215 -0.1296  0.4982
   27MOL   C149 5921   6.306   1.435   4.927  0.2748 -0.4333 -0.4860
   27MOL   C150 5922   6.271   1.467   4.793  0.0472  0.1331 -0.3970
   27MOL   O151 5923   6.340   1.565   4.729  0.4461  0.3345 -0.1792
   27MOL   H152 5924   6.118   1.417   4.640 -1.4339 -2.7474 -1.1055
   27MOL   H153 5925   6.026   1.232   4.759 -0.0073 -0.6884  0.4103
   27MOL   H154 5926   6.275   1.310   5.094 -0.1377  1.3493  0.9209
   27MOL   H155 5927   6.380   1.485   4.987 -0.5350 -0.9932  0.9897
   27MOL   C156 5928   6.137   1.806   4.550  0.6191  0.0092 -0.1096
   27MOL   C157 5929   6.188   1.731   4.651 -1.1245  0.1441 -0.1583
   27MOL   C158 5930   6.277   1.628   4.628  0.6723 -0.6547 -0.1931
   27MOL   C159 5931   6.310   1.598   4.496 -0.6833  0.2069 -0.1619
   27MOL   C160 5932   6.257   1.670   4.392  0.8012 -0.0611  0.4909
   27MOL   C161 5933   6.173   1.781   4.414 -0.1213 -0.2570  0.1405
   27MOL   O162 5934   6.111   1.841   4.304  0.1597  0.0969 -0.2794
   27MOL   H163 5935   6.069   1.882   4.585  0.7101 -0.6047  1.4266
   27MOL   H164 5936   6.160   1.755   4.753 -0.6114 -0.4198  0.1124
   27MOL   H165 5937   6.371   1.514   4.466  0.0856  0.0584  1.7900
   27MOL   H166 5938   6.291   1.632   4.297  1.2396  1.6267 -0.0429
   27MOL   C167 5939   6.110   2.199   4.377  0.0129 -0.7716 -0.1061
   27MOL   C168 5940   6.153   2.068   4.380 -0.5694  0.2239 -0.0402
   27MOL   C169 5941   6.067   1.967   4.321 -0.3215 -0.6733  0.0057
   27MOL   C170 5942   5.944   2.006   4.268 -0.5947 -0.1415 -0.3116
   27MOL   C171 5943   5.900   2.137   4.274  0.0783  0.4832  0.0141
   27MOL   C172 5944   5.988   2.236   4.322 -0.5633  0.7365  0.5005
   27MOL   O173 5945   5.948   2.367   4.321  0.0356  0.0149  0.1885
   27MOL   H174 5946   6.183   2.272   4.411 -0.4487 -0.1916 -0.3369
   27MOL   H175 5947   6.248   2.045   4.426 -2.3412 -1.0703  3.1346
   27MOL   H176 5948   5.886   1.942   4.203 -1.0450  0.9750 -1.0154
   27MOL   H177 5949   5.816   2.173   4.216 -0.6682 -4.2069 -2.0915
   27MOL   C178 5950   5.631   2.552   4.365 -0.0363  0.1046  0.3361
   27MOL   C179 5951   5.754   2.506   4.305 -0.0366  0.0134 -0.0465
   27MOL   C180 5952   5.832   2.422   4.378 -0.6189  0.9706 -0.2465
   27MOL   C181 5953   5.806   2.398   4.515 -0.0658  0.4128  0.4846
   27MOL   C182 5954   5.691   2.458   4.570 -0.3340  0.3120 -0.1771
   27MOL   C183 5955   5.598   2.529   4.495 -0.0926 -0.3281 -0.0903
   27MOL   O184 5956   5.489   2.581   4.558 -0.1049 -0.0428 -0.1804
   27MOL   H185 5957   5.560   2.603   4.302 -1.5030 -0.5948  1.4080
   27MOL   H186 5958   5.781   2.512   4.200 -0.6321 -2.6099 -0.3948
   27MOL   H187 5959   5.869   2.347   4.587  1.7709  1.4194 -0.3784
   27MOL   H188 5960   5.669   2.465   4.676 -1.1834  1.2291 -0.4046
   27MOL   C189 5961   5.376   2.926   4.495 -0.0945 -0.2768 -0.5199
   27MOL   C190 5962   5.448   2.817   4.552  0.1748 -0.3988 -0.2431
   27MOL   C191 5963   5.417   2.685   4.506  0.2397  0.4152  0.0082
   27MOL   C192 5964   5.325   2.664   4.403 -0.2620 -0.3629 -0.6958
   27MOL   C193 5965   5.246   2.769   4.356  0.1325 -0.3259  0.8896
   27MOL   C194 5966   5.273   2.906   4.397  0.2011 -0.4186  0.0612
   27MOL   O195 5967   5.200   3.010   4.357 -0.4562 -0.3861  0.0055
   27MOL   H196 5968   5.403   3.022   4.537 -1.0215 -1.0770  1.9950
   27MOL   H197 5969   5.520   2.824   4.632 -0.9034  1.5516  0.5926
   27MOL   H198 5970   5.310   2.560   4.375  1.4843 -0.7341 -0.2950
   27MOL   H199 5971   5.163   2.754   4.289 -0.1321 -1.1561  1.4037
   27MOL   C200 5972   4.842   2.944   4.420  0.3719 -0.1507  0.1547
   27MOL   C201 5973   4.979   2.932   4.430  0.2063 -0.4514 -0.4553
   27MOL   C202 5974   5.068   2.991   4.334  0.7128  0.3253 -0.0513
   27MOL   C203 5975   5.010   3.051   4.218 -0.5278  0.0367 -0.0963
   27MOL   C204 5976   4.870   3.058   4.204 -0.1957  0.4480  0.5266
   27MOL   C205 5977   4.787   3.008   4.308  0.6819 -0.5069 -0.7484
   27MOL   O206 5978   4.653   3.036   4.294 -0.3144 -0.2674 -0.3775
   27MOL   H207 5979   4.773   2.917   4.499  2.4093 -0.4475  1.8733
   27MOL   H208 5980   5.031   2.897   4.518  0.7695 -2.1002 -1.4157
   27MOL   H209 5981   5.075   3.102   4.148  1.1620 -0.8029  0.8409
   27MOL   H210 5982   4.816   3.115   4.131 -1.9759 -0.4384  1.1170
   27MOL   C211 5983   4.351   2.907   4.141 -0.8834  0.2757 -0.1338
   27MOL   C212 5984   4.446   2.997   4.198 -0.3147 -0.6269  0.1597
   27MOL   C213 5985   4.572   2.946   4.233  0.3772  0.0755 -0.0109
   27MOL   C214 5986   4.598   2.806   4.208 -0.0992  0.1694  0.1690
   27MOL   C215 5987   4.504   2.719   4.146 -0.7721  0.3480 -0.5304
   27MOL   C216 5988   4.376   2.772   4.118  0.0374  0.2901 -0.2778
   27MOL   O217 5989   4.273   2.699   4.056 -0.1795 -0.0580 -0.7044
   27MOL   H218 5990   4.254   2.948   4.118 -0.8903 -0.8976 -2.3158
   27MOL   H219 5991   4.421   3.100   4.216  0.2326 -0.3098 -0.9022
   27MOL   H220 5992   4.690   2.768   4.250 -1.0763 -0.7608  1.4874
   27MOL   H221 5993   4.527   2.621   4.108  1.4511  1.3817 -1.9558
   27MOL   H222 5994   4.303   2.613   4.029 -0.5081 -0.0611 -1.0725
   28MOL     C1 5995   5.518   6.028   0.092  0.5005 -0.9959 -0.6120
   28MOL     C2 5996   5.519   5.963   8.220 -0.3596  0.3590 -0.2661
   28MOL     C3 5997   5.459   6.027   8.109 -0.2815 -0.2793 -0.5992
   28MOL     C4 5998   5.383   6.146   8.127 -0.2731  0.8911  0.1373
   28MOL     C5 5999   5.363   6.198   0.001  0.3119  0.2070 -0.3768
   28MOL     C6 6000   5.435   6.138   0.113 -0.1800  0.7692 -0.6194
   28MOL     O7 6001   5.430   6.200   0.234 -0.5263  0.0318  0.0911
   28MOL     H8 6002   5.568   5.992   0.180  1.8492  0.0750 -0.9146
   28MOL     H9 6003   5.568   5.867   8.208  1.2505  0.8973  1.6061
   28MOL    H10 6004   5.342   6.185   8.034 -1.9359 -0.5661  0.2208
   28MOL    H11 6005   5.297   6.281   0.023  0.7999  0.6043 -0.4038
   28MOL    H12 6006   5.474   5.980   8.013  0.1514 -1.6152  0.1044
   28MOL    C13 6007   5.160   6.040   0.425 -0.3588  1.1746 -0.7973
   28MOL    C14 6008   5.231   6.107   0.328  0.4588 -0.2810 -0.6044
   28MOL    C15 6009   5.370   6.125   0.330  0.8587 -0.9511 -1.0073
   28MOL    C16 6010   5.441   6.088   0.448  0.8680  0.4546 -0.3692
   28MOL    C17 6011   5.368   6.031   0.553  0.7131 -0.4833 -0.3932
   28MOL    C18 6012   5.229   6.002   0.541 -0.1449  0.5728 -0.0707
   28MOL    O19 6013   5.162   5.965   0.654 -0.2715 -0.0979  0.1262
   28MOL    H20 6014   5.054   6.021   0.422 -0.0858 -0.4839 -0.4509
   28MOL    H21 6015   5.172   6.151   0.249 -1.3255  1.3633  1.5549
   28MOL    H22 6016   5.548   6.091   0.453  0.7646  1.3424  1.4196
   28MOL    H23 6017   5.426   6.009   0.642 -0.3140  1.9324  0.9250
   28MOL    C24 6018   4.936   5.684   0.593 -0.4962  0.0679 -0.0397
   28MOL    C25 6019   4.984   5.814   0.605 -0.1424 -0.2448  0.9341
   28MOL    C26 6020   5.118   5.833   0.647  0.2138 -0.3592 -0.5500
   28MOL    C27 6021   5.201   5.723   0.684 -0.4044  0.4132 -0.1440
   28MOL    C28 6022   5.140   5.594   0.673  0.0704 -0.2431  0.0105
   28MOL    C29 6023   5.006   5.572   0.631  0.1808 -0.7958 -0.2834
   28MOL    O30 6024   4.943   5.449   0.633 -0.4378  0.3229 -0.0963
   28MOL    H31 6025   4.837   5.660   0.556  0.8887 -2.0500 -2.5642
   28MOL    H32 6026   4.934   5.906   0.577  1.7949  0.4434 -0.4156
   28MOL    H33 6027   5.306   5.742   0.701  0.3508 -1.0442 -2.9296
   28MOL    H34 6028   5.206   5.516   0.707  1.9536  1.0549 -0.6134
   28MOL    C35 6029   5.139   5.147   0.711  0.0348  0.8544  0.4164
   28MOL    C36 6030   5.053   5.256   0.722  0.1536  0.2288 -0.4395
   28MOL    C37 6031   5.025   5.335   0.611 -0.1086  0.0594 -0.4906
   28MOL    C38 6032   5.080   5.311   0.484 -0.3556  0.0363 -0.6452
   28MOL    C39 6033   5.170   5.201   0.475  0.4355 -0.5212  0.4743
   28MOL    C40 6034   5.192   5.115   0.584  0.0809 -0.6426  0.0315
   28MOL    O41 6035   5.272   5.007   0.567  0.4697  0.7751 -0.3715
   28MOL    H42 6036   5.162   5.084   0.795  0.1868  0.5034  0.1119
   28MOL    H43 6037   5.001   5.274   0.815  0.5427  2.7511 -0.6522
   28MOL    H44 6038   5.054   5.372   0.399 -0.5015  0.7594 -0.0804
   28MOL    H45 6039   5.217   5.192   0.378  1.8885 -1.5314  1.2450
   28MOL    C46 6040   5.503   4.836   0.794 -0.0914 -0.7438 -0.6050
   28MOL    C47 6041   5.394   4.859   0.705  0.0909 -0.0934 -0.3885
   28MOL    C48 6042   5.379   4.989   0.651  0.1532  0.2920  0.4319
   28MOL    C49 6043   5.465   5.092   0.672  0.1765  0.2291 -0.5282
   28MOL    C50 6044   5.573   5.067   0.764 -0.1116 -0.2776 -0.1678
   28MOL    C51 6045   5.586   4.946   0.833  0.4124  0.1549 -0.0584
   28MOL    O52 6046   5.678   4.940   0.934  0.0870  0.7441 -0.7257
   28MOL    H53 6047   5.526   4.741   0.840 -0.0019  0.7991  2.6306
   28MOL    H54 6048   5.337   4.769   0.691  0.2604 -0.1401 -0.7992
   28MOL    H55 6049   5.452   5.189   0.627 -2.4900  0.2933  0.3102
   28MOL    H56 6050   5.639   5.144   0.799 -0.3314 -0.3266  0.3594
   28MOL    C57 6051   5.977   4.795   0.776 -1.1191 -0.5126  0.5579
   28MOL    C58 6052   5.857   4.867   0.792  0.4730  0.3170 -0.3061
   28MOL    C59 6053   5.795   4.870   0.918  0.3385  0.0646  0.4250
   28MOL    C60 6054   5.852   4.810   1.027 -0.2519  0.1866  0.5773
   28MOL    C61 6055   5.973   4.737   1.009 -1.3644 -0.0279  0.9722
   28MOL    C62 6056   6.036   4.738   0.885 -0.2925  0.1500  0.8651
   28MOL    O63 6057   6.158   4.676   0.873  0.1049 -0.1167 -0.1396
   28MOL    H64 6058   6.022   4.797   0.678 -3.2817  2.6549 -0.4585
   28MOL    H65 6059   5.806   4.915   0.710 -0.1177  1.2365  0.5877
   28MOL    H66 6060   5.809   4.822   1.126 -0.6053 -1.0343  0.5843
   28MOL    H67 6061   6.008   4.682   1.096  0.3769  0.2763  0.4944
   28MOL    C68 6062   6.472   4.664   1.063  0.6391  0.0726 -0.7966
   28MOL    C69 6063   6.352   4.623   0.999 -0.1431 -0.6846 -0.9187
   28MOL    C70 6064   6.267   4.718   0.938  0.2259 -0.0895 -0.6169
   28MOL    C71 6065   6.304   4.854   0.956 -0.1188 -0.0790 -0.0585
   28MOL    C72 6066   6.425   4.889   1.014 -0.4452  0.1291 -1.3552
   28MOL    C73 6067   6.509   4.795   1.071  0.0690  0.3786  0.1358
   28MOL    O74 6068   6.619   4.830   1.141  0.5106 -0.0692 -0.1824
   28MOL    H75 6069   6.538   4.582   1.088 -0.8906 -0.5851  1.2241
   28MOL    H76 6070   6.330   4.518   0.987  0.3591 -1.0611  1.2752
   28MOL    H77 6071   6.247   4.926   0.899  0.7746  0.8424  0.1912
   28MOL    H78 6072   6.466   4.989   1.022 -1.0143  0.2413  0.6634
   28MOL    C79 6073   6.589   4.769   1.505 -0.4112  0.0750  0.2216
   28MOL    C80 6074   6.572   4.752   1.361 -0.2448  0.6175 -0.1157
   28MOL    C81 6075   6.615   4.855   1.279 -0.5592  0.3550 -0.5335
   28MOL    C82 6076   6.652   4.979   1.332 -0.4001 -0.2052 -0.0562
   28MOL    C83 6077   6.658   4.990   1.473 -0.1102  0.3358 -0.2233
   28MOL    C84 6078   6.630   4.889   1.565  0.1764  1.1376  0.2283
   28MOL    O85 6079   6.656   4.903   1.698  0.3799 -0.4864  0.6994
   28MOL    H86 6080   6.564   4.690   1.574  1.6294  0.3833  1.3660
   28MOL    H87 6081   6.542   4.655   1.325  0.8018  0.2718 -0.0829
   28MOL    H88 6082   6.675   5.061   1.265  0.0196  0.2010  0.5822
   28MOL    H89 6083   6.673   5.086   1.520 -0.7248  0.9796 -1.3346
   28MOL    C90 6084   6.426   4.970   1.977  0.1439  0.4678  0.1603
   28MOL    C91 6085   6.513   4.995   1.868  0.2626 -0.3275  0.2584
   28MOL    C92 6086   6.561   4.887   1.791 -0.0506  0.6801  0.0703
   28MOL    C93 6087   6.520   4.758   1.824  0.6069 -0.5006 -0.1648
   28MOL    C94 6088   6.440   4.735   1.936  0.2770  0.1882  0.3058
   28MOL    C95 6089   6.388   4.844   2.011  0.7338 -0.0239 -1.0777
   28MOL    O96 6090   6.295   4.825   2.115  0.3886 -0.0128  0.1462
   28MOL    H97 6091   6.382   5.053   2.031  1.9730  2.5374 -1.4132
   28MOL    H98 6092   6.536   5.098   1.848 -1.5259  0.1126  0.3716
   28MOL    H99 6093   6.574   4.680   1.772 -0.7081 -1.0312 -0.7688
   28MOL   H100 6094   6.413   4.635   1.966  1.9008 -0.6690 -1.0453
   28MOL   C101 6095   5.939   4.754   2.191 -0.1055  0.1225  0.5006
   28MOL   C102 6096   6.081   4.757   2.191 -0.5471 -0.9379 -0.4910
   28MOL   C103 6097   6.157   4.817   2.092  0.1324  0.2040 -0.5122
   28MOL   C104 6098   6.093   4.858   1.975  0.1331  0.9422  0.1789
   28MOL   C105 6099   5.951   4.854   1.968 -0.4764 -0.6852 -0.2596
   28MOL   C106 6100   5.876   4.796   2.073  0.1988 -0.4336 -0.1866
   28MOL   O107 6101   5.741   4.773   2.057 -0.1208  0.2355 -0.3432
   28MOL   H108 6102   5.883   4.716   2.275 -0.6456  0.8553  0.4768
   28MOL   H109 6103   6.130   4.724   2.282  0.3784 -0.6319 -0.8699
   28MOL   H110 6104   6.160   4.897   1.900  0.4921  2.3894  1.2444
   28MOL   H111 6105   5.905   4.875   1.872  0.5728  0.9107 -0.4196
   28MOL   C112 6106   5.553   5.003   1.850 -0.1651 -0.3067  0.0216
   28MOL   C113 6107   5.618   4.890   1.886  0.2955  0.8935 -0.5381
   28MOL   C114 6108   5.667   4.877   2.019 -0.2590 -0.3493 -0.0034
   28MOL   C115 6109   5.647   4.973   2.118 -0.2522 -0.0887 -0.4059
   28MOL   C116 6110   5.585   5.089   2.080  0.1454 -0.7320 -0.4761
   28MOL   C117 6111   5.538   5.104   1.949 -0.5204  0.5543 -0.0429
   28MOL   O118 6112   5.470   5.218   1.910 -0.1501  0.3893  0.2888
   28MOL   H119 6113   5.515   5.011   1.749 -0.5503  0.8013  0.2544
   28MOL   H120 6114   5.644   4.816   1.812  1.7298 -0.1867  0.9838
   28MOL   H121 6115   5.694   4.960   2.214  0.0981 -0.4940 -0.6306
   28MOL   H122 6116   5.575   5.167   2.153  2.1534  0.3473 -1.3107
   28MOL   C123 6117   5.241   5.270   2.196 -0.2675  0.1067  0.9698
   28MOL   C124 6118   5.312   5.206   2.093  0.0387  0.4372 -0.0880
   28MOL   C125 6119   5.395   5.284   2.003  0.0824 -0.4821 -0.0286
   28MOL   C126 6120   5.396   5.424   2.009 -0.0757 -0.0382  0.1400
   28MOL   C127 6121   5.312   5.486   2.104  0.1015  0.2725 -0.5137
   28MOL   C128 6122   5.232   5.412   2.194  0.0724  0.2870 -0.1636
   28MOL   O129 6123   5.153   5.468   2.288  0.0766  0.1804  1.0258
   28MOL   H130 6124   5.177   5.215   2.264 -2.2886  2.5746  1.1090
   28MOL   H131 6125   5.290   5.101   2.078  1.1254  0.0741  0.8547
   28MOL   H132 6126   5.469   5.470   1.944  0.1575  0.0927  0.4940
   28MOL   H133 6127   5.288   5.591   2.105  0.6522  0.4740 -3.9666
   28MOL   C134 6128   5.066   5.439   2.639  0.3520  0.1751 -0.1580
   28MOL   C135 6129   5.058   5.466   2.500  0.2525 -0.1917  0.1502
   28MOL   C136 6130   5.168   5.449   2.418  0.3195 -0.7151 -0.0952
   28MOL   C137 6131   5.286   5.401   2.480 -0.8117 -0.1233  0.0548
   28MOL   C138 6132   5.300   5.378   2.619 -0.0227  0.4365  0.0670
   28MOL   C139 6133   5.186   5.397   2.700  0.4050  0.9834 -0.0289
   28MOL   O140 6134   5.173   5.360   2.834  0.3951  0.7030  0.0473
   28MOL   H141 6135   4.974   5.425   2.695  0.8833  1.2171  1.0191
   28MOL   H142 6136   4.959   5.488   2.463 -0.0561 -2.0036 -0.1466
   28MOL   H143 6137   5.380   5.380   2.430 -0.2849 -1.2839  1.4892
   28MOL   H144 6138   5.393   5.342   2.661  0.9405  0.1354 -2.2409
   28MOL   C145 6139   5.455   5.430   3.063  0.0240  0.7448  0.6666
   28MOL   C146 6140   5.336   5.458   2.991 -0.3260  0.4856  0.2087
   28MOL   C147 6141   5.289   5.348   2.909  0.3775  0.4710  0.6377
   28MOL   C148 6142   5.359   5.225   2.911  0.2705 -0.0963  0.5405
   28MOL   C149 6143   5.476   5.200   2.986 -0.5024 -0.6477 -0.1324
   28MOL   C150 6144   5.527   5.307   3.063  0.5172  0.1703 -0.0845
   28MOL   O151 6145   5.639   5.280   3.145 -0.2008  0.1340 -0.0255
   28MOL   H152 6146   5.501   5.501   3.131  1.7221  0.6019 -0.3145
   28MOL   H153 6147   5.286   5.552   3.008 -0.9263  0.3684 -0.8883
   28MOL   H154 6148   5.327   5.149   2.841  1.8293 -1.3700  1.1642
   28MOL   H155 6149   5.529   5.106   2.983 -0.3488 -0.5805  0.4179
   28MOL   C156 6150   5.944   5.389   2.963  0.4212 -0.4276 -0.2714
   28MOL   C157 6151   5.827   5.314   2.994  0.1469 -0.0737  0.0397
   28MOL   C158 6152   5.759   5.342   3.117  0.2551 -0.5223 -0.0176
   28MOL   C159 6153   5.801   5.455   3.199 -0.2806  0.1644 -0.2946
   28MOL   C160 6154   5.912   5.529   3.161 -0.2470 -0.2655  0.0197
   28MOL   C161 6155   5.990   5.496   3.046  0.7913 -0.1444 -0.4321
   28MOL   O162 6156   6.101   5.566   3.013  0.1860 -0.6309 -0.6866
   28MOL   H163 6157   5.991   5.356   2.872  1.6670  2.5950 -0.7535
   28MOL   H164 6158   5.776   5.251   2.923 -1.4536 -0.2542  1.3055
   28MOL   H165 6159   5.743   5.479   3.287 -0.7784 -2.3027  0.0842
   28MOL   H166 6160   5.943   5.604   3.232  1.6982 -1.5797  0.5671
   28MOL   C167 6161   6.384   5.330   3.093  0.3920 -0.2840 -0.5607
   28MOL   C168 6162   6.255   5.374   3.049 -0.1809  0.0620  0.2843
   28MOL   C169 6163   6.222   5.510   3.057 -0.6267  0.4613 -0.2548
   28MOL   C170 6164   6.310   5.605   3.107  0.2388  0.3587 -0.3056
   28MOL   C171 6165   6.440   5.556   3.146  0.0841 -0.3129 -0.5654
   28MOL   C172 6166   6.480   5.422   3.139 -0.5115 -0.0634 -0.3409
   28MOL   O173 6167   6.612   5.380   3.174  0.2092 -0.9380  0.2090
   28MOL   H174 6168   6.414   5.227   3.091  0.3214 -0.2880 -1.4589
   28MOL   H175 6169   6.185   5.302   3.009  2.1904 -2.7207  1.0246
   28MOL   H176 6170   6.286   5.710   3.119 -1.3527 -0.1011  0.6239
   28MOL   H177 6171   6.493   5.642   3.184 -0.9734 -0.5954  1.6012
   28MOL   C178 6172   6.701   5.434   3.530  0.0750 -0.1400 -0.1840
   28MOL   C179 6173   6.636   5.387   3.416  0.5439  0.3623  0.0284
   28MOL   C180 6174   6.676   5.430   3.289 -0.5714  0.1193  0.0855
   28MOL   C181 6175   6.778   5.526   3.274  0.3887 -0.5211 -0.0032
   28MOL   C182 6176   6.844   5.573   3.388  0.1829 -0.5579 -0.6959
   28MOL   C183 6177   6.807   5.531   3.518 -0.6700 -0.0733  0.8481
   28MOL   O184 6178   6.856   5.582   3.638  0.3519  0.8391  0.2729
   28MOL   H185 6179   6.664   5.417   3.630 -0.4512 -1.6403 -0.6277
   28MOL   H186 6180   6.543   5.332   3.427  1.2149 -0.6033  1.0447
   28MOL   H187 6181   6.803   5.552   3.172  0.6982  1.1329  0.4859
   28MOL   H188 6182   6.934   5.633   3.380 -1.9477  2.8498 -0.0390
   28MOL   C189 6183   7.210   5.677   3.665  0.0674  0.1022 -0.2514
   28MOL   C190 6184   7.071   5.681   3.637 -0.5062  0.4912 -0.8025
   28MOL   C191 6185   6.990   5.573   3.656  0.1037  0.7936 -0.0407
   28MOL   C192 6186   7.043   5.451   3.707  0.2033 -0.2520 -0.3714
   28MOL   C193 6187   7.179   5.439   3.734 -0.3517 -0.4164 -0.1758
   28MOL   C194 6188   7.262   5.556   3.713 -0.0712 -0.4499 -0.1917
   28MOL   O195 6189   7.395   5.549   3.738  0.7318 -0.0367 -0.4782
   28MOL   H196 6190   7.266   5.767   3.645 -0.1869 -0.1397 -2.0619
   28MOL   H197 6191   7.029   5.774   3.601  0.7006  0.7477 -1.5626
   28MOL   H198 6192   6.974   5.369   3.715  0.8400 -0.6924  0.6103
   28MOL   H199 6193   7.222   5.349   3.775 -2.9879 -2.3205 -1.4748
   28MOL   C200 6194   7.441   5.517   4.108  0.1928  0.0836  0.0017
   28MOL   C201 6195   7.409   5.480   3.975 -0.3414 -0.1960 -0.1209
   28MOL   C202 6196   7.415   5.583   3.871 -1.0570  0.0293  1.0277
   28MOL   C203 6197   7.449   5.717   3.914 -0.7210  0.0282  0.3287
   28MOL   C204 6198   7.479   5.745   4.051  0.1163  0.2059 -0.4480
   28MOL   C205 6199   7.472   5.646   4.147 -0.1308 -0.3423 -0.1203
   28MOL   O206 6200   7.492   5.663   4.285 -0.4369 -0.5836 -0.4946
   28MOL   H207 6201   7.444   5.435   4.179 -2.2244 -1.5109 -1.6689
   28MOL   H208 6202   7.378   5.381   3.947 -1.8934  0.2776 -0.0898
   28MOL   H209 6203   7.450   5.795   3.839  0.0277  0.8868  1.2261
   28MOL   H210 6204   7.496   5.843   4.091  1.7022  0.9037 -2.7159
   28MOL   C211 6205   7.842   5.773   4.332 -0.1467 -0.0493  0.2906
   28MOL   C212 6206   7.732   5.703   4.280 -0.0195 -0.0325  0.3100
   28MOL   C213 6207   7.604   5.724   4.330  0.6229 -0.3029 -0.0434
   28MOL   C214 6208   7.587   5.826   4.428 -0.0384  0.6070  0.3056
   28MOL   C215 6209   7.698   5.901   4.478 -0.1999  0.1720  0.6060
   28MOL   C216 6210   7.828   5.865   4.436  0.3136 -0.6208 -0.6919
   28MOL   O217 6211   7.945   5.908   4.490  0.1650 -0.8766  0.0751
   28MOL   H218 6212   7.936   5.746   4.285 -1.1067  3.4471 -3.9182
   28MOL   H219 6213   7.737   5.633   4.198 -0.6543  1.1410 -0.7499
   28MOL   H220 6214   7.487   5.843   4.467  0.7972  1.0392  2.3166
   28MOL   H221 6215   7.675   5.981   4.547 -1.2016 -0.0971  0.5839
   28MOL   H222 6216   8.010   5.927   4.424  1.7376 -0.3711  1.7194
   29MOL     C1 6217   5.441   6.630   7.776 -0.1966  0.3663 -0.0509
   29MOL     C2 6218   5.575   6.629   7.821  0.4045 -0.1069  0.8551
   29MOL     C3 6219   5.608   6.541   7.918 -0.3588  1.1923 -0.2686
   29MOL     C4 6220   5.513   6.468   7.988  0.1505 -0.5889  0.1501
   29MOL     C5 6221   5.377   6.475   7.947 -0.6770  0.3092 -0.3448
   29MOL     C6 6222   5.345   6.548   7.832 -0.5546  0.4911 -0.3320
   29MOL     O7 6223   5.223   6.569   7.779 -0.2932  0.1787 -1.1764
   29MOL     H8 6224   5.419   6.690   7.689  1.2703  0.1709 -0.5793
   29MOL     H9 6225   5.655   6.686   7.775 -1.3704  0.8364 -1.1759
   29MOL    H10 6226   5.542   6.407   8.073  1.7173 -0.8751 -0.5715
   29MOL    H11 6227   5.305   6.414   7.999  0.5383  0.1970  1.2592
   29MOL    H12 6228   5.711   6.541   7.949 -0.8595  4.3462  1.6778
   29MOL    C13 6229   5.104   6.866   7.976 -0.3125  0.0553 -0.4259
   29MOL    C14 6230   5.192   6.768   7.921  0.2735  0.8916 -0.0003
   29MOL    C15 6231   5.137   6.655   7.844 -0.2250 -0.1317 -0.2953
   29MOL    C16 6232   5.000   6.646   7.830 -0.2941 -0.0699 -0.1741
   29MOL    C17 6233   4.913   6.725   7.905  0.0869 -0.5676 -0.6514
   29MOL    C18 6234   4.965   6.837   7.969  0.0955 -0.0216  0.2539
   29MOL    O19 6235   4.876   6.923   8.033 -0.0241 -0.2233  0.0049
   29MOL    H20 6236   5.138   6.952   8.031 -0.1558 -0.6727  0.6299
   29MOL    H21 6237   5.293   6.781   7.956  0.0871 -1.1188  1.3861
   29MOL    H22 6238   4.951   6.569   7.773  1.1896 -0.3195 -1.1428
   29MOL    H23 6239   4.805   6.714   7.902  0.1485 -1.0026 -1.1589
   29MOL    C24 6240   4.973   7.033   0.119 -0.7451 -0.5278  0.0103
   29MOL    C25 6241   4.941   7.040   8.239 -0.6383 -0.4829  0.7401
   29MOL    C26 6242   4.889   6.927   8.169 -0.7876  0.8095  0.1690
   29MOL    C27 6243   4.869   6.806   8.242  1.4136  0.0069  0.7105
   29MOL    C28 6244   4.891   6.801   0.127  0.0820 -0.2051  0.9074
   29MOL    C29 6245   4.949   6.915   0.195  0.0272 -0.0334  0.2616
   29MOL    O30 6246   4.968   6.916   0.328 -0.1377 -0.2611 -0.6869
   29MOL    H31 6247   5.023   7.119   0.162 -1.3846  0.4016 -1.1055
   29MOL    H32 6248   4.947   7.136   8.189 -2.1315 -0.8180 -0.1105
   29MOL    H33 6249   4.838   6.718   8.188 -1.5013  2.2554 -1.4630
   29MOL    H34 6250   4.879   6.706   0.177  1.4839 -0.8467  0.0713
   29MOL    C35 6251   5.229   6.977   0.573 -0.4046  0.7388 -0.8829
   29MOL    C36 6252   5.106   6.968   0.511 -0.7454  0.4860 -0.1252
   29MOL    C37 6253   5.092   6.922   0.379 -0.6528 -0.2134 -0.4036
   29MOL    C38 6254   5.206   6.879   0.305 -0.5846 -0.0386 -0.1076
   29MOL    C39 6255   5.332   6.900   0.366 -0.0151 -0.4932  0.2876
   29MOL    C40 6256   5.346   6.949   0.498 -0.1909 -0.0450 -0.1350
   29MOL    O41 6257   5.475   6.956   0.550  0.8342 -0.5384 -0.1122
   29MOL    H42 6258   5.246   7.008   0.675 -0.5694  2.3975 -1.3477
   29MOL    H43 6259   5.021   7.000   0.570 -0.5649  4.3336 -1.7767
   29MOL    H44 6260   5.202   6.830   0.208  0.2760  0.9193 -0.6418
   29MOL    H45 6261   5.420   6.863   0.316 -0.8981 -2.3799  0.0913
   29MOL    C46 6262   5.793   7.100   0.441 -0.3372  0.3272  0.3998
   29MOL    C47 6263   5.698   7.009   0.492  0.4413 -0.0613 -0.7066
   29MOL    C48 6264   5.562   7.042   0.485  0.1412  0.3787  0.6665
   29MOL    C49 6265   5.519   7.171   0.436 -0.2249  0.3097  0.2012
   29MOL    C50 6266   5.613   7.251   0.370  0.1487 -0.3588 -0.2714
   29MOL    C51 6267   5.749   7.218   0.373  0.2937  0.2978 -0.3943
   29MOL    O52 6268   5.840   7.299   0.322  0.4522 -0.0731 -0.3896
   29MOL    H53 6269   5.895   7.071   0.457 -0.0505  0.2414 -1.4834
   29MOL    H54 6270   5.720   6.915   0.541 -1.5560  1.0818  2.4961
   29MOL    H55 6271   5.414   7.193   0.444 -0.5219 -0.3820 -1.5762
   29MOL    H56 6272   5.572   7.339   0.322  0.2524  0.7473  1.6271
   29MOL    C57 6273   5.977   7.210   8.246 -0.6656  0.2071 -0.3410
   29MOL    C58 6274   5.954   7.207   0.130  0.3615 -0.2890  0.7007
   29MOL    C59 6275   5.858   7.292   0.189 -0.1408 -0.1085  0.7572
   29MOL    C60 6276   5.797   7.390   0.111  0.6788 -0.0696 -0.2318
   29MOL    C61 6277   5.821   7.400   8.229 -0.6341 -0.5023  0.3957
   29MOL    C62 6278   5.906   7.302   8.164  1.1057 -0.0054  0.1111
   29MOL    O63 6279   5.944   7.320   8.033  0.4982 -0.4299 -0.4350
   29MOL    H64 6280   6.049   7.142   8.203 -0.1721  0.9059 -0.6329
   29MOL    H65 6281   6.011   7.135   0.187 -1.9993 -2.6954  0.1396
   29MOL    H66 6282   5.714   7.447   0.151  1.4442 -0.2630  1.6837
   29MOL    H67 6283   5.764   7.474   8.174  1.0988  0.1139 -0.6300
   29MOL    C68 6284   6.076   7.131   7.756  0.2610 -0.9246 -0.1938
   29MOL    C69 6285   6.068   7.226   7.861  0.0953 -0.0942 -0.1042
   29MOL    C70 6286   5.966   7.211   7.958  0.2931  0.5806  0.5034
   29MOL    C71 6287   5.882   7.107   7.955  0.3567 -0.2824  0.3526
   29MOL    C72 6288   5.891   7.013   7.850 -0.2361 -0.3811 -0.0618
   29MOL    C73 6289   5.987   7.023   7.751  0.2126  0.1304 -0.4689
   29MOL    O74 6290   6.005   6.930   7.651  0.1947 -0.2392 -0.0457
   29MOL    H75 6291   6.154   7.149   7.683  0.0473  0.9890  0.0185
   29MOL    H76 6292   6.140   7.306   7.854 -0.4756  0.1944 -3.6355
   29MOL    H77 6293   5.793   7.099   8.017 -2.1906  0.1997 -3.1115
   29MOL    H78 6294   5.816   6.935   7.858 -2.3563  1.5141 -1.0303
   29MOL    C79 6295   5.684   6.806   7.513 -0.6867  0.0258  0.8440
   29MOL    C80 6296   5.809   6.814   7.578  0.5372  0.0402  0.4942
   29MOL    C81 6297   5.898   6.922   7.563 -1.0086 -0.2136 -0.6861
   29MOL    C82 6298   5.875   7.022   7.470 -0.4248  0.1082 -0.2234
   29MOL    C83 6299   5.750   7.022   7.408 -0.2398  0.0823  0.8010
   29MOL    C84 6300   5.660   6.914   7.425 -0.4580 -0.2282  0.2170
   29MOL    O85 6301   5.563   6.921   7.321  0.1758 -0.7254 -0.1391
   29MOL    H86 6302   5.618   6.722   7.529  0.8202 -0.7432  3.2153
   29MOL    H87 6303   5.835   6.740   7.652 -0.6913 -1.6343 -0.7213
   29MOL    H88 6304   5.955   7.091   7.445  1.1439 -1.9992 -1.1616
   29MOL    H89 6305   5.724   7.092   7.331  1.2469 -1.3947 -1.0959
   29MOL    C90 6306   5.233   6.999   7.480  0.1855 -0.2363  0.1266
   29MOL    C91 6307   5.362   7.023   7.425  0.5989  0.4136  0.2588
   29MOL    C92 6308   5.434   6.913   7.369  0.7677  1.2357  0.4704
   29MOL    C93 6309   5.367   6.789   7.349 -0.3618 -0.3086  0.3273
   29MOL    C94 6310   5.248   6.766   7.411  0.1597  0.0722  0.0098
   29MOL    C95 6311   5.180   6.868   7.478 -0.0182 -0.3071 -0.3853
   29MOL    O96 6312   5.062   6.842   7.538 -0.7510 -0.5671  0.0385
   29MOL    H97 6313   5.179   7.085   7.515  0.1205  0.9981 -2.8455
   29MOL    H98 6314   5.420   7.114   7.436  2.8277 -0.9474  0.1233
   29MOL    H99 6315   5.414   6.703   7.303 -0.7651 -1.2767  1.6826
   29MOL   H100 6316   5.199   6.670   7.401 -0.6790  0.4655  0.3476
   29MOL   C101 6317   4.824   6.884   7.256  0.5644  0.0842 -0.5653
   29MOL   C102 6318   4.938   6.856   7.330 -0.1490 -0.0377 -0.4810
   29MOL   C103 6319   4.947   6.869   7.472 -0.2744 -0.5339  0.1449
   29MOL   C104 6320   4.830   6.917   7.534 -0.0213  0.3897 -0.7623
   29MOL   C105 6321   4.712   6.944   7.463  0.2686  0.6047 -0.0865
   29MOL   C106 6322   4.703   6.920   7.321  0.4492  0.2711 -0.1806
   29MOL   O107 6323   4.587   6.955   7.255  0.0565  0.2504 -1.1296
   29MOL   H108 6324   4.812   6.882   7.149 -0.4285  1.3050 -0.4874
   29MOL   H109 6325   5.026   6.821   7.277  1.2996  3.7364 -0.7160
   29MOL   H110 6326   4.833   6.928   7.642 -0.5798  2.3433 -0.9284
   29MOL   H111 6327   4.631   6.986   7.520  1.7486  0.8272  1.9115
   29MOL   C112 6328   4.357   6.805   7.016  0.7025 -0.0539  0.7091
   29MOL   C113 6329   4.439   6.896   7.079  0.1577 -0.3297 -0.8868
   29MOL   C114 6330   4.516   6.856   7.192 -0.0032 -0.3472 -0.3064
   29MOL   C115 6331   4.498   6.729   7.239  0.1684 -0.1400 -0.0032
   29MOL   C116 6332   4.418   6.635   7.176 -0.1860 -0.6228 -0.5123
   29MOL   C117 6333   4.344   6.675   7.063  0.8052  0.3608  0.4280
   29MOL   O118 6334   4.256   6.585   7.009  0.0804 -0.2295 -0.0269
   29MOL   H119 6335   4.308   6.839   6.926  1.2874 -0.7484  0.1290
   29MOL   H120 6336   4.435   6.995   7.035 -2.2554 -0.3289 -0.7177
   29MOL   H121 6337   4.546   6.696   7.330  2.8136  2.5996 -0.3107
   29MOL   H122 6338   4.403   6.534   7.210 -4.5559  0.6203  1.5755
   29MOL   C123 6339   3.907   6.703   7.006 -0.0031 -0.1320  0.5937
   29MOL   C124 6340   4.042   6.671   6.961  0.3085 -0.1161 -0.3972
   29MOL   C125 6341   4.125   6.602   7.048 -0.0051 -0.3456 -0.3171
   29MOL   C126 6342   4.084   6.565   7.182 -0.1886  0.1531 -0.1842
   29MOL   C127 6343   3.956   6.607   7.227  0.0584  0.2599  0.3952
   29MOL   C128 6344   3.864   6.675   7.141 -0.1376 -0.0949 -0.8087
   29MOL   O129 6345   3.736   6.720   7.173  0.0502  0.5505  0.0375
   29MOL   H130 6346   3.839   6.749   6.936 -0.7568 -0.2733  1.2121
   29MOL   H131 6347   4.086   6.699   6.867  2.9182 -1.3743  0.4173
   29MOL   H132 6348   4.147   6.510   7.250  1.4370  0.5291 -1.3816
   29MOL   H133 6349   3.933   6.586   7.330 -0.4858 -1.2973 -0.0287
   29MOL   C134 6350   3.644   6.779   7.524 -0.1760 -0.0797  0.3961
   29MOL   C135 6351   3.658   6.716   7.402  0.0221 -0.2617 -0.0468
   29MOL   C136 6352   3.717   6.782   7.294 -0.7567 -1.2323  0.4822
   29MOL   C137 6353   3.762   6.918   7.307 -0.4459  0.2494  0.1473
   29MOL   C138 6354   3.750   6.976   7.441 -0.5847  0.0721 -0.0657
   29MOL   C139 6355   3.694   6.911   7.548  0.6355  0.0671  0.1042
   29MOL   O140 6356   3.683   6.970   7.669  0.3695 -0.2164  0.2666
   29MOL   H141 6357   3.601   6.721   7.604  2.0738  1.4092  2.7736
   29MOL   H142 6358   3.619   6.618   7.377  0.5257 -0.4283 -0.1748
   29MOL   H143 6359   3.803   6.971   7.222 -0.0566 -0.7687 -0.3060
   29MOL   H144 6360   3.785   7.077   7.456  1.0904 -0.2350 -1.7272
   29MOL   C145 6361   3.382   7.186   7.718  0.7914  0.1736 -0.3830
   29MOL   C146 6362   3.505   7.141   7.668 -0.1875 -0.1941 -0.0956
   29MOL   C147 6363   3.559   7.017   7.710 -0.7411  0.1295 -0.9694
   29MOL   C148 6364   3.490   6.953   7.818  0.2194  0.4730  0.1124
   29MOL   C149 6365   3.374   7.006   7.876 -0.1738  0.4106  0.1623
   29MOL   C150 6366   3.314   7.127   7.826 -0.4367  0.7663  0.0471
   29MOL   O151 6367   3.208   7.192   7.884 -0.0013  0.5423 -0.3824
   29MOL   H152 6368   3.351   7.283   7.681  0.1027  0.6236  1.3152
   29MOL   H153 6369   3.565   7.207   7.607  2.0386 -3.3097 -1.4383
   29MOL   H154 6370   3.529   6.865   7.867 -1.2114  1.1857  2.6344
   29MOL   H155 6371   3.328   6.955   7.959 -0.2068  1.3317  0.7145
   29MOL   C156 6372   3.314   7.436   8.150 -0.8444 -0.2505 -0.3521
   29MOL   C157 6373   3.268   7.382   8.021  0.3174 -0.5883 -0.1190
   29MOL   C158 6374   3.230   7.244   8.013  0.3739 -0.6159  0.8794
   29MOL   C159 6375   3.210   7.174   8.137  0.1381  0.4493 -0.8184
   29MOL   C160 6376   3.240   7.232   0.009  0.6871  0.0980 -0.3480
   29MOL   C161 6377   3.301   7.362   0.013  0.0839  0.2250 -0.0868
   29MOL   O162 6378   3.350   7.408   0.128 -0.4064 -0.3097  0.2622
   29MOL   H163 6379   3.360   7.533   8.140 -3.0725  0.9212  0.3308
   29MOL   H164 6380   3.286   7.441   7.933  3.1624 -1.4791 -0.1702
   29MOL   H165 6381   3.159   7.079   8.128 -0.9122  0.9155  0.1563
   29MOL   H166 6382   3.242   7.181   0.103  0.5144 -1.4340 -1.1582
   29MOL   C167 6383   3.181   7.342   0.450  0.9123  0.1749  0.5756
   29MOL   C168 6384   3.266   7.324   0.339  0.2613  0.2836  1.1992
   29MOL   C169 6385   3.264   7.415   0.232  0.3669 -0.3450  0.0104
   29MOL   C170 6386   3.180   7.524   0.243 -0.8831 -0.2874  0.3849
   29MOL   C171 6387   3.092   7.542   0.356  0.0369 -0.4856 -0.0597
   29MOL   C172 6388   3.094   7.447   0.461  0.2144  0.7303 -0.9969
   29MOL   O173 6389   3.036   7.464   0.582 -0.1327 -0.1943  0.1666
   29MOL   H174 6390   3.192   7.281   0.539 -1.5629 -1.1811 -0.0151
   29MOL   H175 6391   3.326   7.234   0.338 -1.3104 -0.8265  3.7601
   29MOL   H176 6392   3.188   7.595   0.161  2.3331 -1.3771 -0.3161
   29MOL   H177 6393   3.023   7.625   0.357  2.6420  1.7620  0.0893
   29MOL   C178 6394   2.974   7.805   0.703 -0.1055 -0.1097 -0.0891
   29MOL   C179 6395   3.050   7.687   0.675  0.4161  0.4111  0.0784
   29MOL   C180 6396   2.978   7.587   0.612 -0.2707 -0.4231 -0.0520
   29MOL   C181 6397   2.843   7.601   0.579  0.5352 -0.2590  0.8667
   29MOL   C182 6398   2.770   7.717   0.606  0.3913  0.2073 -0.6575
   29MOL   C183 6399   2.837   7.819   0.664  0.5900 -0.7811 -0.2964
   29MOL   O184 6400   2.768   7.935   0.690  0.0572  0.7364  0.2015
   29MOL   H185 6401   3.025   7.885   0.754 -0.7046  0.9511 -1.1387
   29MOL   H186 6402   3.155   7.673   0.696  0.3520 -0.8722 -0.3917
   29MOL   H187 6403   2.790   7.521   0.528  1.1201 -0.3001  0.3136
   29MOL   H188 6404   2.664   7.727   0.589  0.3731 -1.0248 -1.3051
   29MOL   C189 6405   2.689   7.930   1.047  0.7611 -0.0443 -0.5804
   29MOL   C190 6406   2.681   7.892   0.911  1.0527 -0.5218 -0.0161
   29MOL   C191 6407   2.748   7.971   0.818 -0.5564 -0.0600 -0.1816
   29MOL   C192 6408   2.810   8.089   0.863  0.6639 -0.1199 -0.5423
   29MOL   C193 6409   2.810   8.126   0.994  0.1791 -0.2386 -0.1383
   29MOL   C194 6410   2.753   8.046   1.091 -0.1605  0.1360 -0.0672
   29MOL   O195 6411   2.740   8.084   1.223 -0.5942  0.4795  0.1270
   29MOL   H196 6412   2.636   7.870   1.120  0.1384  1.7524  0.4802
   29MOL   H197 6413   2.637   7.798   0.879  0.5423  0.2315 -1.5299
   29MOL   H198 6414   2.854   8.153   0.788 -0.7907  1.6244  0.0602
   29MOL   H199 6415   2.848   8.225   1.017 -0.0136 -0.9691  3.7562
   29MOL   C200 6416   3.008   0.015   1.392  0.2521 -0.0690 -0.1643
   29MOL   C201 6417   2.898   8.240   1.309  0.0189  0.5461 -0.1400
   29MOL   C202 6418   2.857   8.109   1.290  0.6534  0.4781 -0.1545
   29MOL   C203 6419   2.921   8.003   1.356 -0.3923 -0.0181  0.3881
   29MOL   C204 6420   3.039   8.033   1.436 -0.4549 -0.2659 -0.2215
   29MOL   C205 6421   3.081   8.164   1.456 -0.4333 -0.6150  0.6822
   29MOL   O206 6422   3.203   8.183   1.522 -0.3143 -0.4582  0.1767
   29MOL   H207 6423   3.032   0.120   1.399 -1.5199  0.5134 -2.1121
   29MOL   H208 6424   2.847   0.064   1.255 -1.0912 -0.2176 -0.2265
   29MOL   H209 6425   2.892   7.904   1.326 -0.9888 -0.3117  1.9287
   29MOL   H210 6426   3.102   7.955   1.476  0.2655  0.3665 -0.1214
   29MOL   C211 6427   3.473   0.141   1.385 -0.5951  0.1108  0.3365
   29MOL   C212 6428   3.368   0.100   1.475 -0.0334 -0.6642  0.1502
   29MOL   C213 6429   3.299   8.236   1.442  0.5784 -0.0212  0.5639
   29MOL   C214 6430   3.334   8.161   1.330 -0.4335  0.0073  0.4732
   29MOL   C215 6431   3.438   8.201   1.245 -0.3579 -0.1664  0.0971
   29MOL   C216 6432   3.506   0.065   1.272  0.1344 -0.1808 -0.1082
   29MOL   O217 6433   3.594   0.110   1.176  0.3091 -0.0370 -0.0737
   29MOL   H218 6434   3.529   0.230   1.408 -1.1256  0.8599 -1.2373
   29MOL   H219 6435   3.360   0.145   1.573  1.3770 -2.0485  0.9394
   29MOL   H220 6436   3.274   8.074   1.310  0.1719 -0.0646 -1.1016
   29MOL   H221 6437   3.439   8.150   1.150  1.0071 -1.4097  0.7707
   29MOL   H222 6438   3.642   0.187   1.202  0.1211  0.2777 -0.6548
   30MOL     C1 6439   6.860   1.144   5.674 -0.5407  0.0539 -0.4108
   30MOL     C2 6440   6.807   1.143   5.807  0.0144 -0.4018  0.0871
   30MOL     C3 6441   6.776   1.271   5.867 -0.5560 -0.2619  0.1788
   30MOL     C4 6442   6.784   1.392   5.789 -0.3250  0.7316  0.1973
   30MOL     C5 6443   6.852   1.384   5.663 -0.3345  0.5566  0.4461
   30MOL     C6 6444   6.898   1.262   5.606 -0.4087 -0.3703  0.1856
   30MOL     O7 6445   6.960   1.271   5.484 -0.0875  0.6433 -0.5757
   30MOL     H8 6446   6.883   1.050   5.626 -0.5714 -0.5575  0.7521
   30MOL     H9 6447   6.794   1.054   5.865  0.2063 -0.4262  0.0924
   30MOL    H10 6448   6.748   1.484   5.831 -1.6103 -0.1693  1.0998
   30MOL    H11 6449   6.871   1.471   5.602  1.6073 -1.8373 -2.5058
   30MOL    H12 6450   6.733   1.270   5.965  1.7659  1.0163  1.2452
   30MOL    C13 6451   7.332   1.304   5.499 -0.0581  0.2563  0.2348
   30MOL    C14 6452   7.192   1.328   5.508 -0.2440 -0.6765  0.6034
   30MOL    C15 6453   7.092   1.231   5.483  0.1979 -0.6690  1.0677
   30MOL    C16 6454   7.134   1.103   5.438 -0.1998 -0.7892  0.6407
   30MOL    C17 6455   7.268   1.069   5.435  0.5175 -0.6113 -0.6966
   30MOL    C18 6456   7.370   1.169   5.464 -0.3302  0.3703  0.2902
   30MOL    O19 6457   7.505   1.127   5.462  0.9122  0.4963 -0.0846
   30MOL    H20 6458   7.404   1.383   5.518  0.4041 -0.5485  1.8348
   30MOL    H21 6459   7.168   1.429   5.539  1.1197  0.3310 -1.5338
   30MOL    H22 6460   7.063   1.025   5.415  1.0233 -1.8434  0.4405
   30MOL    H23 6461   7.299   0.969   5.406  0.3279 -1.2620  1.3074
   30MOL    C24 6462   7.574   1.205   5.813  0.7343  0.2038  0.3913
   30MOL    C25 6463   7.509   1.151   5.703 -0.8120 -0.2523  0.3579
   30MOL    C26 6464   7.575   1.145   5.574  0.6163 -0.0365 -0.0822
   30MOL    C27 6465   7.718   1.169   5.574  0.6996 -0.0858  0.4244
   30MOL    C28 6466   7.770   1.243   5.684 -0.3961  0.0352 -0.5442
   30MOL    C29 6467   7.702   1.256   5.808 -0.8357  0.6253  0.3026
   30MOL    O30 6468   7.767   1.313   5.913 -0.4602 -0.0301  0.2110
   30MOL    H31 6469   7.525   1.214   5.909  0.9839  0.2933  0.5112
   30MOL    H32 6470   7.403   1.132   5.712 -0.6697 -1.1704  0.1462
   30MOL    H33 6471   7.770   1.147   5.482 -0.1361 -0.7953  0.1163
   30MOL    H34 6472   7.870   1.284   5.685 -0.2764 -0.2260 -1.2999
   30MOL    C35 6473   7.609   1.645   5.970 -0.3820 -0.7580 -0.2320
   30MOL    C36 6474   7.627   1.505   5.961 -0.4519  0.6433 -0.8344
   30MOL    C37 6475   7.750   1.448   5.918  0.1860  0.3518 -0.0452
   30MOL    C38 6476   7.862   1.537   5.883 -0.1346 -0.0700  0.7015
   30MOL    C39 6477   7.837   1.674   5.878 -0.0260  0.3339  1.1539
   30MOL    C40 6478   7.714   1.729   5.924  0.1393  0.3347 -0.6076
   30MOL    O41 6479   7.681   1.862   5.925 -0.0630 -0.4984 -0.7331
   30MOL    H42 6480   7.518   1.684   6.011  0.7615  1.4548  0.2884
   30MOL    H43 6481   7.549   1.438   5.995  1.7393 -1.4232  0.3111
   30MOL    H44 6482   7.959   1.501   5.852 -1.2358 -2.1695 -0.3723
   30MOL    H45 6483   7.921   1.738   5.856  2.0347 -2.9768 -0.9883
   30MOL    C46 6484   7.704   2.008   6.265 -0.3290  0.2016 -0.0832
   30MOL    C47 6485   7.647   1.934   6.157 -0.0740 -0.6758 -0.4477
   30MOL    C48 6486   7.726   1.932   6.037  0.2060  0.9283 -0.0196
   30MOL    C49 6487   7.857   1.991   6.035  0.5628 -0.1800  0.1034
   30MOL    C50 6488   7.904   2.065   6.143  0.3248 -0.6890 -0.5506
   30MOL    C51 6489   7.828   2.076   6.262 -0.2033  0.1775  0.4056
   30MOL    O52 6490   7.867   2.158   6.364 -0.5141  0.2997  0.2556
   30MOL    H53 6491   7.650   2.010   6.358 -0.2474 -1.4321  0.0083
   30MOL    H54 6492   7.556   1.877   6.168 -0.5525  0.3769  1.3056
   30MOL    H55 6493   7.917   1.971   5.947  2.7398  1.2726  1.2309
   30MOL    H56 6494   8.004   2.104   6.134 -0.4174  1.3870 -0.0418
   30MOL    C57 6495   7.635   2.391   6.517  0.2617  0.0971  0.3984
   30MOL    C58 6496   7.706   2.277   6.491  0.4717  0.4890  0.0843
   30MOL    C59 6497   7.801   2.270   6.385 -0.3006  0.5747  0.5015
   30MOL    C60 6498   7.828   2.386   6.316  0.0887  0.0628  0.5868
   30MOL    C61 6499   7.758   2.500   6.340  0.2405  0.4059 -0.0172
   30MOL    C62 6500   7.656   2.503   6.441  0.6059 -0.1804 -0.5536
   30MOL    O63 6501   7.582   2.617   6.468  0.4579 -0.0974 -0.0678
   30MOL    H64 6502   7.553   2.392   6.588  1.3203  0.0604  1.6406
   30MOL    H65 6503   7.687   2.186   6.545  2.7878  0.7180  1.3613
   30MOL    H66 6504   7.908   2.394   6.243  0.0273  1.7589  0.6926
   30MOL    H67 6505   7.790   2.589   6.288 -3.9292  1.3871 -1.0953
   30MOL    C68 6506   7.545   2.791   6.791 -0.4858 -0.1975  0.2953
   30MOL    C69 6507   7.508   2.714   6.680 -0.3871  0.3178  0.0967
   30MOL    C70 6508   7.606   2.696   6.576  0.3834 -0.6201 -0.4244
   30MOL    C71 6509   7.729   2.761   6.592 -0.4966 -0.2196  0.3883
   30MOL    C72 6510   7.763   2.838   6.703  0.0837 -0.0142  0.5457
   30MOL    C73 6511   7.669   2.857   6.801  0.3159 -0.4267  0.1429
   30MOL    O74 6512   7.698   2.941   6.912  0.6102 -0.2343 -0.1794
   30MOL    H75 6513   7.471   2.793   6.870  0.7048 -1.4249  1.4724
   30MOL    H76 6514   7.408   2.675   6.678  0.3244 -1.6947  1.3519
   30MOL    H77 6515   7.803   2.748   6.514  0.1943 -1.0210  1.1467
   30MOL    H78 6516   7.864   2.876   6.708  0.9653 -1.6777 -3.3354
   30MOL    C79 6517   7.903   3.238   6.878  0.3941  0.2006  0.7275
   30MOL    C80 6518   7.865   3.108   6.912 -0.5287  0.4029 -0.6285
   30MOL    C81 6519   7.734   3.064   6.886  0.0561 -0.2372  0.1858
   30MOL    C82 6520   7.638   3.150   6.826 -0.5572  0.5731 -0.3266
   30MOL    C83 6521   7.677   3.278   6.781  0.3524  0.5134 -0.1913
   30MOL    C84 6522   7.807   3.326   6.812 -0.7153  0.3676 -0.1533
   30MOL    O85 6523   7.851   3.459   6.786  0.1688  0.6997  0.1203
   30MOL    H86 6524   8.000   3.276   6.909 -0.1455  1.6773  0.6524
   30MOL    H87 6525   7.930   3.049   6.975  0.9556  3.6149  0.9730
   30MOL    H88 6526   7.540   3.111   6.803  0.3320 -1.6135 -0.5419
   30MOL    H89 6527   7.598   3.331   6.730 -1.6204  0.0746  2.3121
   30MOL    C90 6528   7.657   3.739   6.670 -0.2808 -0.2103  0.4538
   30MOL    C91 6529   7.741   3.620   6.664 -0.4744  0.2242 -1.1180
   30MOL    C92 6530   7.769   3.561   6.784  0.2052  0.5674  0.4678
   30MOL    C93 6531   7.723   3.614   6.905  0.3659  0.3600  0.4891
   30MOL    C94 6532   7.651   3.732   6.910  0.5072 -0.0894 -0.4715
   30MOL    C95 6533   7.611   3.793   6.790  0.6182 -0.6477  0.4036
   30MOL    O96 6534   7.540   3.915   6.785 -0.5562 -0.5093 -0.2813
   30MOL    H97 6535   7.631   3.789   6.577 -1.5306 -0.6627  0.5443
   30MOL    H98 6536   7.774   3.588   6.566  0.2466 -0.2058 -0.7331
   30MOL    H99 6537   7.737   3.557   6.995  0.2895 -1.7869 -0.8140
   30MOL   H100 6538   7.612   3.771   7.003  0.3122  0.3776 -0.7480
   30MOL   C101 6539   7.180   3.826   6.727 -0.0770  0.5438 -0.5169
   30MOL   C102 6540   7.320   3.819   6.727  0.0221  0.4272  0.3137
   30MOL   C103 6541   7.402   3.922   6.769  0.9733 -0.1730  0.0925
   30MOL   C104 6542   7.339   4.040   6.817 -0.0440  0.7052  0.3986
   30MOL   C105 6543   7.199   4.054   6.816 -0.3239  0.5736  0.0552
   30MOL   C106 6544   7.123   3.947   6.771 -0.7675 -0.4472 -0.5149
   30MOL   O107 6545   6.991   3.954   6.759  0.3441  0.7649  0.4653
   30MOL   H108 6546   7.118   3.743   6.695  0.0263 -0.5219  1.8933
   30MOL   H109 6547   7.356   3.718   6.714  0.4776  0.7202 -0.7272
   30MOL   H110 6548   7.381   4.134   6.850 -3.9402  2.8586 -0.4924
   30MOL   H111 6549   7.160   4.151   6.844 -0.6009  0.7303 -0.8753
   30MOL   C112 6550   6.761   3.973   7.043 -0.7658 -0.1782  0.4221
   30MOL   C113 6551   6.846   4.017   6.938  0.3576 -0.1441  0.5304
   30MOL   C114 6552   6.910   3.920   6.864 -0.3409 -0.0020 -0.2328
   30MOL   C115 6553   6.884   3.785   6.887  0.0210 -0.0233  0.5388
   30MOL   C116 6554   6.803   3.745   6.992 -0.0352  0.1919 -0.5921
   30MOL   C117 6555   6.732   3.838   7.067  0.5852  0.3599  0.2588
   30MOL   O118 6556   6.642   3.800   7.164 -0.2460  0.2923 -0.3633
   30MOL   H119 6557   6.711   4.048   7.103 -2.1173  1.3622 -2.5125
   30MOL   H120 6558   6.875   4.120   6.927  1.4467 -0.5379 -0.3467
   30MOL   H121 6559   6.936   3.712   6.827 -1.0653 -0.5467  0.2263
   30MOL   H122 6560   6.804   3.641   7.022  2.0260  0.3780  0.0959
   30MOL   C123 6561   6.286   3.740   7.137 -0.3274 -0.0441 -0.0485
   30MOL   C124 6562   6.401   3.811   7.154 -0.6259 -1.1329  0.2541
   30MOL   C125 6563   6.524   3.741   7.130  0.0919  0.0116 -0.0519
   30MOL   C126 6564   6.521   3.613   7.080 -0.5696  0.3834  0.2199
   30MOL   C127 6565   6.404   3.547   7.052 -0.5375 -0.0424  0.0136
   30MOL   C128 6566   6.285   3.610   7.094 -0.1128 -0.4437  0.4138
   30MOL   O129 6567   6.171   3.537   7.095  0.1534 -0.4736  0.7898
   30MOL   H130 6568   6.189   3.779   7.166 -0.3012  0.4585 -0.6450
   30MOL   H131 6569   6.402   3.908   7.201 -0.7697 -0.0443 -1.9413
   30MOL   H132 6570   6.611   3.556   7.058 -2.2425 -1.7168 -1.4290
   30MOL   H133 6571   6.416   3.453   7.001 -1.2689  0.8279 -1.8111
   30MOL   C134 6572   6.209   3.256   7.336  0.7699  0.4103 -0.4733
   30MOL   C135 6573   6.204   3.388   7.290 -0.5259 -0.1880  0.2166
   30MOL   C136 6574   6.175   3.414   7.152  0.1487 -0.0454  0.0406
   30MOL   C137 6575   6.154   3.305   7.064 -0.2805  0.5081  0.5094
   30MOL   C138 6576   6.151   3.169   7.116 -0.2517 -0.7960  0.3537
   30MOL   C139 6577   6.183   3.144   7.253  0.6475  0.1119  0.3802
   30MOL   O140 6578   6.202   3.017   7.297  0.6222 -0.1547  0.2162
   30MOL   H141 6579   6.226   3.257   7.443  0.6032  1.4245 -0.4537
   30MOL   H142 6580   6.231   3.469   7.356 -1.2084 -0.6365  1.0550
   30MOL   H143 6581   6.136   3.326   6.959  0.2205 -0.9350  0.1137
   30MOL   H144 6582   6.116   3.086   7.057 -1.8734  1.3300 -1.8112
   30MOL   C145 6583   6.427   2.920   7.567  0.8165  0.3391 -0.8237
   30MOL   C146 6584   6.310   2.965   7.501 -0.2045 -0.7959  0.2251
   30MOL   C147 6585   6.310   2.990   7.362 -0.9101  0.4518  0.3410
   30MOL   C148 6586   6.429   2.981   7.295 -0.0908 -0.8902 -0.0400
   30MOL   C149 6587   6.542   2.929   7.356  0.3107  0.3216 -0.2779
   30MOL   C150 6588   6.542   2.901   7.494  0.0192 -0.6041  1.3082
   30MOL   O151 6589   6.663   2.867   7.554 -0.0017 -0.0157 -0.5651
   30MOL   H152 6590   6.421   2.900   7.673 -2.0144  0.3926 -0.9248
   30MOL   H153 6591   6.218   2.983   7.555 -0.6819  0.4336 -0.9716
   30MOL   H154 6592   6.421   2.991   7.188  0.5947 -2.2129 -0.2291
   30MOL   H155 6593   6.631   2.904   7.300  0.4256  1.7839 -0.7522
   30MOL   C156 6594   6.628   2.652   7.852 -0.3466 -0.0380  0.7496
   30MOL   C157 6595   6.623   2.765   7.768  0.2474  0.5553 -0.3248
   30MOL   C158 6596   6.655   2.757   7.635 -0.2444 -0.4226  0.0577
   30MOL   C159 6597   6.683   2.632   7.573  0.3657  0.3329 -0.1259
   30MOL   C160 6598   6.704   2.515   7.657  0.2716 -0.8680  0.1114
   30MOL   C161 6599   6.679   2.528   7.793 -0.3839 -0.7768 -0.0637
   30MOL   O162 6600   6.704   2.425   7.884  0.4860 -0.3630  0.0898
   30MOL   H163 6601   6.610   2.659   7.958 -1.1670  1.4383  0.5192
   30MOL   H164 6602   6.606   2.864   7.808  0.6470  0.3391  0.3793
   30MOL   H165 6603   6.707   2.623   7.469 -3.0274  0.6252 -0.9931
   30MOL   H166 6604   6.741   2.423   7.613  2.9664 -0.4008  1.2721
   30MOL   C167 6605   6.606   2.081   7.971  0.5271 -0.3292  0.0053
   30MOL   C168 6606   6.681   2.193   7.938  0.1926  0.0190 -1.1861
   30MOL   C169 6607   6.622   2.315   7.897  0.5003  0.5537 -0.3179
   30MOL   C170 6608   6.488   2.307   7.851  0.4432  0.8487  0.1288
   30MOL   C171 6609   6.409   2.189   7.877 -0.2526  0.5701  0.4215
   30MOL   C172 6610   6.467   2.077   7.939 -0.2440 -0.1995  0.0181
   30MOL   O173 6611   6.400   1.969   7.963  0.5296  0.1967  0.1294
   30MOL   H174 6612   6.659   1.992   8.001  0.6233 -0.5961 -0.9364
   30MOL   H175 6613   6.787   2.203   7.960  0.5216 -1.8086 -1.8522
   30MOL   H176 6614   6.447   2.390   7.795  1.0988  0.1140 -1.4640
   30MOL   H177 6615   6.307   2.185   7.842  0.2888  0.1835 -1.1216
   30MOL   C178 6616   6.392   1.945   0.077 -0.3573 -0.3682 -0.4680
   30MOL   C179 6617   6.397   1.998   8.201 -1.0909  0.2402 -0.6575
   30MOL   C180 6618   6.384   1.921   8.088 -0.3931  0.1529 -0.5240
   30MOL   C181 6619   6.356   1.784   8.109  0.1700  0.3205  0.2188
   30MOL   C182 6620   6.352   1.726   8.237 -0.5673  0.6709  0.5352
   30MOL   C183 6621   6.367   1.805   0.092  0.2150  0.2724 -0.0834
   30MOL   O184 6622   6.357   1.752   0.216 -0.1959 -0.2768 -0.2413
   30MOL   H185 6623   6.405   2.007   0.164 -1.3136  0.5710 -0.9770
   30MOL   H186 6624   6.417   2.104   8.196  0.5155 -0.0314 -0.4089
   30MOL   H187 6625   6.331   1.731   8.018  0.5866 -0.2863  0.4512
   30MOL   H188 6626   6.328   1.622   8.247 -0.6417  0.2067 -3.4899
   30MOL   C189 6627   6.154   1.747   0.518 -0.2358  0.4096 -0.5130
   30MOL   C190 6628   6.265   1.727   0.431  0.4022  0.3101 -0.4596
   30MOL   C191 6629   6.255   1.790   0.305  0.7612 -0.4293 -0.2710
   30MOL   C192 6630   6.144   1.865   0.264  0.7163 -0.7944 -0.0695
   30MOL   C193 6631   6.041   1.880   0.353  0.6250  0.1105  0.5877
   30MOL   C194 6632   6.037   1.825   0.480 -0.6439 -0.4145 -0.4325
   30MOL   O195 6633   5.934   1.837   0.565  0.0285  0.2611  0.4152
   30MOL   H196 6634   6.156   1.691   0.610 -0.4198 -2.6123 -2.3036
   30MOL   H197 6635   6.357   1.679   0.460  0.1080 -0.7009 -1.1307
   30MOL   H198 6636   6.134   1.903   0.163 -2.7191 -1.5996 -0.0829
   30MOL   H199 6637   5.962   1.946   0.321  1.1117 -0.2559 -1.4414
   30MOL   C200 6638   5.788   2.139   0.731 -0.9017 -0.3532  0.1637
   30MOL   C201 6639   5.803   2.026   0.639  0.2325  0.0982 -0.0876
   30MOL   C202 6640   5.924   1.951   0.641  0.1604  0.1617 -0.0471
   30MOL   C203 6641   6.031   1.995   0.718  0.8568  1.0224  0.2148
   30MOL   C204 6642   6.017   2.104   0.807  0.5636  0.5985 -0.6801
   30MOL   C205 6643   5.897   2.177   0.816  0.6518  0.1589 -0.0918
   30MOL   O206 6644   5.875   2.282   0.908 -0.6375 -0.3864  0.2705
   30MOL   H207 6645   5.695   2.190   0.751  0.9905  3.0870  0.5561
   30MOL   H208 6646   5.721   1.984   0.583 -0.7421  0.4288  1.0909
   30MOL   H209 6647   6.124   1.942   0.728  0.4111  0.4908  1.7602
   30MOL   H210 6648   6.099   2.122   0.874  2.0514  1.7626 -2.7409
   30MOL   C211 6649   5.625   2.167   1.149  0.2837  0.2128 -0.0091
   30MOL   C212 6650   5.741   2.179   1.075  0.0271 -0.0101 -0.0402
   30MOL   C213 6651   5.755   2.276   0.975 -0.0541 -0.0944  0.0437
   30MOL   C214 6652   5.648   2.361   0.940  0.4020 -0.4456 -0.7224
   30MOL   C215 6653   5.530   2.352   1.015 -0.2975  0.1689  0.4002
   30MOL   C216 6654   5.525   2.256   1.117 -0.7935 -0.0312  0.0361
   30MOL   O217 6655   5.410   2.232   1.176 -0.2317  0.0912 -0.1243
   30MOL   H218 6656   5.623   2.080   1.212 -2.2238  0.1673 -0.0921
   30MOL   H219 6657   5.826   2.116   1.097  2.3495  1.8906 -3.1681
   30MOL   H220 6658   5.672   2.438   0.868  0.7119  0.7029  0.5795
   30MOL   H221 6659   5.445   2.415   0.992 -0.0521  0.3178 -0.1105
   30MOL   H222 6660   5.418   2.143   1.207  2.5665  0.2545 -0.2921
   31MOL     C1 6661   7.577   3.391   1.581  0.2953  0.3458 -0.1244
   31MOL     C2 6662   7.666   3.331   1.485  0.2428 -0.0505 -0.4893
   31MOL     C3 6663   7.738   3.408   1.388  0.3386  0.4573 -0.0471
   31MOL     C4 6664   7.720   3.549   1.388  0.4073  0.0934  0.5318
   31MOL     C5 6665   7.643   3.608   1.489 -0.0414 -0.2326 -0.5835
   31MOL     C6 6666   7.571   3.534   1.584 -0.7993 -0.6694 -0.2299
   31MOL     O7 6667   7.501   3.598   1.677 -0.5337  0.2393  0.1830
   31MOL     H8 6668   7.534   3.336   1.664  1.2283 -1.9016 -1.0789
   31MOL     H9 6669   7.666   3.224   1.497 -3.1741  0.0639  1.2484
   31MOL    H10 6670   7.774   3.601   1.309  1.4174  0.5557  1.5202
   31MOL    H11 6671   7.639   3.716   1.492 -0.6199 -0.3032  3.4500
   31MOL    H12 6672   7.793   3.351   1.315  0.2078 -0.8887  0.8733
   31MOL    C13 6673   7.171   3.667   1.519 -0.2709 -0.2450  0.1082
   31MOL    C14 6674   7.314   3.652   1.525  0.1556  0.7899  0.2045
   31MOL    C15 6675   7.367   3.621   1.652  0.8524 -0.0874 -0.2329
   31MOL    C16 6676   7.285   3.604   1.770  0.7657 -0.2308 -0.2810
   31MOL    C17 6677   7.145   3.630   1.759  1.1387  0.5748 -0.1192
   31MOL    C18 6678   7.088   3.669   1.634  0.1181 -0.1997  0.3476
   31MOL    O19 6679   6.962   3.712   1.613  0.2287 -0.7232  0.3862
   31MOL    H20 6680   7.122   3.707   1.432 -2.0634 -0.7789  0.8509
   31MOL    H21 6681   7.381   3.656   1.441  0.5237 -0.3508  0.4320
   31MOL    H22 6682   7.320   3.572   1.867 -2.0615 -0.1736  0.7962
   31MOL    H23 6683   7.074   3.616   1.840 -0.2778  1.8371 -1.1082
   31MOL    C24 6684   6.739   3.413   1.645 -0.3966 -0.1822 -0.1677
   31MOL    C25 6685   6.842   3.501   1.594 -0.1980  0.3462  0.1110
   31MOL    C26 6686   6.858   3.629   1.644 -0.0268  0.0006 -0.0823
   31MOL    C27 6687   6.756   3.679   1.730 -0.4352 -0.5143  0.4315
   31MOL    C28 6688   6.649   3.595   1.773 -0.5584 -0.0074 -0.6686
   31MOL    C29 6689   6.640   3.460   1.736  1.0647 -0.5224  0.1228
   31MOL    O30 6690   6.546   3.379   1.787  0.1701  0.1332 -0.0329
   31MOL    H31 6691   6.744   3.312   1.608  0.0824 -0.3052  0.2310
   31MOL    H32 6692   6.904   3.459   1.516 -1.6606  0.4956 -1.1460
   31MOL    H33 6693   6.776   3.768   1.787  0.4516 -0.2140 -0.3233
   31MOL    H34 6694   6.582   3.621   1.854  0.2801  0.5022 -0.1345
   31MOL    C35 6695   6.295   3.290   1.522  0.2128  0.1123  0.1982
   31MOL    C36 6696   6.419   3.309   1.589 -0.5508  0.2508 -0.1512
   31MOL    C37 6697   6.425   3.364   1.720 -0.4085 -0.5426 -0.0547
   31MOL    C38 6698   6.304   3.391   1.784  0.0184  0.3725  0.0829
   31MOL    C39 6699   6.177   3.376   1.716 -0.4699 -0.0489 -0.2219
   31MOL    C40 6700   6.170   3.328   1.585  0.4095  0.4172  0.4296
   31MOL    O41 6701   6.045   3.331   1.526 -0.0648  0.1264  0.0103
   31MOL    H42 6702   6.300   3.256   1.419  1.5330  0.1080  0.2561
   31MOL    H43 6703   6.502   3.259   1.541 -0.9727  0.7006 -1.3670
   31MOL    H44 6704   6.304   3.423   1.887  1.5056 -2.5280  1.0429
   31MOL    H45 6705   6.085   3.413   1.759 -0.7024 -0.0533 -0.7206
   31MOL    C46 6706   6.038   3.062   1.276  0.1682 -0.1995  0.6209
   31MOL    C47 6707   6.044   3.129   1.401  1.0444 -0.0772 -0.3332
   31MOL    C48 6708   6.029   3.271   1.402  0.0208 -0.1347 -0.1745
   31MOL    C49 6709   6.015   3.337   1.280 -0.6581 -0.4402 -0.3549
   31MOL    C50 6710   6.022   3.270   1.155  0.7234  0.5957  0.0279
   31MOL    C51 6711   6.036   3.131   1.153 -0.5705  0.0224  0.2221
   31MOL    O52 6712   6.037   3.064   1.034 -0.0875 -0.4563 -1.4005
   31MOL    H53 6713   6.049   2.955   1.275  1.0834 -0.1109  0.3251
   31MOL    H54 6714   6.059   3.072   1.491 -1.7940  1.6970  1.3357
   31MOL    H55 6715   5.994   3.443   1.274  1.6812 -0.0060 -1.8730
   31MOL    H56 6716   6.011   3.336   1.071  1.1365  0.7951  0.1299
   31MOL    C57 6717   5.704   2.917   0.965 -0.2562 -0.6341  0.1537
   31MOL    C58 6718   5.805   3.010   0.992 -0.1228 -0.2685  0.6880
   31MOL    C59 6719   5.940   2.969   1.006  0.3196  0.6822  0.1689
   31MOL    C60 6720   5.977   2.834   0.997  0.2925 -0.7308  0.0710
   31MOL    C61 6721   5.874   2.737   0.974 -0.7357  0.3145 -0.1722
   31MOL    C62 6722   5.739   2.776   0.956 -0.3187 -0.5664  0.1599
   31MOL    O63 6723   5.649   2.677   0.937  1.0233  0.1178  0.6053
   31MOL    H64 6724   5.606   2.961   0.953 -1.4690 -2.8734  1.5886
   31MOL    H65 6725   5.791   3.116   0.978  0.1374 -0.3816 -0.5223
   31MOL    H66 6726   6.083   2.817   1.004  0.6589 -0.5875 -4.0704
   31MOL    H67 6727   5.910   2.637   0.960 -0.4765  0.1304  1.7342
   31MOL    C68 6728   5.331   2.762   1.113 -1.0593 -0.1772  0.4308
   31MOL    C69 6729   5.467   2.731   1.090  0.6176 -0.2289  0.5819
   31MOL    C70 6730   5.517   2.705   0.959  0.5884 -0.1349  0.0069
   31MOL    C71 6731   5.420   2.705   0.856  0.2639 -0.0216 -0.3033
   31MOL    C72 6732   5.286   2.731   0.879 -0.1558  0.0288 -0.0747
   31MOL    C73 6733   5.243   2.758   1.011 -0.0061  0.4536 -0.1809
   31MOL    O74 6734   5.111   2.772   1.042  0.0593 -0.1987  0.1751
   31MOL    H75 6735   5.297   2.796   1.210  1.0526  2.4819  0.3102
   31MOL    H76 6736   5.532   2.723   1.176  1.1678 -2.1384  0.0098
   31MOL    H77 6737   5.450   2.690   0.753 -2.5344 -3.3904 -0.7111
   31MOL    H78 6738   5.211   2.726   0.802 -0.3247 -0.0735  0.0945
   31MOL    C79 6739   4.921   2.459   0.986  0.1508  0.1355 -0.1741
   31MOL    C80 6740   5.011   2.553   1.051  0.1440  0.7092  0.4727
   31MOL    C81 6741   5.032   2.680   0.992  0.3425  0.2649 -0.0021
   31MOL    C82 6742   4.970   2.707   0.870  0.5334  0.3985  0.9317
   31MOL    C83 6743   4.883   2.620   0.809 -0.4256 -0.2230  0.3518
   31MOL    C84 6744   4.852   2.495   0.871 -0.6765 -0.4595 -0.1139
   31MOL    O85 6745   4.759   2.416   0.815  0.7289  0.3703 -0.0872
   31MOL    H86 6746   4.896   2.367   1.036  2.7437 -0.7899 -0.4690
   31MOL    H87 6747   5.055   2.531   1.147 -0.6241  0.9428  0.8819
   31MOL    H88 6748   4.983   2.803   0.822  0.8192  1.1291  2.4203
   31MOL    H89 6749   4.844   2.644   0.711 -0.0225  1.3034  0.5665
   31MOL    C90 6750   4.442   2.504   0.647  0.1487  0.4273  0.2889
   31MOL    C91 6751   4.568   2.448   0.672 -0.1537  0.7103  0.3083
   31MOL    C92 6752   4.632   2.461   0.796  0.1576  0.7094 -0.5015
   31MOL    C93 6753   4.556   2.521   0.902  0.3326 -0.1594  0.1362
   31MOL    C94 6754   4.424   2.581   0.871 -0.8464  0.5825  0.2575
   31MOL    C95 6755   4.371   2.573   0.744 -0.2321  0.3203  0.5015
   31MOL    O96 6756   4.257   2.642   0.724 -0.3255 -0.1856  0.1028
   31MOL    H97 6757   4.412   2.512   0.544  2.4026 -1.3464 -0.5389
   31MOL    H98 6758   4.625   2.397   0.595  1.5957  1.1639  1.2804
   31MOL    H99 6759   4.588   2.525   1.005 -0.4537 -2.3011  0.4929
   31MOL   H100 6760   4.364   2.620   0.951 -0.4745 -1.7487  1.7348
   31MOL   C101 6761   3.952   2.441   0.802 -0.2683 -0.2299 -0.8192
   31MOL   C102 6762   4.091   2.477   0.809 -0.0974  0.5276  0.8016
   31MOL   C103 6763   4.132   2.581   0.726 -0.1258  0.1583 -0.3461
   31MOL   C104 6764   4.033   2.642   0.641 -0.2489  0.4319  0.2594
   31MOL   C105 6765   3.898   2.599   0.635  0.1882 -0.4781 -0.4568
   31MOL   C106 6766   3.860   2.500   0.721  0.1383 -0.6405 -0.2588
   31MOL   O107 6767   3.725   2.464   0.723  0.0242  0.1296  0.4868
   31MOL   H108 6768   3.923   2.364   0.871  2.3590 -0.3531  0.2179
   31MOL   H109 6769   4.169   2.421   0.859  1.5450  1.7523 -0.3542
   31MOL   H110 6770   4.065   2.716   0.569 -0.8810  0.7561  0.3043
   31MOL   H111 6771   3.827   2.650   0.572  0.1649  0.5880  0.4275
   31MOL   C112 6772   3.668   2.152   0.526 -0.4191 -0.0902 -0.0705
   31MOL   C113 6773   3.692   2.287   0.559  0.1035  0.0585  0.0855
   31MOL   C114 6774   3.695   2.334   0.691 -0.5333 -0.1117 -0.4299
   31MOL   C115 6775   3.676   2.243   0.792 -0.1178 -0.4866  0.0947
   31MOL   C116 6776   3.669   2.106   0.766  1.1158  0.7714  0.6736
   31MOL   C117 6777   3.666   2.055   0.635  0.0118  0.1753 -0.1340
   31MOL   O118 6778   3.640   1.923   0.600 -0.3871  0.0696 -0.0912
   31MOL   H119 6779   3.673   2.121   0.423  0.2226  2.1483 -0.7587
   31MOL   H120 6780   3.719   2.355   0.479 -0.1550 -3.2127 -2.8849
   31MOL   H121 6781   3.669   2.278   0.894  0.5419 -3.8617  1.3734
   31MOL   H122 6782   3.659   2.044   0.854 -1.7653  0.6621  0.3228
   31MOL   C123 6783   3.861   1.780   0.340  0.8521  0.6449  0.0702
   31MOL   C124 6784   3.753   1.846   0.405  0.3207 -0.2992 -0.1741
   31MOL   C125 6785   3.750   1.865   0.542  0.2898  0.0702 -0.1504
   31MOL   C126 6786   3.862   1.822   0.617  0.3195  0.6636 -0.5325
   31MOL   C127 6787   3.978   1.761   0.556 -0.4814  0.3566 -0.5406
   31MOL   C128 6788   3.980   1.745   0.415  0.1600  0.2997 -0.3338
   31MOL   O129 6789   4.088   1.682   0.363  0.6863 -0.4478  0.5568
   31MOL   H130 6790   3.837   1.758   0.238 -0.9977 -0.7200  0.7820
   31MOL   H131 6791   3.662   1.876   0.356  0.1341 -0.4720  0.0643
   31MOL   H132 6792   3.869   1.842   0.723  1.0749  0.8400 -0.6165
   31MOL   H133 6793   4.065   1.737   0.615 -0.4138  0.1071 -0.7379
   31MOL   C134 6794   4.204   1.738   0.013  0.9098 -1.2528  0.0452
   31MOL   C135 6795   4.130   1.697   0.128 -0.4914  0.2602  0.4726
   31MOL   C136 6796   4.152   1.746   0.257 -0.0564  0.3138  0.0028
   31MOL   C137 6797   4.243   1.858   0.270  0.0447 -0.2602 -0.4305
   31MOL   C138 6798   4.315   1.903   0.153 -0.2961 -0.1998 -0.3491
   31MOL   C139 6799   4.292   1.841   0.030 -0.0284 -0.1062 -0.5009
   31MOL   O140 6800   4.367   1.889   8.177  0.3294 -0.3059  0.0719
   31MOL   H141 6801   4.202   1.691   8.170  0.3637  1.3281 -1.2301
   31MOL   H142 6802   4.077   1.604   0.115 -2.4131  1.3102  0.6653
   31MOL   H143 6803   4.255   1.904   0.367 -1.1125  1.5455 -1.1149
   31MOL   H144 6804   4.391   1.979   0.163 -0.5975  0.1976 -1.0753
   31MOL   C145 6805   4.195   2.174   8.054  0.3412  0.7021  0.0700
   31MOL   C146 6806   4.269   2.089   8.139 -0.7621  0.0715  0.5749
   31MOL   C147 6807   4.304   1.968   8.091  0.5053 -0.4179  0.3944
   31MOL   C148 6808   4.291   1.929   7.954  0.4914 -0.2397 -0.0041
   31MOL   C149 6809   4.231   2.018   7.868  0.4489 -1.5744 -0.2040
   31MOL   C150 6810   4.176   2.140   7.917 -0.1845 -0.4210  0.2696
   31MOL   O151 6811   4.117   2.228   7.831  0.3749 -0.2810 -0.0028
   31MOL   H152 6812   4.155   2.264   8.099 -2.2867 -0.8010  0.8506
   31MOL   H153 6813   4.289   2.129   8.237  1.6289  0.1663  0.0814
   31MOL   H154 6814   4.331   1.834   7.921 -1.5608 -1.8541  1.9475
   31MOL   H155 6815   4.222   2.008   7.761 -1.4100 -0.5837 -0.1672
   31MOL   C156 6816   4.332   2.537   7.869  0.0753  0.0569  0.3565
   31MOL   C157 6817   4.290   2.402   7.844 -0.4214  0.2817  0.3797
   31MOL   C158 6818   4.157   2.361   7.854  0.3341  0.4956  0.7176
   31MOL   C159 6819   4.060   2.461   7.885 -0.4698  0.3475  0.6193
   31MOL   C160 6820   4.100   2.589   7.927 -0.7020 -0.4345 -0.3284
   31MOL   C161 6821   4.235   2.631   7.917 -0.3917 -0.0826 -0.7454
   31MOL   O162 6822   4.275   2.749   7.964 -0.5939 -0.9467  0.4383
   31MOL   H163 6823   4.435   2.569   7.862  0.3917 -0.9980  0.1123
   31MOL   H164 6824   4.377   2.343   7.820  1.0984  2.8484 -0.6779
   31MOL   H165 6825   3.954   2.444   7.892 -0.7365  0.9686 -1.3655
   31MOL   H166 6826   4.026   2.655   7.968 -0.2794 -1.8052  2.8062
   31MOL   C167 6827   4.177   3.031   7.750 -0.3489 -0.1946 -0.1724
   31MOL   C168 6828   4.238   2.911   7.786 -0.3400 -0.9914  0.5346
   31MOL   C169 6829   4.224   2.865   7.919  0.0924 -0.7988  0.1378
   31MOL   C170 6830   4.146   2.937   8.013  0.6502  0.5050  0.7147
   31MOL   C171 6831   4.092   3.061   7.973  0.2394 -0.3134  0.6096
   31MOL   C172 6832   4.104   3.107   7.842  0.3380 -0.1766 -0.3908
   31MOL   O173 6833   4.055   3.233   7.808 -0.7329  0.4620 -1.2672
   31MOL   H174 6834   4.188   3.069   7.649 -1.1870  0.6828  0.0623
   31MOL   H175 6835   4.295   2.869   7.706  0.5016 -2.1698  1.7276
   31MOL   H176 6836   4.129   2.890   8.109 -0.5251 -0.4418  0.0584
   31MOL   H177 6837   4.042   3.118   8.051  0.7185  1.1931 -0.1567
   31MOL   C178 6838   4.004   3.355   7.472  0.3654  0.0086 -0.0885
   31MOL   C179 6839   4.051   3.336   7.602  0.5310 -0.4066  0.8302
   31MOL   C180 6840   4.004   3.240   7.685  0.3061  0.5117  0.1276
   31MOL   C181 6841   3.903   3.158   7.640  0.3949 -0.6268  0.3605
   31MOL   C182 6842   3.855   3.171   7.510 -0.2530 -0.5070  0.2083
   31MOL   C183 6843   3.910   3.264   7.422  0.1732  0.3940  0.6301
   31MOL   O184 6844   3.855   3.255   7.299  0.6454  0.4203 -0.0895
   31MOL   H185 6845   4.043   3.432   7.408 -2.5590 -1.0544 -3.2799
   31MOL   H186 6846   4.134   3.396   7.635  1.9884 -2.0088  0.1694
   31MOL   H187 6847   3.860   3.089   7.711 -1.8714  4.0121  3.7431
   31MOL   H188 6848   3.774   3.115   7.466  1.3014 -1.9559 -0.8608
   31MOL   C189 6849   4.093   3.330   7.029  0.5385 -0.0251 -0.1811
   31MOL   C190 6850   3.998   3.346   7.128 -0.2488  0.0421 -0.1846
   31MOL   C191 6851   3.948   3.236   7.199  0.0514 -0.0827 -0.0160
   31MOL   C192 6852   4.006   3.109   7.182 -0.2358 -0.2208  0.4478
   31MOL   C193 6853   4.107   3.093   7.081 -0.5305 -0.0523  0.1332
   31MOL   C194 6854   4.148   3.203   7.004 -0.1938  0.4267  0.2706
   31MOL   O195 6855   4.236   3.184   6.902  0.0767  0.1948  0.0913
   31MOL   H196 6856   4.113   3.424   6.979 -2.4561  0.7860  0.0435
   31MOL   H197 6857   3.941   3.436   7.143  1.0847  0.7577  0.7631
   31MOL   H198 6858   3.985   3.019   7.238  2.7118 -0.7154  0.8447
   31MOL   H199 6859   4.152   2.996   7.068  1.8928  1.2590 -1.5779
   31MOL   C200 6860   4.598   3.175   6.921 -0.9433 -0.3360  0.1147
   31MOL   C201 6861   4.464   3.132   6.923 -0.2572  0.5087  0.2654
   31MOL   C202 6862   4.366   3.227   6.913  0.2481  0.5659 -0.1617
   31MOL   C203 6863   4.397   3.365   6.900 -0.2554  0.3551  0.0062
   31MOL   C204 6864   4.531   3.404   6.904 -0.2349 -0.8125  0.0792
   31MOL   C205 6865   4.638   3.308   6.916  0.0563 -0.3208 -0.0089
   31MOL   O206 6866   4.774   3.333   6.885  0.3115  0.1605  0.4686
   31MOL   H207 6867   4.684   3.110   6.928 -1.4773 -1.0299  0.2087
   31MOL   H208 6868   4.443   3.027   6.937  1.8910 -0.2990 -2.1696
   31MOL   H209 6869   4.318   3.439   6.891 -1.6580 -0.8161  2.1924
   31MOL   H210 6870   4.556   3.508   6.889  0.9817 -1.2137 -0.7407
   31MOL   C211 6871   5.081   3.232   7.066  0.6549  0.0296  0.1092
   31MOL   C212 6872   4.990   3.257   6.965  0.0981 -0.5412 -0.6379
   31MOL   C213 6873   4.863   3.323   6.989  0.3975 -0.3143  0.7271
   31MOL   C214 6874   4.828   3.346   7.122 -0.6780  0.2343  0.1013
   31MOL   C215 6875   4.916   3.310   7.227 -0.2287 -0.8951 -1.1001
   31MOL   C216 6876   5.044   3.251   7.197 -0.2749 -0.2032 -0.1130
   31MOL   O217 6877   5.130   3.228   7.300 -0.6344  0.5299 -0.0781
   31MOL   H218 6878   5.173   3.183   7.037  0.4933  0.4934 -1.2444
   31MOL   H219 6879   5.004   3.249   6.858 -1.1147  1.2561 -0.9516
   31MOL   H220 6880   4.728   3.384   7.137 -1.2027 -0.5625 -1.2887
   31MOL   H221 6881   4.886   3.332   7.328 -1.2868  0.7722 -1.7610
   31MOL   H222 6882   5.206   3.174   7.282 -0.5104  0.3315  0.9826
   32MOL     C1 6883   2.612   4.058   5.432 -0.1318 -0.6402  0.3104
   32MOL     C2 6884   2.602   4.024   5.566  0.4807 -0.2238 -0.1143
   32MOL     C3 6885   2.671   3.907   5.604 -0.9265  0.1933  1.1090
   32MOL     C4 6886   2.749   3.827   5.511 -0.1700  0.3669 -0.0081
   32MOL     C5 6887   2.760   3.866   5.378  0.3857  0.1135 -0.2483
   32MOL     C6 6888   2.687   3.986   5.340  0.0246 -0.5434 -0.2990
   32MOL     O7 6889   2.706   4.035   5.216 -0.1398  0.2380 -0.0524
   32MOL     H8 6890   2.569   4.154   5.406 -1.9756 -1.3759  0.5512
   32MOL     H9 6891   2.550   4.089   5.635  0.4360 -1.6713  1.2456
   32MOL    H10 6892   2.789   3.730   5.537  1.1137  1.5216  2.5095
   32MOL    H11 6893   2.825   3.817   5.308  0.1131 -0.7101  0.0674
   32MOL    H12 6894   2.664   3.884   5.709  0.5229 -1.2068  0.9233
   32MOL    C13 6895   3.058   4.121   5.138  0.4299  0.8991 -0.0723
   32MOL    C14 6896   2.935   4.120   5.205 -0.4117  0.2200  0.0787
   32MOL    C15 6897   2.829   4.034   5.163 -0.2091 -0.4380 -0.4838
   32MOL    C16 6898   2.841   3.968   5.041 -0.0449 -0.4766 -0.8219
   32MOL    C17 6899   2.969   3.964   4.974 -0.8643  0.5424 -0.1858
   32MOL    C18 6900   3.077   4.038   5.027  0.1807  0.1977  0.1978
   32MOL    O19 6901   3.197   4.039   4.955  0.1080 -0.5832  0.3474
   32MOL    H20 6902   3.140   4.182   5.173  1.3084 -0.8791  1.1064
   32MOL    H21 6903   2.926   4.189   5.287  0.2130  0.8449 -0.3764
   32MOL    H22 6904   2.755   3.908   5.016  0.4993 -2.1882  1.1925
   32MOL    H23 6905   2.976   3.921   4.875  1.2215  0.4283 -0.0212
   32MOL    C24 6906   3.186   4.214   4.628  0.2073 -0.2212  0.8070
   32MOL    C25 6907   3.195   4.197   4.770 -0.0283 -0.1039  0.5449
   32MOL    C26 6908   3.195   4.071   4.822 -0.0237  0.3372  0.1357
   32MOL    C27 6909   3.200   3.963   4.728 -0.5365 -0.3322 -1.3017
   32MOL    C28 6910   3.208   3.986   4.589  0.3914 -0.2697  0.1418
   32MOL    C29 6911   3.199   4.114   4.530  0.1159  0.7297 -0.5545
   32MOL    O30 6912   3.189   4.145   4.400 -0.8768  0.0464  0.2819
   32MOL    H31 6913   3.164   4.314   4.595 -2.0961 -0.1840  2.3239
   32MOL    H32 6914   3.185   4.282   4.837 -1.5358  1.1912 -1.2685
   32MOL    H33 6915   3.209   3.862   4.763 -2.2522  0.6288  2.1470
   32MOL    H34 6916   3.228   3.900   4.525 -0.5601 -0.3341 -0.0763
   32MOL    C35 6917   3.544   4.152   4.285  0.6888 -1.0983  0.1848
   32MOL    C36 6918   3.422   4.110   4.352 -0.1935  0.1293  0.1912
   32MOL    C37 6919   3.306   4.187   4.336  0.1119  0.6579 -0.2536
   32MOL    C38 6920   3.303   4.310   4.269 -0.4433  0.4442 -0.5323
   32MOL    C39 6921   3.426   4.361   4.216  0.3825 -0.2537 -0.4713
   32MOL    C40 6922   3.540   4.277   4.212 -0.0533  0.5730 -0.1317
   32MOL    O41 6923   3.657   4.325   4.159  0.2494 -0.2600 -0.3637
   32MOL    H42 6924   3.635   4.095   4.293  1.3552  0.0815  1.1623
   32MOL    H43 6925   3.416   4.012   4.396 -0.7833 -0.2083 -0.6380
   32MOL    H44 6926   3.215   4.371   4.256 -0.9116 -0.0925  0.0892
   32MOL    H45 6927   3.429   4.463   4.179 -2.9738 -0.6668 -2.0995
   32MOL    C46 6928   3.809   4.552   4.410  0.4729  0.9595 -0.0289
   32MOL    C47 6929   3.707   4.477   4.352 -0.1243  0.1090  0.1761
   32MOL    C48 6930   3.744   4.387   4.245 -0.3816 -0.1476 -0.8890
   32MOL    C49 6931   3.876   4.381   4.199  0.0331 -0.5439  0.1241
   32MOL    C50 6932   3.973   4.457   4.263 -0.0388 -0.0825 -0.2899
   32MOL    C51 6933   3.942   4.542   4.371 -0.2928 -0.1942  0.1774
   32MOL    O52 6934   4.040   4.623   4.427 -0.3825  0.2216  0.0714
   32MOL    H53 6935   3.780   4.607   4.499 -1.5244 -1.3881  0.8355
   32MOL    H54 6936   3.606   4.477   4.390 -1.1638  1.0545 -2.4390
   32MOL    H55 6937   3.904   4.321   4.113 -2.6323 -0.6686 -0.7120
   32MOL    H56 6938   4.074   4.452   4.226  0.2726  2.4875  0.0964
   32MOL    C57 6939   4.003   4.961   4.295  0.1372 -0.7593  0.2293
   32MOL    C58 6940   3.973   4.835   4.350  0.1680 -0.2448  0.6679
   32MOL    C59 6941   4.072   4.745   4.379  0.0095 -0.8673  0.4046
   32MOL    C60 6942   4.205   4.777   4.351 -0.0253  0.2555  0.5068
   32MOL    C61 6943   4.235   4.902   4.297 -0.5702  0.6125  0.1167
   32MOL    C62 6944   4.136   5.000   4.268  0.3476 -0.2599  0.7763
   32MOL    O63 6945   4.174   5.126   4.215  0.3908 -0.1041 -0.1218
   32MOL    H64 6946   3.922   5.030   4.275 -0.2697 -0.4760  2.6650
   32MOL    H65 6947   3.869   4.811   4.369 -0.2609  0.3918 -0.7683
   32MOL    H66 6948   4.278   4.706   4.386  1.3847  1.3464 -0.1625
   32MOL    H67 6949   4.338   4.935   4.289 -0.6153  0.6758 -0.2334
   32MOL    C68 6950   4.453   5.106   3.959  0.3678 -1.1667 -0.4152
   32MOL    C69 6951   4.384   5.118   4.088 -0.3064 -0.2314 -0.2395
   32MOL    C70 6952   4.241   5.121   4.092  0.7984  0.9836 -0.1412
   32MOL    C71 6953   4.165   5.118   3.972  0.1695 -0.2905  0.2168
   32MOL    C72 6954   4.236   5.122   3.846 -0.2928  0.4884 -0.0031
   32MOL    C73 6955   4.379   5.108   3.837 -0.6940  0.5725 -0.5695
   32MOL    O74 6956   4.441   5.099   3.714  0.2314  0.2839  0.4188
   32MOL    H75 6957   4.561   5.107   3.962  0.3484 -0.9108  0.5959
   32MOL    H76 6958   4.451   5.101   4.172 -1.2189 -1.1499  0.3199
   32MOL    H77 6959   4.058   5.102   3.971  0.2585 -0.9484  0.7952
   32MOL    H78 6960   4.180   5.110   3.755 -3.1724  0.5768  1.6860
   32MOL    C79 6961   4.708   5.338   3.647  0.0708 -0.6279 -0.2837
   32MOL    C80 6962   4.641   5.228   3.708 -0.3375 -0.5084 -0.6244
   32MOL    C81 6963   4.505   5.216   3.679  0.3204  0.4689  0.4251
   32MOL    C82 6964   4.430   5.310   3.611 -0.4643  0.4153  0.6841
   32MOL    C83 6965   4.494   5.428   3.574 -0.5821  0.2631 -0.3094
   32MOL    C84 6966   4.636   5.447   3.588 -0.1778 -0.6422 -0.0725
   32MOL    O85 6967   4.700   5.562   3.550  0.0630 -0.1485 -0.1799
   32MOL    H86 6968   4.816   5.342   3.653  0.0311  0.6136 -0.2900
   32MOL    H87 6969   4.695   5.158   3.769 -0.5298  0.0715  0.2221
   32MOL    H88 6970   4.326   5.290   3.591  0.1304 -2.7421  0.4508
   32MOL    H89 6971   4.423   5.498   3.534 -1.6822 -0.3660  0.5420
   32MOL    C90 6972   4.671   5.590   3.186  0.2174 -0.0637 -0.1021
   32MOL    C91 6973   4.639   5.593   3.323 -0.0452  0.0620 -0.8676
   32MOL    C92 6974   4.739   5.563   3.419  0.4520 -0.3539 -0.2905
   32MOL    C93 6975   4.859   5.515   3.374  0.3201 -0.9008  0.9248
   32MOL    C94 6976   4.890   5.502   3.241  0.6809 -0.2819 -0.4334
   32MOL    C95 6977   4.793   5.534   3.146  0.0787  0.2823  0.0672
   32MOL    O96 6978   4.831   5.537   3.017 -0.1440  0.2038 -0.0890
   32MOL    H97 6979   4.596   5.620   3.114 -0.5874  0.3057  0.8708
   32MOL    H98 6980   4.542   5.622   3.362  0.0273  0.2772 -0.8444
   32MOL    H99 6981   4.937   5.502   3.447  0.5816  1.1596  1.0412
   32MOL   H100 6982   4.990   5.469   3.216  0.6635  0.2473 -1.2226
   32MOL   C101 6983   4.580   5.360   2.813 -0.2695  0.1785  0.3562
   32MOL   C102 6984   4.656   5.400   2.928  0.3348 -1.1831 -0.6570
   32MOL   C103 6985   4.751   5.510   2.909  0.1444  0.5581  0.3506
   32MOL   C104 6986   4.763   5.587   2.788  0.4809  0.4853  0.3940
   32MOL   C105 6987   4.682   5.546   2.677 -0.3474  0.6165  0.1323
   32MOL   C106 6988   4.592   5.436   2.692 -1.0603  1.0557  0.2553
   32MOL   O107 6989   4.528   5.391   2.582  0.5302 -0.0449  0.1354
   32MOL   H108 6990   4.525   5.268   2.826  0.3079 -0.4888 -1.7034
   32MOL   H109 6991   4.676   5.339   3.015 -1.8162  2.3354  2.4628
   32MOL   H110 6992   4.825   5.675   2.777 -0.8822  1.1864 -1.9182
   32MOL   H111 6993   4.696   5.594   2.581  0.0171 -0.2257 -0.2405
   32MOL   C112 6994   4.195   5.222   2.609  0.5814 -0.2554  0.3078
   32MOL   C113 6995   4.339   5.239   2.606  0.2018 -0.1129 -0.2246
   32MOL   C114 6996   4.393   5.369   2.602 -0.1109 -0.2191  0.8295
   32MOL   C115 6997   4.301   5.478   2.586  0.6789 -0.0979 -0.2999
   32MOL   C116 6998   4.159   5.462   2.606  0.3135 -0.4857 -0.4648
   32MOL   C117 6999   4.106   5.329   2.618  0.4104 -0.1280  0.1779
   32MOL   O118 7000   3.972   5.305   2.615 -0.0446  0.5013  0.1606
   32MOL   H119 7001   4.159   5.120   2.605  0.0161 -0.0221 -0.7254
   32MOL   H120 7002   4.393   5.146   2.615 -3.0319 -2.0579 -0.1889
   32MOL   H121 7003   4.325   5.582   2.568 -1.2035  0.6999  1.5720
   32MOL   H122 7004   4.081   5.537   2.598 -0.4613 -1.0682  1.3960
   32MOL   C123 7005   3.805   5.378   2.941 -0.0540 -0.5135  0.6342
   32MOL   C124 7006   3.834   5.383   2.799  1.4734  0.3118  0.6266
   32MOL   C125 7007   3.913   5.281   2.739 -0.1992  0.1455 -0.5932
   32MOL   C126 7008   3.952   5.165   2.811 -0.0673  0.2469  0.0948
   32MOL   C127 7009   3.923   5.163   2.950 -0.0046  0.0308 -0.2763
   32MOL   C128 7010   3.859   5.270   3.014  0.3331  0.1857 -1.1192
   32MOL   O129 7011   3.847   5.263   3.151 -0.1094 -0.2701  0.1195
   32MOL   H130 7012   3.755   5.468   2.974  1.4686  0.6685 -0.1959
   32MOL   H131 7013   3.822   5.479   2.751 -3.0551  0.8351  2.5682
   32MOL   H132 7014   4.028   5.100   2.771  1.2994  2.4154 -0.8806
   32MOL   H133 7015   3.972   5.083   3.005 -2.7878 -0.8084  1.1009
   32MOL   C134 7016   3.701   5.558   3.311 -0.3965 -0.5103 -0.7131
   32MOL   C135 7017   3.796   5.474   3.254  0.4064  0.3297 -0.0684
   32MOL   C136 7018   3.756   5.343   3.217  0.2712  0.3951 -0.9727
   32MOL   C137 7019   3.634   5.293   3.258 -0.0563  0.1468  0.5774
   32MOL   C138 7020   3.543   5.373   3.334 -0.2808  0.4355 -0.4721
   32MOL   C139 7021   3.580   5.506   3.361  0.2976 -0.8292 -1.1000
   32MOL   O140 7022   3.493   5.585   3.434 -0.2291 -0.2309 -0.2325
   32MOL   H141 7023   3.716   5.664   3.327  1.5563 -0.7810 -0.6632
   32MOL   H142 7024   3.895   5.506   3.223 -1.3244  5.1714 -1.0038
   32MOL   H143 7025   3.608   5.191   3.233 -0.7030  1.2569 -3.6742
   32MOL   H144 7026   3.450   5.338   3.375 -1.4099  3.4868 -0.3005
   32MOL   C145 7027   3.643   5.555   3.766  0.0987  0.0077  0.2927
   32MOL   C146 7028   3.608   5.526   3.636 -0.3105 -0.3612  0.2246
   32MOL   C147 7029   3.535   5.616   3.558  0.2944  0.2774  0.2490
   32MOL   C148 7030   3.517   5.747   3.598  0.2623 -0.0876  0.5780
   32MOL   C149 7031   3.569   5.786   3.727 -0.5306 -0.1726  0.0662
   32MOL   C150 7032   3.625   5.688   3.812 -0.6848  0.2455  0.4400
   32MOL   O151 7033   3.670   5.712   3.936 -0.0305 -0.0515 -0.6047
   32MOL   H152 7034   3.686   5.480   3.832  1.2103  0.9011  0.5971
   32MOL   H153 7035   3.627   5.428   3.593 -0.4714 -0.1240 -0.3983
   32MOL   H154 7036   3.456   5.815   3.541  2.1274  0.1597 -1.1786
   32MOL   H155 7037   3.561   5.887   3.763 -0.3103  0.2085 -0.9512
   32MOL   C156 7038   3.377   5.735   4.134 -0.1797  0.9300 -0.4730
   32MOL   C157 7039   3.460   5.697   4.032  0.1387 -0.3520 -0.1865
   32MOL   C158 7040   3.591   5.744   4.039 -0.0879  0.0915  0.1220
   32MOL   C159 7041   3.641   5.824   4.142  0.3154  0.4670  0.3520
   32MOL   C160 7042   3.552   5.862   4.240 -0.4502  0.1777  0.1155
   32MOL   C161 7043   3.419   5.825   4.236 -0.6347  0.8993  0.2107
   32MOL   O162 7044   3.332   5.874   4.331 -0.2389 -0.2562  0.7148
   32MOL   H163 7045   3.279   5.688   4.134 -0.1582  0.8727 -1.4254
   32MOL   H164 7046   3.429   5.617   3.966  0.7358 -1.5573  0.9833
   32MOL   H165 7047   3.745   5.853   4.141 -0.0225  1.7180  0.1114
   32MOL   H166 7048   3.576   5.931   4.320 -1.7014  0.1561  0.5169
   32MOL   C167 7049   3.218   6.209   4.229  0.0789  0.8323 -0.4924
   32MOL   C168 7050   3.300   6.101   4.266  0.4240 -0.4429 -0.0643
   32MOL   C169 7051   3.249   5.974   4.289 -0.2675  0.0147  0.3309
   32MOL   C170 7052   3.109   5.953   4.280  0.2577  0.4569  0.8599
   32MOL   C171 7053   3.027   6.059   4.256 -0.1747 -0.3686  0.1248
   32MOL   C172 7054   3.074   6.192   4.231  0.8967 -0.8121  0.1147
   32MOL   O173 7055   2.992   6.303   4.201  0.1729  0.3595  0.9159
   32MOL   H174 7056   3.263   6.305   4.209  2.4384  0.0521  0.8719
   32MOL   H175 7057   3.407   6.107   4.276  0.3099  0.6737  0.5308
   32MOL   H176 7058   3.064   5.858   4.304  0.6217  0.8031  2.9795
   32MOL   H177 7059   2.920   6.046   4.260 -0.3223 -0.6555 -3.4314
   32MOL   C178 7060   2.626   6.364   4.178  0.4341 -0.0255  0.6598
   32MOL   C179 7061   2.760   6.339   4.143 -0.7137  0.0291 -0.4187
   32MOL   C180 7062   2.861   6.315   4.239 -0.1799  0.0133 -0.0693
   32MOL   C181 7063   2.818   6.295   4.373  0.1144 -0.1602 -0.0322
   32MOL   C182 7064   2.687   6.323   4.413  0.0007  0.5835 -0.1580
   32MOL   C183 7065   2.595   6.363   4.310  1.0416 -0.4671 -0.1085
   32MOL   O184 7066   2.463   6.374   4.340 -0.1013  0.0943  0.6055
   32MOL   H185 7067   2.556   6.371   4.096  0.8396  0.1293  0.3268
   32MOL   H186 7068   2.789   6.356   4.041 -0.6956  0.1178 -0.3986
   32MOL   H187 7069   2.889   6.275   4.452 -0.7533 -1.5450  0.3992
   32MOL   H188 7070   2.672   6.304   4.518 -1.1616 -1.2449 -0.6267
   32MOL   C189 7071   2.326   6.712   4.376 -0.1001 -0.3954 -0.6180
   32MOL   C190 7072   2.384   6.596   4.324  0.4015  0.6818 -0.6520
   32MOL   C191 7073   2.414   6.483   4.401 -0.3084 -0.8921 -0.4821
   32MOL   C192 7074   2.379   6.483   4.541  0.0885  0.6275  0.6561
   32MOL   C193 7075   2.323   6.606   4.592  0.7257 -0.2966  0.0840
   32MOL   C194 7076   2.293   6.718   4.513 -0.4603  0.1743 -0.1438
   32MOL   O195 7077   2.240   6.834   4.567 -0.2836  1.4279 -0.3052
   32MOL   H196 7078   2.311   6.801   4.317 -1.1520 -0.1890 -0.0474
   32MOL   H197 7079   2.409   6.599   4.219 -0.1597  0.5779 -0.7901
   32MOL   H198 7080   2.389   6.398   4.608  1.1737  0.2148 -0.0124
   32MOL   H199 7081   2.311   6.624   4.698 -0.2882 -1.1092  0.1176
   32MOL   C200 7082   2.551   7.033   4.634  0.1259  0.2867 -0.4597
   32MOL   C201 7083   2.473   6.923   4.595 -0.0971  0.6936  0.0769
   32MOL   C202 7084   2.334   6.930   4.603 -0.6894 -0.5344 -0.4369
   32MOL   C203 7085   2.280   7.049   4.657  0.1526 -0.1265  0.1178
   32MOL   C204 7086   2.362   7.153   4.715  0.1057  0.0356  0.1450
   32MOL   C205 7087   2.497   7.150   4.701 -0.6154  0.0664  0.6592
   32MOL   O206 7088   2.575   7.249   4.756  0.1397 -0.1162 -0.0778
   32MOL   H207 7089   2.659   7.024   4.641  0.2522 -0.8179 -3.2943
   32MOL   H208 7090   2.524   6.841   4.547  2.1581  1.0929  1.7156
   32MOL   H209 7091   2.173   7.059   4.671 -0.1959 -2.0659 -0.9943
   32MOL   H210 7092   2.320   7.242   4.760  0.7659  1.6505 -2.3584
   32MOL   C211 7093   2.929   7.212   4.816  0.4281 -0.7796 -0.3895
   32MOL   C212 7094   2.810   7.266   4.761  0.3069 -0.8329 -0.2202
   32MOL   C213 7095   2.691   7.216   4.815  0.1979  0.1745 -0.2485
   32MOL   C214 7096   2.690   7.136   4.931  0.3909 -0.2236 -0.4994
   32MOL   C215 7097   2.811   7.096   4.987  0.0985 -0.2354 -0.1082
   32MOL   C216 7098   2.931   7.134   4.931  0.6873 -0.5822  0.6129
   32MOL   O217 7099   3.047   7.098   4.990  0.2009  0.4853 -0.1595
   32MOL   H218 7100   3.023   7.250   4.777  1.7799 -0.7729  2.7425
   32MOL   H219 7101   2.801   7.332   4.677 -1.5737  2.0836  2.1487
   32MOL   H220 7102   2.596   7.131   4.984 -0.1082  2.3121 -1.0759
   32MOL   H221 7103   2.821   7.039   5.078 -1.8427 -0.7045 -0.1561
   32MOL   H222 7104   3.124   7.131   4.948  0.5577 -1.0315 -0.7208
   33MOL     C1 7105   2.279   7.063   6.786  0.3947 -0.4429  0.2996
   33MOL     C2 7106   2.375   7.036   6.887 -0.7200  0.1949 -0.0428
   33MOL     C3 7107   2.514   7.034   6.851  0.2298  0.6461  0.1002
   33MOL     C4 7108   2.550   7.043   6.713  0.0314  0.5110 -0.4090
   33MOL     C5 7109   2.451   7.060   6.618  0.9470  0.2991  0.4676
   33MOL     C6 7110   2.317   7.086   6.653 -0.7521  0.4588  0.4420
   33MOL     O7 7111   2.231   7.123   6.553  0.0651 -0.1343 -0.0348
   33MOL     H8 7112   2.175   7.056   6.816  0.0210  0.6910 -0.6591
   33MOL     H9 7113   2.345   7.024   6.990  2.6175  2.0217  1.2382
   33MOL    H10 7114   2.653   7.030   6.683  0.1344 -0.9308  0.4978
   33MOL    H11 7115   2.479   7.071   6.514 -3.1705 -1.9835 -0.9879
   33MOL    H12 7116   2.591   7.015   6.925 -0.7653 -2.4473  0.3872
   33MOL    C13 7117   2.154   7.479   6.640  0.3888 -0.1863  0.3761
   33MOL    C14 7118   2.227   7.362   6.613 -0.2756 -0.5186  0.4163
   33MOL    C15 7119   2.161   7.242   6.576  0.1821  0.2878 -0.1040
   33MOL    C16 7120   2.017   7.246   6.563 -0.0156 -0.5932 -0.4173
   33MOL    C17 7121   1.949   7.368   6.593  0.4275  0.0884  0.8197
   33MOL    C18 7122   2.016   7.481   6.629  0.2168 -0.2793 -0.3603
   33MOL    O19 7123   1.945   7.600   6.664  0.7356 -0.0624  0.0442
   33MOL    H20 7124   2.199   7.569   6.679 -1.8406  0.5275  1.3569
   33MOL    H21 7125   2.332   7.349   6.632 -0.1654  0.6886  0.6563
   33MOL    H22 7126   1.970   7.152   6.540 -0.2153  0.0205 -2.5599
   33MOL    H23 7127   1.841   7.367   6.598  0.3751  0.2822 -0.2327
   33MOL    C24 7128   1.926   7.892   6.446 -0.3616  0.0745 -0.1340
   33MOL    C25 7129   1.903   7.761   6.493  0.5471 -0.8465  0.2685
   33MOL    C26 7130   1.973   7.719   6.612 -0.5866  0.0482  0.5861
   33MOL    C27 7131   2.058   7.810   6.679 -0.0445 -0.4742 -0.0968
   33MOL    C28 7132   2.079   7.940   6.624  0.2869 -0.1148  0.3056
   33MOL    C29 7133   2.022   7.979   6.500 -0.0258 -0.1755 -0.6277
   33MOL    O30 7134   2.044   8.105   6.457  0.0762 -0.0239  0.2842
   33MOL    H31 7135   1.887   7.910   6.347  1.4152 -2.3313 -1.3380
   33MOL    H32 7136   1.824   7.707   6.443  0.4272  0.9259 -1.5216
   33MOL    H33 7137   2.097   7.792   6.778 -0.9890  0.1759  0.4041
   33MOL    H34 7138   2.135   8.013   6.681 -0.6561  0.1763  0.8545
   33MOL    C35 7139   2.111   0.005   6.133 -0.5236  0.0568 -0.3175
   33MOL    C36 7140   2.047   8.224   6.250 -0.1279  0.5685 -0.6784
   33MOL    C37 7141   2.101   8.123   6.335  0.4682 -0.2918  0.2136
   33MOL    C38 7142   2.215   8.050   6.302 -0.4242  0.3603 -0.1437
   33MOL    C39 7143   2.279   8.091   6.184 -0.4037  0.3488 -0.0275
   33MOL    C40 7144   2.229   8.192   6.098  0.0898  0.1236 -0.2029
   33MOL    O41 7145   2.289   8.230   5.984  0.0375 -0.4699  0.2296
   33MOL    H42 7146   2.080   0.092   6.078  0.2538 -0.0734 -0.9688
   33MOL    H43 7147   1.963   0.031   6.280 -0.7567 -0.7398  0.2821
   33MOL    H44 7148   2.254   7.983   6.376  0.8038  1.7671  0.4962
   33MOL    H45 7149   2.370   8.043   6.152  0.1980  1.3265  0.2104
   33MOL    C46 7150   2.534   8.042   5.789 -0.5060  0.2296 -0.2497
   33MOL    C47 7151   2.488   8.135   5.884 -0.2578  0.7623 -0.1927
   33MOL    C48 7152   2.347   8.133   5.910 -0.1143 -0.1473  0.6416
   33MOL    C49 7153   2.263   8.030   5.855  0.6244  0.1531 -0.3800
   33MOL    C50 7154   2.315   7.932   5.765  0.1749  1.0711  0.0388
   33MOL    C51 7155   2.452   7.937   5.731  0.1706  0.5562 -0.1969
   33MOL    O52 7156   2.501   7.861   5.629  0.3566  0.4004 -0.2392
   33MOL    H53 7157   2.638   8.045   5.760 -0.9037  0.8017 -1.6848
   33MOL    H54 7158   2.546   8.204   5.944  1.0403 -1.9346  1.7472
   33MOL    H55 7159   2.158   8.036   5.879  0.3982  0.5751 -1.4524
   33MOL    H56 7160   2.247   7.854   5.734  1.4448  1.3911 -3.6802
   33MOL    C57 7161   2.680   7.568   5.777  0.2585 -0.0791  0.1220
   33MOL    C58 7162   2.579   7.659   5.749  0.0385 -0.5472  0.4115
   33MOL    C59 7163   2.598   7.764   5.659  0.4258  0.2638  0.0834
   33MOL    C60 7164   2.718   7.777   5.589  0.5156  0.5097 -0.0599
   33MOL    C61 7165   2.821   7.688   5.616 -0.4037 -0.6240 -0.0364
   33MOL    C62 7166   2.806   7.581   5.710 -0.3629  0.0793 -0.0599
   33MOL    O63 7167   2.912   7.503   5.739 -0.0710  0.3959  0.3420
   33MOL    H64 7168   2.674   7.495   5.856  1.3242  1.1251  1.3372
   33MOL    H65 7169   2.480   7.662   5.793  0.4148  1.0504  1.1568
   33MOL    H66 7170   2.740   7.849   5.512 -0.4909  0.1215 -0.7116
   33MOL    H67 7171   2.919   7.707   5.577 -1.0631  1.4917 -0.7314
   33MOL    C68 7172   3.036   7.629   6.063  0.0466 -0.4455 -0.5270
   33MOL    C69 7173   2.979   7.632   5.933  0.5072 -0.0962 -0.0182
   33MOL    C70 7174   2.964   7.502   5.864 -0.0817  0.0321 -0.1899
   33MOL    C71 7175   3.020   7.386   5.923  0.3828  0.0324 -0.7982
   33MOL    C72 7176   3.078   7.389   6.049  0.2900  0.1888  0.3748
   33MOL    C73 7177   3.087   7.514   6.118 -0.4324  0.3417 -0.1713
   33MOL    O74 7178   3.160   7.514   6.234  0.1734  0.1548  0.0042
   33MOL    H75 7179   3.055   7.721   6.116  1.3790 -0.5314 -0.8250
   33MOL    H76 7180   2.948   7.731   5.902  2.8758  0.1904 -1.5740
   33MOL    H77 7181   3.032   7.292   5.871 -0.3402  0.4590 -1.7484
   33MOL    H78 7182   3.129   7.299   6.083  0.0085  0.0278  0.3673
   33MOL    C79 7183   3.113   7.415   6.590 -0.2610 -0.8954  0.1637
   33MOL    C80 7184   3.170   7.433   6.458 -0.1282  0.0522 -0.3503
   33MOL    C81 7185   3.094   7.479   6.355 -0.1789  0.1007 -0.1761
   33MOL    C82 7186   2.965   7.520   6.381 -0.6800  1.2052 -0.4820
   33MOL    C83 7187   2.907   7.495   6.511 -0.0604 -0.4401  1.0832
   33MOL    C84 7188   2.983   7.442   6.613 -0.9883 -0.1391  0.0844
   33MOL    O85 7189   2.930   7.413   6.732 -0.0606  0.1764  0.3703
   33MOL    H86 7190   3.178   7.384   6.670 -2.0750  1.5166  2.6607
   33MOL    H87 7191   3.274   7.404   6.450 -0.0779 -0.7749  2.5791
   33MOL    H88 7192   2.905   7.571   6.307 -0.6510 -0.0909 -1.4307
   33MOL    H89 7193   2.802   7.520   6.521  0.6228  2.1199  2.3978
   33MOL    C90 7194   2.689   7.675   6.841  0.4196 -0.1418  0.3923
   33MOL    C91 7195   2.815   7.614   6.804 -0.2778  0.8480  0.3892
   33MOL    C92 7196   2.818   7.475   6.775 -0.3258 -0.3846  0.0225
   33MOL    C93 7197   2.700   7.399   6.781  0.2529 -0.2313 -0.3133
   33MOL    C94 7198   2.579   7.459   6.816  0.9397  0.1262 -0.5770
   33MOL    C95 7199   2.569   7.598   6.836  0.5254 -0.8131  0.1499
   33MOL    O96 7200   2.451   7.656   6.847  0.5910 -0.9693 -0.3776
   33MOL    H97 7201   2.676   7.782   6.846 -1.0527 -0.3583  1.7511
   33MOL    H98 7202   2.903   7.676   6.796 -0.5836  1.2549  0.1450
   33MOL    H99 7203   2.706   7.291   6.773  2.0825 -0.1652  0.0547
   33MOL   H100 7204   2.491   7.397   6.813 -0.1864  1.7739 -3.0870
   33MOL   C101 7205   2.381   8.017   6.801 -0.5991 -0.1644 -0.6057
   33MOL   C102 7206   2.380   7.890   6.863  0.2867 -0.7138  0.0699
   33MOL   C103 7207   2.421   7.775   6.782  1.0615 -0.2777 -0.3827
   33MOL   C104 7208   2.456   7.794   6.647  0.1979 -0.9097  0.0860
   33MOL   C105 7209   2.439   7.918   6.587  0.5161 -0.0082 -0.8203
   33MOL   C106 7210   2.411   8.032   6.666  0.8155  0.1105 -0.0281
   33MOL   O107 7211   2.433   8.158   6.610  0.5100  0.2577 -0.0823
   33MOL   H108 7212   2.369   8.103   6.865  1.8002 -1.6116  1.9182
   33MOL   H109 7213   2.357   7.891   6.969  1.7498 -1.3089  0.3996
   33MOL   H110 7214   2.494   7.706   6.596  0.6842 -1.9316  2.1548
   33MOL   H111 7215   2.455   7.921   6.480  0.9941  2.5360 -0.7030
   33MOL   C112 7216   2.775   8.184   6.466 -0.0370 -0.0877  0.3192
   33MOL   C113 7217   2.670   8.156   6.555 -0.1418 -0.6094 -0.4561
   33MOL   C114 7218   2.540   8.186   6.522  0.1363  0.0344 -0.2875
   33MOL   C115 7219   2.514   8.232   6.385 -0.5720  0.2952  1.1158
   33MOL   C116 7220   2.615   8.251   6.292 -0.7878 -0.1453  0.5020
   33MOL   C117 7221   2.750   8.232   6.332  0.3558  0.2413  0.8119
   33MOL   O118 7222   2.855   0.014   6.247 -0.7937  0.3821  0.3613
   33MOL   H119 7223   2.879   8.169   6.492 -0.2492 -3.2270 -0.3919
   33MOL   H120 7224   2.695   8.130   6.657 -1.8507 -0.2705  0.0756
   33MOL   H121 7225   2.418   0.016   6.353 -0.0935 -1.3905 -2.6156
   33MOL   H122 7226   2.593   0.036   6.193 -1.5901  1.3330  1.2411
   33MOL   C123 7227   3.076   0.246   6.430  0.3492 -1.0037  0.0461
   33MOL   C124 7228   2.959   0.176   6.391  0.4159  0.1851 -0.2957
   33MOL   C125 7229   2.967   0.085   6.291 -0.4867  0.0027 -0.2639
   33MOL   C126 7230   3.090   0.053   6.226 -0.2546  0.3945 -0.2871
   33MOL   C127 7231   3.205   0.123   6.268 -0.1317 -0.1718  0.8131
   33MOL   C128 7232   3.199   0.213   6.375 -0.4276  0.3906  0.5252
   33MOL   O129 7233   3.316   0.274   6.425 -0.7235 -0.1568 -0.5858
   33MOL   H130 7234   3.060   0.329   6.497 -0.3888  0.1563 -1.5287
   33MOL   H131 7235   2.869   0.200   6.446  0.4206  1.3461 -0.7602
   33MOL   H132 7236   3.093   8.243   6.139 -1.1639 -1.0163  0.6961
   33MOL   H133 7237   3.293   0.101   6.210  0.1793 -1.0981  1.6373
   33MOL   C134 7238   3.568   0.390   6.179 -0.3988 -0.1275 -0.6854
   33MOL   C135 7239   3.508   0.325   6.291 -0.1851 -0.1116  0.0417
   33MOL   C136 7240   3.378   0.359   6.334 -0.1836 -0.8800 -0.0743
   33MOL   C137 7241   3.310   0.470   6.273 -0.2721 -0.2103 -0.6387
   33MOL   C138 7242   3.373   0.539   6.169 -0.7335  0.0818  0.8479
   33MOL   C139 7243   3.500   0.494   6.116  0.9370 -0.0979  0.2145
   33MOL   O140 7244   3.544   0.556   6.002  0.0129  0.0257  0.1068
   33MOL   H141 7245   3.664   0.355   6.144 -0.7085 -1.4742 -0.2105
   33MOL   H142 7246   3.557   0.247   6.347  0.0168  0.6951  1.0100
   33MOL   H143 7247   3.214   0.501   6.309 -1.2332 -1.9633 -1.6155
   33MOL   H144 7248   3.309   0.616   6.128 -0.9044  0.7385  2.3153
   33MOL   C145 7249   3.773   0.838   6.045 -0.0513  0.0697  0.0374
   33MOL   C146 7250   3.728   0.713   6.042 -0.4921  0.5910  0.3930
   33MOL   C147 7251   3.590   0.683   6.015  0.0000  0.3046 -0.0198
   33MOL   C148 7252   3.502   0.797   5.999  0.4236 -0.9153 -0.6322
   33MOL   C149 7253   3.550   0.927   6.002 -0.7798 -0.4088 -0.4314
   33MOL   C150 7254   3.686   0.950   6.034 -0.3244  0.2166  0.7221
   33MOL   O151 7255   3.737   1.078   6.046 -0.0099 -0.5186 -0.6336
   33MOL   H152 7256   3.880   0.847   6.062  0.2968 -0.2023 -1.9086
   33MOL   H153 7257   3.794   0.628   6.046 -0.6322  0.5099  1.0680
   33MOL   H154 7258   3.396   0.780   5.994  0.6543 -2.2465 -1.3537
   33MOL   H155 7259   3.478   1.007   5.996  1.8381  1.9016 -2.1294
   33MOL   C156 7260   3.621   1.422   6.087  0.3728 -0.0655  0.5984
   33MOL   C157 7261   3.671   1.303   6.033 -0.3021 -0.1378  0.0269
   33MOL   C158 7262   3.666   1.180   6.103 -0.7826  1.1563 -0.8440
   33MOL   C159 7263   3.587   1.167   6.218 -0.2685  0.4680 -0.0577
   33MOL   C160 7264   3.522   1.282   6.265  0.0189  0.0240  0.0808
   33MOL   C161 7265   3.548   1.407   6.209 -0.2923  0.3325 -0.3108
   33MOL   O162 7266   3.493   1.512   6.261  0.0340 -0.2936 -0.2819
   33MOL   H163 7267   3.627   1.518   6.037  1.8351 -1.3059 -1.6991
   33MOL   H164 7268   3.724   1.304   5.938  1.3594  1.6079  0.9311
   33MOL   H165 7269   3.582   1.077   6.277  0.4777  0.2994 -0.2543
   33MOL   H166 7270   3.456   1.278   6.350  0.1890 -0.2650  0.2016
   33MOL   C167 7271   3.680   1.606   6.573 -0.1075 -0.4088  0.5028
   33MOL   C168 7272   3.592   1.542   6.485 -0.2911  0.0462  1.3306
   33MOL   C169 7273   3.574   1.585   6.354  0.2800 -0.2387 -0.2612
   33MOL   C170 7274   3.631   1.713   6.318  0.4067 -0.0831  0.7552
   33MOL   C171 7275   3.703   1.790   6.412 -0.4820 -0.3397 -0.0256
   33MOL   C172 7276   3.731   1.735   6.537 -0.7027 -0.8734  0.2528
   33MOL   O173 7277   3.810   1.804   6.632  0.4038 -0.7846 -0.0863
   33MOL   H174 7278   3.701   1.570   6.673  0.7534  1.4801  1.0286
   33MOL   H175 7279   3.541   1.453   6.518 -1.8170  0.6067  0.5036
   33MOL   H176 7280   3.626   1.746   6.216 -0.4088 -0.9132  0.5165
   33MOL   H177 7281   3.733   1.893   6.401  0.0132 -0.5460 -0.6300
   33MOL   C178 7282   3.661   1.905   6.950 -0.6904 -0.0695  0.4326
   33MOL   C179 7283   3.739   1.834   6.855 -0.0347  0.2579  0.4872
   33MOL   C180 7284   3.740   1.880   6.720 -0.1212  0.2121  0.2650
   33MOL   C181 7285   3.655   1.983   6.678 -0.1679  0.4485  0.1899
   33MOL   C182 7286   3.576   2.054   6.771  0.2339  0.4013  0.9416
   33MOL   C183 7287   3.588   2.022   6.912  0.4094 -0.4075 -0.8874
   33MOL   O184 7288   3.520   2.094   7.013 -0.4464  0.2804 -0.0937
   33MOL   H185 7289   3.659   1.871   7.052  0.8131 -0.9787  0.1804
   33MOL   H186 7290   3.807   1.757   6.889  0.0813  0.9153  1.7799
   33MOL   H187 7291   3.634   1.999   6.574  1.7183  3.6738  0.2369
   33MOL   H188 7292   3.511   2.136   6.744  0.0912 -0.8290 -2.6693
   33MOL   C189 7293   3.605   2.172   7.362 -0.7880 -0.2923  0.3394
   33MOL   C190 7294   3.536   2.123   7.247 -0.8024 -0.0456  0.3308
   33MOL   C191 7295   3.590   2.139   7.116  0.7600 -0.1187 -0.0153
   33MOL   C192 7296   3.715   2.204   7.102 -0.4443 -0.1290 -0.1501
   33MOL   C193 7297   3.782   2.257   7.218 -0.7151  0.2811 -0.9907
   33MOL   C194 7298   3.730   2.232   7.347  0.3355  0.0198  0.1114
   33MOL   O195 7299   3.790   2.291   7.458 -0.2593  0.3040  0.5730
   33MOL   H196 7300   3.552   2.177   7.456 -1.7413 -0.2384 -0.1951
   33MOL   H197 7301   3.442   2.071   7.252 -0.5359 -0.9559 -2.7160
   33MOL   H198 7302   3.746   2.209   6.998 -1.4078 -0.5781 -0.4633
   33MOL   H199 7303   3.871   2.317   7.218 -1.7770  1.9144  0.4422
   33MOL   C200 7304   4.140   2.393   7.488 -0.2975 -0.7631  0.4070
   33MOL   C201 7305   4.000   2.398   7.488  0.3924  0.4464  0.1632
   33MOL   C202 7306   3.926   2.280   7.473  0.2481  0.4939  1.0989
   33MOL   C203 7307   3.993   2.148   7.469  0.0682  0.2385 -0.2504
   33MOL   C204 7308   4.137   2.146   7.498 -0.3559 -0.4330 -0.3380
   33MOL   C205 7309   4.204   2.265   7.511  0.8088 -0.5622 -0.5615
   33MOL   O206 7310   4.336   2.255   7.538  0.1315  0.4029 -0.0327
   33MOL   H207 7311   4.205   2.479   7.487 -2.6218  1.0516 -0.6635
   33MOL   H208 7312   3.940   2.488   7.493 -0.9099 -0.5184  2.4394
   33MOL   H209 7313   3.942   2.053   7.465  2.4430 -1.1023  0.0303
   33MOL   H210 7314   4.190   2.056   7.527 -0.0712  0.1866  1.1169
   33MOL   C211 7315   4.606   2.069   7.373 -0.4488 -0.2681  0.1159
   33MOL   C212 7316   4.521   2.115   7.469 -0.4505 -0.2498 -0.8982
   33MOL   C213 7317   4.423   2.210   7.444 -0.2899 -0.9373 -0.1067
   33MOL   C214 7318   4.404   2.257   7.308 -0.0251  0.0708 -0.0318
   33MOL   C215 7319   4.477   2.200   7.202  0.1029  0.2338  0.0379
   33MOL   C216 7320   4.582   2.105   7.237  0.0610  0.3817  0.4283
   33MOL   O217 7321   4.660   2.054   7.135  0.4226  0.2326  0.6982
   33MOL   H218 7322   4.683   2.002   7.409 -2.2758 -0.0109  4.8662
   33MOL   H219 7323   4.535   2.088   7.573 -1.3791 -2.2286 -1.2736
   33MOL   H220 7324   4.325   2.329   7.295  0.1886  0.3479  0.2030
   33MOL   H221 7325   4.449   2.214   7.099  2.2806 -1.9558 -0.9076
   33MOL   H222 7326   4.741   2.017   7.166  0.1536  0.2778  1.4681
   34MOL     C1 7327   1.178   1.306   0.066  0.0208 -0.3169 -0.5818
   34MOL     C2 7328   1.291   1.301   8.238 -0.5992  0.1086 -0.5396
   34MOL     C3 7329   1.348   1.177   8.203  0.8689  0.1379  0.5620
   34MOL     C4 7330   1.287   1.056   8.244  0.5534  0.5424  0.1253
   34MOL     C5 7331   1.170   1.062   0.069 -0.2572 -1.2181 -0.1875
   34MOL     C6 7332   1.114   1.191   0.106 -0.0768  0.1310  0.2313
   34MOL     O7 7333   0.990   1.194   0.172  0.2700  0.0708 -0.7045
   34MOL     H8 7334   1.132   1.402   0.087  0.8007  0.1663 -1.0644
   34MOL     H9 7335   1.336   1.388   8.194  2.3772 -0.9207  0.3221
   34MOL    H10 7336   1.327   0.963   8.207  1.9236  1.8860 -1.8522
   34MOL    H11 7337   1.121   0.970   0.097  0.1317 -1.2990  0.2381
   34MOL    H12 7338   1.435   1.172   8.140 -0.9350 -1.1788 -1.8804
   34MOL    C13 7339   1.011   1.216   0.547  0.2690 -0.7115  0.0557
   34MOL    C14 7340   1.029   1.167   0.416  0.1688  0.2892 -0.6883
   34MOL    C15 7341   0.992   1.237   0.303 -0.3488  0.4219  1.0838
   34MOL    C16 7342   0.943   1.371   0.318  0.9936  0.0098 -0.2327
   34MOL    C17 7343   0.914   1.420   0.446 -0.3195 -0.1752  0.4021
   34MOL    C18 7344   0.954   1.342   0.560 -0.1848 -0.0669  0.5518
   34MOL    O19 7345   0.912   1.373   0.691  0.0145 -0.4695 -0.2330
   34MOL    H20 7346   1.035   1.165   0.639 -1.0694 -1.0443  0.2386
   34MOL    H21 7347   1.063   1.065   0.409 -0.1415  0.1167  0.2476
   34MOL    H22 7348   0.922   1.432   0.232  2.0667  0.9683  0.1711
   34MOL    H23 7349   0.865   1.514   0.461  0.1134  0.7746 -3.5806
   34MOL    C24 7350   0.604   1.532   0.841  0.1463 -0.4063 -0.2310
   34MOL    C25 7351   0.737   1.491   0.819  0.1201 -0.9072  0.1779
   34MOL    C26 7352   0.781   1.413   0.712  0.4119 -0.4188  0.6122
   34MOL    C27 7353   0.680   1.354   0.637 -0.0289  0.0244  0.4016
   34MOL    C28 7354   0.547   1.386   0.655  0.2125 -0.0410  0.0676
   34MOL    C29 7355   0.507   1.479   0.753  0.2379 -0.7424  0.6936
   34MOL    O30 7356   0.374   1.520   0.772 -0.2203 -0.2661  0.0422
   34MOL    H31 7357   0.574   1.602   0.917  0.7244  1.4969 -1.7178
   34MOL    H32 7358   0.812   1.537   0.882 -0.6644  0.6502 -0.0015
   34MOL    H33 7359   0.703   1.288   0.554 -0.4726  1.5658 -0.9761
   34MOL    H34 7360   0.472   1.351   0.586 -0.7252  3.8690 -0.9954
   34MOL    C35 7361   0.166   1.378   1.049 -0.6587 -0.8088  0.1766
   34MOL    C36 7362   0.253   1.464   0.980 -0.2029 -0.1854  0.2126
   34MOL    C37 7363   0.285   1.439   0.841 -0.1091 -0.4643  0.5497
   34MOL    C38 7364   0.215   1.335   0.777 -0.0425  0.0659  0.2864
   34MOL    C39 7365   0.117   1.253   0.846  0.3858  0.1981  0.1931
   34MOL    C40 7366   0.096   1.279   0.983  0.9037  0.5004  0.0301
   34MOL    O41 7367   0.017   1.194   1.057 -0.8467 -0.2908  0.1381
   34MOL    H42 7368   0.148   1.385   1.155  2.0208  0.6001  0.5660
   34MOL    H43 7369   0.317   1.532   1.035  0.2284 -1.4368  1.2862
   34MOL    H44 7370   0.232   1.311   0.673  1.1035  1.7314  0.0725
   34MOL    H45 7371   0.066   1.168   0.804  0.3760 -0.2594  1.1361
   34MOL    C46 7372   0.239   0.894   1.127 -0.0992 -0.4926 -0.4000
   34MOL    C47 7373   0.203   1.032   1.108 -0.3751  1.3544  0.2307
   34MOL    C48 7374   0.064   1.067   1.079  0.1673  0.0953  0.6574
   34MOL    C49 7375   8.225   0.964   1.080  0.0228 -0.1687 -0.1930
   34MOL    C50 7376   0.010   0.829   1.097 -0.7306  0.1602 -0.5571
   34MOL    C51 7377   0.146   0.793   1.118 -0.7112 -0.2233 -0.2437
   34MOL    O52 7378   0.180   0.658   1.141 -0.2025  0.0607  0.0675
   34MOL    H53 7379   0.338   0.851   1.134  0.1655  0.5388  3.5878
   34MOL    H54 7380   0.272   1.114   1.121  0.6771  0.4636  0.3644
   34MOL    H55 7381   8.120   0.985   1.072  0.1533  0.0819 -1.2490
   34MOL    H56 7382   8.176   0.768   1.112 -1.7497  1.8554  0.5567
   34MOL    C57 7383   8.153   0.411   1.153  0.2673  0.1507  0.9277
   34MOL    C58 7384   8.234   0.524   1.181  0.1376  0.6537  0.0246
   34MOL    C59 7385   0.092   0.564   1.102  0.3022  0.5701  1.1761
   34MOL    C60 7386   0.119   0.483   0.989  0.4762 -0.3823  0.1273
   34MOL    C61 7387   0.040   0.366   0.967  0.0226  0.1746  0.0137
   34MOL    C62 7388   8.177   0.333   1.043  0.2959  0.9350 -0.0471
   34MOL    O63 7389   8.096   0.236   1.010  0.0932 -0.3296  1.1146
   34MOL    H64 7390   8.069   0.404   1.221 -0.4108 -0.9394 -0.0083
   34MOL    H65 7391   8.219   0.576   1.274  1.3975  0.6343  0.2535
   34MOL    H66 7392   0.193   0.501   0.913  0.7922 -0.5636  0.3939
   34MOL    H67 7393   0.063   0.306   0.880  1.8031 -1.8437  1.8115
   34MOL    C68 7394   7.797   0.402   0.849 -0.5691  0.9135  0.1022
   34MOL    C69 7395   7.932   0.386   0.889  0.1876 -0.7828 -0.2382
   34MOL    C70 7396   7.968   0.269   0.961 -0.5720 -0.9104 -0.0304
   34MOL    C71 7397   7.867   0.185   1.003  0.2435 -0.4107  0.3747
   34MOL    C72 7398   7.729   0.212   0.970 -0.4333 -0.1724 -0.0890
   34MOL    C73 7399   7.700   0.313   0.885 -0.1690 -0.7733  0.9140
   34MOL    O74 7400   7.575   0.323   0.821 -0.1283 -0.2687 -0.0848
   34MOL    H75 7401   7.767   0.483   0.784  1.2511  1.8560  0.3708
   34MOL    H76 7402   7.997   0.461   0.845 -0.1141  0.3179  1.1564
   34MOL    H77 7403   7.898   0.105   1.069  1.6327  0.1252  0.3907
   34MOL    H78 7404   7.649   0.150   1.008 -1.1958 -0.1307 -1.6062
   34MOL    C79 7405   7.646   0.177   0.489 -0.0785  0.1643  0.2075
   34MOL    C80 7406   7.615   0.273   0.591 -0.7294 -0.0476 -0.1836
   34MOL    C81 7407   7.563   0.233   0.711  0.0510 -0.5508  0.4962
   34MOL    C82 7408   7.516   0.102   0.726 -0.2433  0.2688 -0.4148
   34MOL    C83 7409   7.549   8.253   0.631  0.7524  0.6825  0.2093
   34MOL    C84 7410   7.608   0.040   0.508 -0.2132  0.1658  0.3504
   34MOL    O85 7411   7.636   8.197   0.416 -0.0696  0.3145 -0.0824
   34MOL    H86 7412   7.695   0.209   0.399 -1.2112  0.5567 -0.2724
   34MOL    H87 7413   7.641   0.377   0.576 -0.6536 -0.4512 -3.1177
   34MOL    H88 7414   7.472   0.059   0.815  0.2426 -1.7956 -1.1479
   34MOL    H89 7415   7.529   8.147   0.643  3.6771  0.1291  0.5486
   34MOL    C90 7416   7.390   7.946   0.324  0.3196 -0.1497  0.1572
   34MOL    C91 7417   7.497   8.009   0.390 -0.3962 -0.5021  0.2810
   34MOL    C92 7418   7.531   8.139   0.356 -1.2258 -0.2132  0.7277
   34MOL    C93 7419   7.460   8.215   0.263  0.8120 -0.1960  0.0560
   34MOL    C94 7420   7.353   8.157   0.199  0.1039  0.1623 -0.1524
   34MOL    C95 7421   7.321   8.023   0.231  0.4672 -0.2074 -0.1201
   34MOL    O96 7422   7.224   7.962   0.164  0.1525 -0.2983  0.0981
   34MOL    H97 7423   7.354   7.844   0.338  0.1127 -0.1196 -0.1545
   34MOL    H98 7424   7.540   7.943   0.465 -0.3086  0.5699  1.1761
   34MOL    H99 7425   7.485   0.063   0.241  2.4477 -0.1403  2.0067
   34MOL   H100 7426   7.295   8.217   0.131 -2.2011 -1.1068  0.6395
   34MOL   C101 7427   6.925   7.949   0.363 -0.2541 -0.1523 -0.5850
   34MOL   C102 7428   7.027   8.002   0.280  0.8114  0.0598 -0.9058
   34MOL   C103 7429   7.124   7.911   0.240  0.4344  0.4169  0.1739
   34MOL   C104 7430   7.121   7.776   0.278 -0.0161 -0.0158  0.1814
   34MOL   C105 7431   7.022   7.725   0.367 -0.1345 -0.1316  0.8313
   34MOL   C106 7432   6.919   7.815   0.408 -0.3752  0.3164 -0.3765
   34MOL   O107 7433   6.836   7.775   0.508 -0.1690  0.0413  0.9728
   34MOL   H108 7434   6.857   8.022   0.406 -0.4641 -1.0861  0.6943
   34MOL   H109 7435   7.024   8.106   0.253  1.6446  0.3098 -0.0482
   34MOL   H110 7436   7.200   7.706   0.256 -1.0554 -0.7801 -1.1706
   34MOL   H111 7437   7.028   7.620   0.391  0.1763 -0.0756  0.9929
   34MOL   C112 7438   6.548   8.008   0.545 -0.2833  0.2088 -0.1341
   34MOL   C113 7439   6.674   7.949   0.566  0.4816  0.0113  0.5477
   34MOL   C114 7440   6.704   7.823   0.503 -0.7701  0.0225 -0.0666
   34MOL   C115 7441   6.606   7.755   0.429 -0.4887  0.3141  0.2119
   34MOL   C116 7442   6.478   7.809   0.422 -0.0664 -0.1993 -1.0546
   34MOL   C117 7443   6.448   7.941   0.472  0.2826  0.4263 -0.8937
   34MOL   O118 7444   6.320   8.007   0.459  0.0834  0.7070 -0.0266
   34MOL   H119 7445   6.519   8.103   0.586 -2.2693 -0.1367 -0.6456
   34MOL   H120 7446   6.746   7.995   0.632  1.6165 -2.9673  1.4255
   34MOL   H121 7447   6.632   7.664   0.378  5.1234  2.4543 -1.0659
   34MOL   H122 7448   6.406   7.747   0.371  3.0064 -1.7661 -3.7406
   34MOL   C123 7449   6.021   7.803   0.429  0.4715 -0.5238 -0.6778
   34MOL   C124 7450   6.129   7.878   0.487 -0.0411 -0.3812  0.1625
   34MOL   C125 7451   6.219   7.944   0.404  0.5408  0.4003 -0.5898
   34MOL   C126 7452   6.210   7.931   0.265 -0.4754  0.4121 -0.5783
   34MOL   C127 7453   6.101   7.862   0.202 -0.2903  0.3963 -0.9394
   34MOL   C128 7454   5.999   7.811   0.286 -0.0633  0.7546  0.2853
   34MOL   O129 7455   5.884   7.758   0.230 -0.3725  0.7103  0.1028
   34MOL   H130 7456   5.955   7.744   0.491  1.5008 -2.9343 -1.8148
   34MOL   H131 7457   6.144   7.882   0.594 -0.6626 -1.1026  0.2798
   34MOL   H132 7458   6.270   7.996   0.203 -1.3158  0.6043 -1.2108
   34MOL   H133 7459   6.098   7.866   0.094  2.1056  0.9540 -1.0205
   34MOL   C134 7460   5.559   7.883   0.351  0.2581 -0.6343  0.4638
   34MOL   C135 7461   5.686   7.885   0.287 -0.3263 -0.3616  0.1213
   34MOL   C136 7462   5.762   7.767   0.293  0.2010 -0.2858 -0.3424
   34MOL   C137 7463   5.708   7.649   0.360 -0.1356 -0.2146 -0.2532
   34MOL   C138 7464   5.587   7.647   0.419 -0.5354  0.3361  0.0892
   34MOL   C139 7465   5.514   7.767   0.418 -0.5665 -0.6124  0.3479
   34MOL   O140 7466   5.400   7.776   0.494 -0.1423  0.4028 -0.4454
   34MOL   H141 7467   5.495   7.969   0.341 -1.0622 -1.6842 -0.3186
   34MOL   H142 7468   5.727   7.971   0.235 -0.1556 -0.3841  0.2184
   34MOL   H143 7469   5.774   7.564   0.373 -2.4000 -2.0258 -0.3878
   34MOL   H144 7470   5.553   7.552   0.458 -0.5699 -0.1871 -1.1820
   34MOL   C145 7471   5.305   8.021   0.751 -0.1974 -0.6089 -0.5958
   34MOL   C146 7472   5.317   7.950   0.627  0.3512  0.5631  0.4555
   34MOL   C147 7473   5.403   7.842   0.615  0.4085  0.1597 -1.2582
   34MOL   C148 7474   5.473   7.792   0.734  0.5893  0.0302  0.1227
   34MOL   C149 7475   5.462   7.863   0.851  0.2988  0.0655 -0.2985
   34MOL   C150 7476   5.376   7.974   0.860 -0.4533 -0.9973 -0.5821
   34MOL   O151 7477   5.352   8.035   0.976  0.2786  0.6476  0.0599
   34MOL   H152 7478   5.242   8.108   0.743  1.1267  0.4105 -0.2041
   34MOL   H153 7479   5.255   7.962   0.540  2.1588  2.2448 -0.6110
   34MOL   H154 7480   5.538   7.707   0.723  0.7550  0.1669  0.0260
   34MOL   H155 7481   5.509   7.826   0.942  0.9306 -2.0537 -1.4569
   34MOL   C156 7482   5.431   0.090   1.158  0.2013  0.0827  0.3174
   34MOL   C157 7483   5.360   8.239   1.103 -0.5856  0.3834  0.9612
   34MOL   C158 7484   5.423   8.145   1.017 -0.6312 -0.7929 -0.2696
   34MOL   C159 7485   5.558   8.164   0.973  0.7234 -0.6507 -0.1763
   34MOL   C160 7486   5.632   0.011   1.035  0.4716 -0.9917  0.2374
   34MOL   C161 7487   5.572   0.097   1.130  0.2093 -0.2639 -0.5551
   34MOL   O162 7488   5.655   0.182   1.193 -0.4173 -0.2157  0.6114
   34MOL   H163 7489   5.390   0.163   1.225  0.6896 -1.0137  1.8412
   34MOL   H164 7490   5.255   8.226   1.128 -1.2545  0.8828 -1.4213
   34MOL   H165 7491   5.614   8.095   0.911 -1.0452 -0.1241 -2.4094
   34MOL   H166 7492   5.734   0.035   1.009  0.5929 -1.2437  0.4751
   34MOL   C167 7493   5.632   0.532   1.082 -0.5852 -0.1939 -0.3016
   34MOL   C168 7494   5.604   0.413   1.155 -0.6066  0.1268  0.1459
   34MOL   C169 7495   5.680   0.301   1.121 -0.0142 -0.1274  0.3509
   34MOL   C170 7496   5.785   0.311   1.019 -0.3143  0.4657  0.4342
   34MOL   C171 7497   5.804   0.434   0.953 -0.7155  0.0872  0.0378
   34MOL   C172 7498   5.732   0.549   0.988 -0.1741  0.8477 -0.1648
   34MOL   O173 7499   5.758   0.671   0.933  0.2513 -0.1932 -0.0084
   34MOL   H174 7500   5.582   0.626   1.100  1.1036  1.0410 -1.8026
   34MOL   H175 7501   5.530   0.401   1.233 -0.3906  1.4576  0.5774
   34MOL   H176 7502   5.842   0.224   0.990 -1.8869 -0.3600 -0.2040
   34MOL   H177 7503   5.879   0.455   0.878 -0.3533 -0.4470  0.2463
   34MOL   C178 7504   5.630   0.720   0.595 -0.2899 -0.0220  0.5110
   34MOL   C179 7505   5.631   0.690   0.733 -0.0751  0.0252 -0.0475
   34MOL   C180 7506   5.755   0.680   0.798 -0.1568 -0.1307 -0.2568
   34MOL   C181 7507   5.880   0.696   0.729 -0.0194  0.0258  1.0765
   34MOL   C182 7508   5.877   0.717   0.588  0.1296 -0.3137  0.4512
   34MOL   C183 7509   5.753   0.735   0.518  0.5432 -0.6375 -0.5011
   34MOL   O184 7510   5.763   0.766   0.383  0.4229 -0.3473 -0.0818
   34MOL   H185 7511   5.533   0.728   0.546 -0.0560 -1.1834 -0.1574
   34MOL   H186 7512   5.545   0.660   0.792 -0.5345 -1.1751 -1.3102
   34MOL   H187 7513   5.975   0.689   0.780  1.1974 -2.3916 -1.4269
   34MOL   H188 7514   5.967   0.739   0.533  1.5104 -0.6504  2.4805
   34MOL   C189 7515   5.643   0.504   0.169  0.1593  0.4479  0.4947
   34MOL   C190 7516   5.709   0.582   0.262 -0.0654 -1.9094 -0.0951
   34MOL   C191 7517   5.675   0.710   0.301  0.7963  0.6603  0.0073
   34MOL   C192 7518   5.560   0.770   0.243 -0.3201 -0.1714  0.2798
   34MOL   C193 7519   5.485   0.688   0.152 -0.4718 -0.4024 -0.4018
   34MOL   C194 7520   5.526   0.563   0.109 -0.2715  0.0280 -0.2088
   34MOL   O195 7521   5.450   0.494   0.017 -0.1552  0.6384 -0.2979
   34MOL   H196 7522   5.688   0.410   0.140 -1.0470 -0.1429  0.5056
   34MOL   H197 7523   5.799   0.555   0.315  0.5545  3.0289  1.6316
   34MOL   H198 7524   5.513   0.862   0.275  0.5725  0.4734 -0.2679
   34MOL   H199 7525   5.385   0.723   0.130 -0.2354  1.5918  1.5004
   34MOL   C200 7526   5.591   0.474   7.927  0.1068  0.4313  0.1169
   34MOL   C201 7527   5.531   0.518   8.044 -0.0158  0.1794 -0.7497
   34MOL   C202 7528   5.516   0.439   8.158 -0.4408 -0.2095 -0.1000
   34MOL   C203 7529   5.577   0.312   8.163  0.1283  0.4684  0.1480
   34MOL   C204 7530   5.643   0.266   8.042 -0.2533  0.2022 -0.9492
   34MOL   C205 7531   5.648   0.343   7.922  0.3939  0.2317 -0.6791
   34MOL   O206 7532   5.702   0.292   7.804 -0.1827  0.7037  0.1955
   34MOL   H207 7533   5.599   0.543   7.845 -1.3528  1.7922  1.0971
   34MOL   H208 7534   5.485   0.616   8.041  0.8692  0.6029 -0.5189
   34MOL   H209 7535   5.584   0.245   8.248  0.7555 -1.3497 -1.2957
   34MOL   H210 7536   5.690   0.169   8.041 -0.7347 -0.0353 -0.5727
   34MOL   C211 7537   6.051   0.197   7.781  0.7007  0.1446  0.4018
   34MOL   C212 7538   5.939   0.275   7.807 -0.6705 -0.4786  0.9786
   34MOL   C213 7539   5.814   0.213   7.801 -0.1098  0.2043  0.4670
   34MOL   C214 7540   5.794   0.072   7.777  0.6387  0.3119  0.0849
   34MOL   C215 7541   5.911   8.252   7.753 -0.3064  0.6939 -0.0468
   34MOL   C216 7542   6.038   0.055   7.757 -0.1048  0.1894  0.2411
   34MOL   O217 7543   6.156   8.237   7.734 -0.0796 -0.1307  0.0639
   34MOL   H218 7544   6.149   0.241   7.775  0.7233 -0.1486 -1.6612
   34MOL   H219 7545   5.947   0.380   7.831 -0.2264 -0.6037  1.3965
   34MOL   H220 7546   5.697   0.026   7.790  1.3048 -0.8504  1.0919
   34MOL   H221 7547   5.882   8.148   7.746 -0.3603  0.5548  2.0692
   34MOL   H222 7548   6.150   8.152   7.693  1.7726  0.5890 -1.7432
   35MOL     C1 7549   6.952   0.881   7.444  0.3298  0.2974 -0.3305
   35MOL     C2 7550   6.961   0.777   7.349 -0.0123 -0.0564  0.6176
   35MOL     C3 7551   6.846   0.727   7.289 -0.2764  0.5911 -0.6224
   35MOL     C4 7552   6.715   0.772   7.338  0.3183 -0.3707  0.3124
   35MOL     C5 7553   6.707   0.867   7.440  0.2259  0.0854  0.0864
   35MOL     C6 7554   6.823   0.925   7.490  0.1136  0.2665 -0.7625
   35MOL     O7 7555   6.809   1.025   7.585 -0.1137  0.1332 -0.3873
   35MOL     H8 7556   7.043   0.929   7.478 -0.9670  0.9956  2.3261
   35MOL     H9 7557   7.061   0.757   7.315  0.9798  2.2126  2.0907
   35MOL    H10 7558   6.630   0.739   7.280 -0.6838  0.4540  1.2879
   35MOL    H11 7559   6.615   0.908   7.479 -1.4473 -0.7816 -2.7512
   35MOL    H12 7560   6.855   0.652   7.212 -0.0028  1.1540 -1.1516
   35MOL    C13 7561   7.012   0.929   7.882  0.0938  0.1076 -0.1971
   35MOL    C14 7562   6.912   0.926   7.778 -1.8719  0.0215 -0.0068
   35MOL    C15 7563   6.895   1.034   7.693 -0.4216  0.5087 -0.6325
   35MOL    C16 7564   6.966   1.154   7.714  0.3094 -0.1742 -0.0262
   35MOL    C17 7565   7.058   1.161   7.818  0.0544 -0.4770 -0.2937
   35MOL    C18 7566   7.080   1.053   7.901  0.6424 -0.4049 -0.6015
   35MOL    O19 7567   7.170   1.062   7.999  0.0948  0.1208  0.0385
   35MOL    H20 7568   7.022   0.847   7.951  1.3830 -0.1222 -0.6324
   35MOL    H21 7569   6.854   0.835   7.773 -0.2550 -0.9279 -2.8079
   35MOL    H22 7570   6.963   1.236   7.643 -0.7100 -0.5747 -0.4633
   35MOL    H23 7571   7.125   1.243   7.840 -0.0357 -0.7460  1.0633
   35MOL    C24 7572   7.028   0.996   0.086 -0.6112 -1.2458 -0.4849
   35MOL    C25 7573   7.077   0.973   8.210  0.3046 -0.1114 -0.2582
   35MOL    C26 7574   7.131   1.078   8.132 -0.1987  0.7980  0.3367
   35MOL    C27 7575   7.144   1.204   8.193  0.3081  0.4860 -0.6024
   35MOL    C28 7576   7.088   1.230   0.067 -0.1611 -0.1858 -0.2902
   35MOL    C29 7577   7.043   1.123   0.143 -0.4728 -0.5157  0.3219
   35MOL    O30 7578   7.006   1.153   0.274  0.3073  0.0666 -0.1912
   35MOL    H31 7579   6.999   0.912   0.147 -2.1421  1.2921  2.3884
   35MOL    H32 7580   7.073   0.873   8.169  1.3886 -0.2519 -0.0519
   35MOL    H33 7581   7.196   1.278   8.134 -1.1175  1.2210 -0.9502
   35MOL    H34 7582   7.096   1.328   0.113 -0.8558 -0.0645 -0.4342
   35MOL    C35 7583   6.641   1.128   0.315  0.3128 -0.2078  0.9026
   35MOL    C36 7584   6.766   1.173   0.273 -0.4005 -0.3989 -0.0182
   35MOL    C37 7585   6.882   1.107   0.315 -0.0296  0.4222 -0.1109
   35MOL    C38 7586   6.878   0.985   0.378 -0.6028 -0.6438  0.3090
   35MOL    C39 7587   6.749   0.930   0.414  0.5514 -0.3198 -0.0821
   35MOL    C40 7588   6.638   1.005   0.387 -0.2881 -0.3735 -0.7700
   35MOL    O41 7589   6.516   0.952   0.417  0.0702 -0.2746 -0.0554
   35MOL    H42 7590   6.546   1.174   0.290  0.5001 -0.0912  0.4009
   35MOL    H43 7591   6.779   1.252   0.201  3.4781 -1.5067 -0.6661
   35MOL    H44 7592   6.966   0.923   0.391 -0.5110 -1.3402 -3.1412
   35MOL    H45 7593   6.748   0.838   0.470  1.2634 -0.1185  0.2696
   35MOL    C46 7594   6.414   1.139   0.715  0.7041  0.8752 -0.6130
   35MOL    C47 7595   6.467   1.116   0.589  0.0255  0.2868  0.4829
   35MOL    C48 7596   6.449   0.992   0.528  0.2055  0.0267 -0.2882
   35MOL    C49 7597   6.364   0.897   0.596 -0.1281  0.0069 -0.1726
   35MOL    C50 7598   6.308   0.929   0.721  0.1071  0.6831 -0.4398
   35MOL    C51 7599   6.330   1.048   0.783  0.2555 -0.2372 -0.2414
   35MOL    O52 7600   6.276   1.052   0.909  0.3202  0.1608  0.2229
   35MOL    H53 7601   6.406   1.239   0.755 -0.5410  0.0687  1.1903
   35MOL    H54 7602   6.539   1.186   0.549 -0.7356 -0.1556 -1.7126
   35MOL    H55 7603   6.354   0.798   0.556 -1.0493 -0.3014  0.7862
   35MOL    H56 7604   6.234   0.861   0.761  0.4799 -0.0262 -0.9349
   35MOL    C57 7605   6.476   1.221   1.179 -0.8521  0.5343  0.0137
   35MOL    C58 7606   6.434   1.122   1.089  0.2862  0.6557 -0.1737
   35MOL    C59 7607   6.331   1.145   0.992  0.0660 -0.7970 -0.0749
   35MOL    C60 7608   6.284   1.279   0.978  0.2581  0.2387  0.2920
   35MOL    C61 7609   6.328   1.377   1.071 -0.4163 -0.3780  0.1448
   35MOL    C62 7610   6.422   1.351   1.175  0.2351  0.4764  0.2739
   35MOL    O63 7611   6.453   1.442   1.263 -0.1910  0.2760 -0.5661
   35MOL    H64 7612   6.556   1.199   1.248 -2.8490  0.2702  2.2797
   35MOL    H65 7613   6.475   1.023   1.093 -1.3609  0.0390  2.9124
   35MOL    H66 7614   6.211   1.294   0.899  0.2971  0.7355  0.3494
   35MOL    H67 7615   6.294   1.478   1.054  0.7238 -0.0250 -0.0738
   35MOL    C68 7616   6.225   1.366   1.552 -0.4846  0.1350 -0.5642
   35MOL    C69 7617   6.274   1.372   1.420 -0.0009  0.7499 -0.0918
   35MOL    C70 7618   6.400   1.427   1.391  0.1271 -0.8484 -0.3527
   35MOL    C71 7619   6.466   1.493   1.498 -0.0205  0.2423 -0.2692
   35MOL    C72 7620   6.418   1.492   1.633 -0.0370  0.2665 -0.5767
   35MOL    C73 7621   6.293   1.430   1.653  0.0482 -0.3205 -0.3307
   35MOL    O74 7622   6.245   1.433   1.779  0.4599 -0.1521  0.1840
   35MOL    H75 7623   6.130   1.320   1.570 -0.7871  1.7739  2.3577
   35MOL    H76 7624   6.218   1.322   1.343 -0.1007 -1.0667  1.1362
   35MOL    H77 7625   6.562   1.540   1.479  1.0222 -1.3108  1.0332
   35MOL    H78 7626   6.465   1.538   1.718  0.2122 -0.5207 -0.2787
   35MOL    C79 7627   6.314   1.110   1.947  0.5280 -0.0271  0.2275
   35MOL    C80 7628   6.258   1.203   1.858 -0.5235  0.3839 -0.1389
   35MOL    C81 7629   6.274   1.339   1.874  0.1993  0.2957  0.1346
   35MOL    C82 7630   6.333   1.387   1.990  0.1643 -0.0539 -0.3528
   35MOL    C83 7631   6.388   1.300   2.091  0.3743 -0.0716  0.2669
   35MOL    C84 7632   6.376   1.161   2.070  0.3831  0.2652 -0.2115
   35MOL    O85 7633   6.419   1.078   2.166  0.3731 -0.2550 -0.0289
   35MOL    H86 7634   6.315   1.003   1.934  0.7954  0.2045 -1.7344
   35MOL    H87 7635   6.212   1.167   1.767  2.7601 -2.8402 -0.6293
   35MOL    H88 7636   6.341   1.495   2.001 -0.5702 -0.0688  0.4224
   35MOL    H89 7637   6.442   1.342   2.175 -1.5167  0.2813  1.3505
   35MOL    C90 7638   6.358   0.722   2.246  1.0243  0.1975  0.4704
   35MOL    C91 7639   6.424   0.839   2.201  0.4226  0.1452 -0.4284
   35MOL    C92 7640   6.357   0.962   2.190  0.1224  0.3214 -0.1051
   35MOL    C93 7641   6.217   0.959   2.222  0.5579  0.1073 -0.0265
   35MOL    C94 7642   6.151   0.844   2.265 -0.1062  0.1459 -0.2869
   35MOL    C95 7643   6.227   0.728   2.285  0.5960  0.4048 -0.1278
   35MOL    O96 7644   6.174   0.611   2.338  0.6725 -0.1872  0.6531
   35MOL    H97 7645   6.410   0.629   2.265  0.3806 -0.1555  0.5080
   35MOL    H98 7646   6.530   0.846   2.182  0.4427 -0.6228 -0.6101
   35MOL    H99 7647   6.155   1.047   2.219  1.8667  1.0729  0.7293
   35MOL   H100 7648   6.047   0.847   2.295 -0.0270  0.1507 -0.0136
   35MOL   C101 7649   5.850   0.565   2.502  0.1568  0.2014  0.6121
   35MOL   C102 7650   5.963   0.556   2.413 -0.0013 -0.1665 -0.3060
   35MOL   C103 7651   6.085   0.620   2.436  0.5023  0.3353 -0.3937
   35MOL   C104 7652   6.111   0.680   2.563  0.3981  0.4657  0.4170
   35MOL   C105 7653   5.998   0.693   2.648  0.0554  0.3530 -0.9175
   35MOL   C106 7654   5.869   0.636   2.624 -0.0528 -0.1914  0.5440
   35MOL   O107 7655   5.776   0.662   2.718  0.3840  0.1523  0.4579
   35MOL   H108 7656   5.756   0.525   2.469 -0.0481  0.3324  1.0365
   35MOL   H109 7657   5.959   0.511   2.315  0.8573 -2.4819  0.7052
   35MOL   H110 7658   6.207   0.727   2.580  1.7415 -1.1664 -2.3602
   35MOL   H111 7659   6.004   0.763   2.730  0.2395 -1.3368  0.5388
   35MOL   C112 7660   5.802   0.393   2.963 -0.4905 -0.4151  0.7481
   35MOL   C113 7661   5.842   0.500   2.880 -0.2381  0.4124  0.0868
   35MOL   C114 7662   5.742   0.553   2.797  0.0933 -0.8884 -0.8028
   35MOL   C115 7663   5.613   0.498   2.790  0.5381 -0.5584 -0.5038
   35MOL   C116 7664   5.579   0.386   2.870 -0.4271 -0.0872  0.4936
   35MOL   C117 7665   5.676   0.334   2.959 -0.0273  0.2378  0.0525
   35MOL   O118 7666   5.652   0.213   3.019  0.5028 -0.2807  0.4936
   35MOL   H119 7667   5.869   0.337   3.026  0.8437  0.0574 -0.2068
   35MOL   H120 7668   5.937   0.548   2.893  1.0807 -1.9052 -0.7443
   35MOL   H121 7669   5.545   0.543   2.719  0.8822  0.6131 -0.1137
   35MOL   H122 7670   5.483   0.342   2.844 -1.0479  2.5104 -1.8623
   35MOL   C123 7671   5.568   0.308   3.360 -0.1134  0.1580  0.3170
   35MOL   C124 7672   5.635   0.305   3.235 -1.1968 -0.7791 -0.0938
   35MOL   C125 7673   5.594   0.214   3.141  1.0579 -0.7168 -0.0149
   35MOL   C126 7674   5.481   0.130   3.169 -0.7124  0.0210  0.5582
   35MOL   C127 7675   5.429   0.126   3.301  0.1399  0.7939  0.2556
   35MOL   C128 7676   5.470   0.217   3.393 -0.4095 -0.2907 -0.4163
   35MOL   O129 7677   5.397   0.218   3.506 -0.0867  0.4847 -0.5444
   35MOL   H130 7678   5.589   0.388   3.430 -0.4650  0.1332  0.4503
   35MOL   H131 7679   5.719   0.368   3.209 -2.2938 -0.0659 -1.9539
   35MOL   H132 7680   5.452   0.064   3.089  0.2397 -0.3301  0.4943
   35MOL   H133 7681   5.343   0.064   3.320 -0.0331  0.3792 -1.7874
   35MOL   C134 7682   5.444   0.168   3.862 -0.4327  0.1793  0.3050
   35MOL   C135 7683   5.399   0.219   3.740  0.0048 -0.6685 -0.2318
   35MOL   C136 7684   5.446   0.163   3.621  0.0879 -0.3790  0.6835
   35MOL   C137 7685   5.538   0.057   3.627 -0.2995 -0.0344 -0.1291
   35MOL   C138 7686   5.585   0.001   3.751  0.4374 -0.3466  0.4571
   35MOL   C139 7687   5.540   0.063   3.867 -0.4635 -0.8698 -0.0632
   35MOL   O140 7688   5.584   0.004   3.980 -0.5820  0.0372  0.0407
   35MOL   H141 7689   5.413   0.192   3.963  0.0552 -0.8600  0.7087
   35MOL   H142 7690   5.330   0.302   3.743 -0.7438 -1.2346 -1.5599
   35MOL   H143 7691   5.565   0.013   3.532  0.9487  0.6584 -0.1051
   35MOL   H144 7692   5.640   8.162   3.758  0.3035 -0.6329 -1.8308
   35MOL   C145 7693   5.313   8.035   4.080 -0.5764  0.2555 -0.5336
   35MOL   C146 7694   5.421   8.089   4.013 -0.0154 -0.4326  0.1332
   35MOL   C147 7695   5.485   8.201   4.054 -0.6872 -0.0679  0.1102
   35MOL   C148 7696   5.448   0.004   4.179  0.3455 -0.0441 -0.3701
   35MOL   C149 7697   5.346   8.200   4.254  0.0168  0.6262 -0.1125
   35MOL   C150 7698   5.272   8.091   4.206 -0.4022 -0.6091  0.2556
   35MOL   O151 7699   5.173   8.032   4.278  0.8013 -0.6458 -0.3404
   35MOL   H152 7700   5.267   7.942   4.049 -0.4417  0.9194 -2.7790
   35MOL   H153 7701   5.451   8.039   3.922  0.6457  0.6224 -0.2430
   35MOL   H154 7702   5.494   0.089   4.228 -0.9729  1.9250 -2.4067
   35MOL   H155 7703   5.312   8.233   4.350  3.7961  1.6929  0.9433
   35MOL   C156 7704   5.292   7.835   4.563 -0.1408  0.8178 -0.3082
   35MOL   C157 7705   5.284   7.886   4.433  0.1201 -0.3964 -0.0039
   35MOL   C158 7706   5.204   7.997   4.402  0.2786  0.0165 -1.0674
   35MOL   C159 7707   5.138   8.068   4.510 -0.4014 -0.4052  0.0448
   35MOL   C160 7708   5.161   8.029   4.638  0.6266 -0.5343 -0.6137
   35MOL   C161 7709   5.225   7.902   4.670 -0.1074 -0.6506  1.0517
   35MOL   O162 7710   5.232   7.857   4.796  0.7150 -0.4129  0.1920
   35MOL   H163 7711   5.339   7.742   4.589 -2.2982 -0.6811 -1.6960
   35MOL   H164 7712   5.323   7.841   4.343 -1.0816  0.9842 -1.2451
   35MOL   H165 7713   5.083   8.159   4.492  0.6562 -0.0413 -1.4348
   35MOL   H166 7714   5.105   8.085   4.711  0.0923 -1.1853 -0.5171
   35MOL   C167 7715   5.108   7.551   4.958  0.5162  0.5584  0.2125
   35MOL   C168 7716   5.190   7.648   4.911  0.5095  0.8437  0.3420
   35MOL   C169 7717   5.142   7.755   4.830 -0.6131 -0.0112  0.0704
   35MOL   C170 7718   5.005   7.756   4.798 -1.0129  0.0932 -0.3717
   35MOL   C171 7719   4.918   7.654   4.841 -0.0361  0.7747  0.3784
   35MOL   C172 7720   4.973   7.548   4.923  0.6802  1.1576 -0.4174
   35MOL   O173 7721   4.890   7.442   4.960  0.0145 -0.0678  0.0672
   35MOL   H174 7722   5.148   7.468   5.014  0.8756  0.2948 -0.4387
   35MOL   H175 7723   5.293   7.642   4.942  0.4520  0.7878  0.5257
   35MOL   H176 7724   4.963   7.843   4.750 -1.6424  0.2949  0.5216
   35MOL   H177 7725   4.816   7.647   4.805  0.0570  1.6830 -0.0534
   35MOL   C178 7726   4.577   7.563   5.112 -0.2196  0.1923  0.3033
   35MOL   C179 7727   4.707   7.565   5.068 -0.1590  0.8736 -0.0885
   35MOL   C180 7728   4.762   7.460   4.987 -0.4954  0.4322 -0.2175
   35MOL   C181 7729   4.672   7.362   4.940 -0.0147  0.0219  0.1802
   35MOL   C182 7730   4.540   7.364   4.979  0.2283 -0.2328  0.8116
   35MOL   C183 7731   4.490   7.464   5.066 -0.0506  0.1205 -0.5480
   35MOL   O184 7732   4.357   7.461   5.103  0.1846 -0.9279 -0.1446
   35MOL   H185 7733   4.535   7.643   5.172  0.2269  1.8863 -1.5539
   35MOL   H186 7734   4.770   7.642   5.109 -0.2469  0.4058  0.9570
   35MOL   H187 7735   4.709   7.287   4.871 -1.1064 -0.2459 -0.1388
   35MOL   H188 7736   4.481   7.283   4.939 -0.4597 -0.2562  1.8597
   35MOL   C189 7737   4.248   7.692   5.377 -0.6232  0.2311  0.0607
   35MOL   C190 7738   4.287   7.641   5.249  0.0500 -0.1980 -0.5591
   35MOL   C191 7739   4.322   7.508   5.231  0.8886 -0.3687  0.0620
   35MOL   C192 7740   4.326   7.422   5.338 -0.6525  1.1617 -0.8932
   35MOL   C193 7741   4.292   7.467   5.469  0.5225  0.1194  0.6379
   35MOL   C194 7742   4.245   7.600   5.487 -0.0234  0.3583 -0.4541
   35MOL   O195 7743   4.197   7.641   5.611 -0.1564 -0.0081  0.0055
   35MOL   H196 7744   4.216   7.795   5.377 -2.1489 -0.2294  0.6210
   35MOL   H197 7745   4.275   7.704   5.163 -1.4419 -1.2686 -1.1588
   35MOL   H198 7746   4.342   7.319   5.309  0.8153  1.4347 -1.0870
   35MOL   H199 7747   4.283   7.408   5.559  2.2095  0.1093  0.8214
   35MOL   C200 7748   4.411   7.908   5.741  0.7884 -0.4204 -0.4444
   35MOL   C201 7749   4.363   7.788   5.691  0.3905 -0.6246 -0.6228
   35MOL   C202 7750   4.233   7.771   5.647 -0.1599  0.2133  0.1717
   35MOL   C203 7751   4.144   7.880   5.648 -0.7722  0.5333  0.2122
   35MOL   C204 7752   4.186   8.000   5.702  0.0092 -0.0218  0.1787
   35MOL   C205 7753   4.315   8.020   5.746 -0.5936  0.1486 -0.0031
   35MOL   O206 7754   4.348   8.139   5.802 -0.3674 -0.4272  0.4951
   35MOL   H207 7755   4.512   7.905   5.779  0.8858 -1.1973 -0.7666
   35MOL   H208 7756   4.425   7.699   5.697 -0.1351 -1.0608 -1.5000
   35MOL   H209 7757   4.046   7.872   5.602  0.0148  0.9130 -1.6021
   35MOL   H210 7758   4.118   8.084   5.708 -1.4397 -1.2785  1.6276
   35MOL   C211 7759   4.696   8.254   5.716 -0.2600  0.2527 -0.7164
   35MOL   C212 7760   4.594   8.181   5.776  0.4829  0.0513  0.0462
   35MOL   C213 7761   4.458   8.199   5.738  0.1597  0.0162 -0.7836
   35MOL   C214 7762   4.434   0.042   5.635 -0.4037 -0.7325  0.4718
   35MOL   C215 7763   4.539   0.118   5.578  0.9102 -0.5973 -0.1764
   35MOL   C216 7764   4.667   0.098   5.622 -0.5447  0.0280 -0.0774
   35MOL   O217 7765   4.762   0.170   5.560 -0.2145 -0.4232 -0.0600
   35MOL   H218 7766   4.799   8.229   5.734  0.5579  1.5328 -3.3211
   35MOL   H219 7767   4.619   8.097   5.840  1.6395 -0.7893 -1.4657
   35MOL   H220 7768   4.332   0.052   5.602  0.4117 -0.7052 -2.1271
   35MOL   H221 7769   4.520   0.186   5.496  1.1846  1.7131  1.6097
   35MOL   H222 7770   4.852   0.167   5.589 -0.4466 -3.3144  0.4974
   36MOL     C1 7771   3.200   1.195   2.520 -0.2174  0.0485  0.0094
   36MOL     C2 7772   3.071   1.233   2.557 -0.2725  0.0572  0.1708
   36MOL     C3 7773   3.054   1.356   2.624 -0.1787  0.1315  0.1561
   36MOL     C4 7774   3.166   1.425   2.677  0.3449  0.5880  0.0410
   36MOL     C5 7775   3.294   1.396   2.627  0.6055 -0.0545  0.4501
   36MOL     C6 7776   3.312   1.279   2.547 -0.5226  0.7797  0.1984
   36MOL     O7 7777   3.436   1.234   2.514 -0.3652 -0.4569 -0.0576
   36MOL     H8 7778   3.211   1.102   2.465 -1.1335  0.3494 -0.7029
   36MOL     H9 7779   2.984   1.178   2.523  1.5289 -0.8831 -3.1528
   36MOL    H10 7780   3.148   1.514   2.736 -0.7311  0.1264  0.4184
   36MOL    H11 7781   3.375   1.457   2.664  1.8651 -0.9509 -0.7838
   36MOL    H12 7782   2.956   1.391   2.653 -0.0480  2.5708 -2.0687
   36MOL    C13 7783   3.669   1.427   2.309 -0.4824  0.1138 -0.0967
   36MOL    C14 7784   3.606   1.369   2.418 -0.0816 -0.9938  0.2989
   36MOL    C15 7785   3.497   1.284   2.403  0.5255  0.0839  0.5449
   36MOL    C16 7786   3.451   1.251   2.271  0.4078  0.0865 -0.2978
   36MOL    C17 7787   3.518   1.297   2.155 -0.0821 -0.6342 -0.3109
   36MOL    C18 7788   3.630   1.387   2.178  0.3064 -0.0830 -0.1942
   36MOL    O19 7789   3.707   1.427   2.068 -0.3384 -0.6660  0.4723
   36MOL    H20 7790   3.749   1.499   2.321 -0.7197  0.5869 -1.3460
   36MOL    H21 7791   3.640   1.388   2.519 -0.3552  1.2625  0.0050
   36MOL    H22 7792   3.370   1.180   2.256 -1.6226  2.2101  0.2388
   36MOL    H23 7793   3.485   1.273   2.056 -0.9537  0.8484 -0.3958
   36MOL    C24 7794   4.055   1.542   2.102 -0.5775  0.6532  0.0771
   36MOL    C25 7795   3.944   1.459   2.079  0.7118 -0.2079 -0.2218
   36MOL    C26 7796   3.819   1.513   2.073 -0.8804 -0.2556 -0.2591
   36MOL    C27 7797   3.807   1.653   2.077  0.1030 -0.2209  0.9108
   36MOL    C28 7798   3.917   1.738   2.085  0.5023  0.1489  0.3438
   36MOL    C29 7799   4.042   1.678   2.092 -0.0516  0.3125 -0.1906
   36MOL    O30 7800   4.158   1.749   2.107 -0.0012  0.3944 -0.0986
   36MOL    H31 7801   4.154   1.499   2.112 -0.3657  1.9171  4.1670
   36MOL    H32 7802   3.952   1.352   2.074 -0.1574 -0.2383 -1.0168
   36MOL    H33 7803   3.710   1.701   2.068  0.1321  0.3557  3.2809
   36MOL    H34 7804   3.909   1.846   2.089  0.4298  0.1339  0.6144
   36MOL    C35 7805   4.482   1.639   1.984  0.1876  0.5287  0.1259
   36MOL    C36 7806   4.373   1.658   2.065 -0.2398 -0.2432  0.0150
   36MOL    C37 7807   4.262   1.731   2.023  0.5982 -0.7659 -0.6842
   36MOL    C38 7808   4.255   1.784   1.897 -0.5632  0.8305 -0.0302
   36MOL    C39 7809   4.366   1.769   1.806 -0.0145 -1.0109 -0.5188
   36MOL    C40 7810   4.480   1.708   1.852  0.2809  0.3012  0.0947
   36MOL    O41 7811   4.592   1.695   1.767 -0.2946  0.4386  0.3354
   36MOL    H42 7812   4.573   1.590   2.015  0.2034  0.2288 -0.3849
   36MOL    H43 7813   4.387   1.632   2.169  0.1079  1.0718  0.3077
   36MOL    H44 7814   4.160   1.832   1.877 -0.6830  0.5326 -0.1700
   36MOL    H45 7815   4.352   1.818   1.711  1.1988  0.4981  0.0515
   36MOL    C46 7816   4.927   1.565   1.856  1.1268  0.7302 -0.5407
   36MOL    C47 7817   4.798   1.574   1.799  0.2443  1.2334 -0.3068
   36MOL    C48 7818   4.715   1.684   1.824  0.0080  0.8012  0.2084
   36MOL    C49 7819   4.759   1.787   1.913 -0.7406 -0.1929  0.6206
   36MOL    C50 7820   4.883   1.776   1.975  0.0827 -0.2378 -0.0440
   36MOL    C51 7821   4.966   1.664   1.950  0.7588 -0.3011  0.4195
   36MOL    O52 7822   5.081   1.656   2.026 -0.2435  0.0996  0.0488
   36MOL    H53 7823   4.981   1.477   1.823  0.8086  0.5325 -0.5380
   36MOL    H54 7824   4.778   1.502   1.720  0.7006 -0.8395  1.4248
   36MOL    H55 7825   4.693   1.872   1.925  3.0122  2.9507  0.1123
   36MOL    H56 7826   4.923   1.852   2.041  2.5199 -2.4775  1.1135
   36MOL    C57 7827   5.038   1.643   2.400  0.4855 -0.8684  0.0452
   36MOL    C58 7828   5.062   1.692   2.264  0.4377  0.4151  0.1710
   36MOL    C59 7829   5.074   1.601   2.157  0.1451  0.3998 -0.1420
   36MOL    C60 7830   5.073   1.461   2.178 -1.0741 -0.0926  1.0348
   36MOL    C61 7831   5.045   1.416   2.313  0.4410 -0.3173 -0.0249
   36MOL    C62 7832   5.023   1.506   2.421 -0.0816  0.2488 -0.4371
   36MOL    O63 7833   4.982   1.467   2.545  0.0167  0.0948 -0.3189
   36MOL    H64 7834   5.026   1.716   2.478  0.2316 -0.6095 -0.2342
   36MOL    H65 7835   5.071   1.797   2.239 -1.0657  0.8726  1.4661
   36MOL    H66 7836   5.079   1.392   2.095 -0.6314 -0.9567  1.7740
   36MOL    H67 7837   5.025   1.312   2.333 -0.1934 -0.1350  0.3213
   36MOL    C68 7838   5.152   1.187   2.725  0.6395 -0.0815  0.2578
   36MOL    C69 7839   5.061   1.257   2.640 -0.1886  0.3519  0.9227
   36MOL    C70 7840   5.069   1.396   2.627 -0.2249 -0.0181  0.5312
   36MOL    C71 7841   5.175   1.462   2.699 -0.1820 -0.6679  0.5253
   36MOL    C72 7842   5.270   1.392   2.772  0.5280 -0.4356 -0.0869
   36MOL    C73 7843   5.263   1.254   2.784  0.3032  0.3298 -0.1868
   36MOL    O74 7844   5.353   1.198   2.867 -0.4160 -0.4338  0.3443
   36MOL    H75 7845   5.140   1.081   2.735 -0.0155  0.0151  0.4820
   36MOL    H76 7846   4.978   1.209   2.590  1.1681  0.7380 -1.7495
   36MOL    H77 7847   5.171   1.570   2.695 -1.0080 -0.7110 -0.2045
   36MOL    H78 7848   5.360   1.434   2.815  0.9501  0.5169 -1.8931
   36MOL    C79 7849   5.685   1.149   2.723  0.2527 -0.9582  1.3048
   36MOL    C80 7850   5.576   1.210   2.783  0.0646  0.3321 -0.1537
   36MOL    C81 7851   5.458   1.139   2.805  0.2746  0.0251 -0.7481
   36MOL    C82 7852   5.454   0.999   2.774  0.1595 -0.5786 -0.1812
   36MOL    C83 7853   5.567   0.937   2.710  0.2296 -0.1781  0.0863
   36MOL    C84 7854   5.680   1.012   2.690 -0.6637 -0.1845 -0.0997
   36MOL    O85 7855   5.784   0.962   2.620 -0.0020 -0.3079  0.7115
   36MOL    H86 7856   5.777   1.205   2.712 -1.3099  1.4996  0.2206
   36MOL    H87 7857   5.584   1.313   2.815 -0.3519 -0.3363  2.1896
   36MOL    H88 7858   5.374   0.931   2.802 -1.1354  0.6856 -0.7416
   36MOL    H89 7859   5.569   0.833   2.682 -0.9204  0.1111 -1.1574
   36MOL    C90 7860   5.668   0.962   2.270  0.0054  0.0601 -0.1588
   36MOL    C91 7861   5.668   0.934   2.407 -0.4511  0.6404  0.2302
   36MOL    C92 7862   5.774   0.981   2.486  0.7608  0.8922 -0.2787
   36MOL    C93 7863   5.886   1.044   2.422 -0.2557 -0.4603  0.6915
   36MOL    C94 7864   5.883   1.079   2.288 -0.0111 -0.0003  1.1689
   36MOL    C95 7865   5.768   1.036   2.211  0.0271  0.1634 -0.4403
   36MOL    O96 7866   5.761   1.057   2.079  0.2862  0.0873 -0.3510
   36MOL    H97 7867   5.589   0.938   2.201 -1.6420  2.2390  0.8865
   36MOL    H98 7868   5.581   0.887   2.449 -0.1624 -1.8289 -1.7749
   36MOL    H99 7869   5.978   1.068   2.474 -0.1620 -0.1333  0.3730
   36MOL   H100 7870   5.970   1.123   2.241 -1.8038  1.6784 -0.6342
   36MOL   C101 7871   5.699   1.410   1.988  0.4354 -0.0726  0.2013
   36MOL   C102 7872   5.682   1.280   2.041  0.9312  0.5345 -0.1259
   36MOL   C103 7873   5.783   1.183   2.021  0.7484  0.7395 -0.0895
   36MOL   C104 7874   5.895   1.209   1.940  0.1203  0.0447  0.2118
   36MOL   C105 7875   5.916   1.335   1.888  0.6981  0.1958 -0.0698
   36MOL   C106 7876   5.816   1.437   1.913 -0.3236  0.2422  1.2788
   36MOL   O107 7877   5.830   1.563   1.850  0.0002  0.2871  0.3684
   36MOL   H108 7878   5.627   1.489   2.005  1.8391  1.0227  1.1814
   36MOL   H109 7879   5.590   1.261   2.093  0.2920  0.9348 -1.1113
   36MOL   H110 7880   5.976   1.138   1.937 -1.7498 -2.1806  0.0874
   36MOL   H111 7881   6.002   1.355   1.826 -0.0266  1.6470 -0.6285
   36MOL   C112 7882   5.699   1.588   1.508  0.3618  0.3944 -0.1627
   36MOL   C113 7883   5.698   1.588   1.650  0.0987  0.3852  0.1291
   36MOL   C114 7884   5.826   1.575   1.712  0.4577 -0.0005 -0.4579
   36MOL   C115 7885   5.941   1.562   1.645  0.1264 -0.1112 -0.0925
   36MOL   C116 7886   5.940   1.561   1.503 -0.4606 -0.1986  0.0525
   36MOL   C117 7887   5.817   1.569   1.436  0.1019  0.1866 -0.6147
   36MOL   O118 7888   5.807   1.583   1.299  0.2892  0.6262  0.2353
   36MOL   H119 7889   5.610   1.595   1.448 -0.6833  2.4299  1.5480
   36MOL   H120 7890   5.607   1.605   1.706 -1.0758  0.3930 -1.7781
   36MOL   H121 7891   6.034   1.546   1.697  0.4150  2.2985  0.1755
   36MOL   H122 7892   6.020   1.549   1.431 -0.9349  1.2564 -0.7285
   36MOL   C123 7893   5.726   1.243   1.169  0.1530  0.2918  0.1135
   36MOL   C124 7894   5.711   1.362   1.242  0.2202  0.0556 -0.8881
   36MOL   C125 7895   5.810   1.466   1.227 -0.2686 -0.2320  0.9347
   36MOL   C126 7896   5.918   1.442   1.137 -0.1702 -0.6091  0.5100
   36MOL   C127 7897   5.929   1.323   1.068 -0.4532 -0.9554  0.2908
   36MOL   C128 7898   5.831   1.222   1.083  0.1415 -1.0169 -0.2428
   36MOL   O129 7899   5.846   1.105   1.011  0.2665  0.5141 -0.2026
   36MOL   H130 7900   5.658   1.163   1.196  0.1340  0.5776  0.9094
   36MOL   H131 7901   5.634   1.373   1.316  0.4036 -0.9332 -0.5486
   36MOL   H132 7902   5.984   1.526   1.127 -1.6965  0.4573 -0.8071
   36MOL   H133 7903   6.012   1.297   1.003 -2.0748 -2.2010 -1.3205
   36MOL   C134 7904   5.616   1.097   0.726 -0.3886  0.2437 -0.0447
   36MOL   C135 7905   5.663   1.107   0.860  0.4227 -0.8980  0.9047
   36MOL   C136 7906   5.803   1.104   0.877 -0.4311 -0.5401  0.0947
   36MOL   C137 7907   5.890   1.075   0.766  0.4727  0.1403  0.0869
   36MOL   C138 7908   5.843   1.059   0.634 -0.3024 -0.3328  0.1334
   36MOL   C139 7909   5.704   1.074   0.618  0.4482  0.5796  0.2514
   36MOL   O140 7910   5.646   1.048   0.495 -0.1055  0.3089 -0.1254
   36MOL   H141 7911   5.509   1.102   0.713 -0.6260 -2.2908  0.6495
   36MOL   H142 7912   5.590   1.117   0.939  0.8883  1.7465  1.0377
   36MOL   H143 7913   5.994   1.052   0.779  1.0213  1.6164 -1.5094
   36MOL   H144 7914   5.903   1.032   0.549 -0.7583  0.6491 -0.5121
   36MOL   C145 7915   5.508   1.313   0.273  0.1305  0.1491 -0.0561
   36MOL   C146 7916   5.511   1.221   0.377  0.3256  0.0677 -0.6020
   36MOL   C147 7917   5.636   1.150   0.401  0.1571 -0.1343 -0.3974
   36MOL   C148 7918   5.749   1.185   0.333  0.1165 -1.0650  0.6062
   36MOL   C149 7919   5.738   1.277   0.221 -0.1075 -0.3075 -0.0824
   36MOL   C150 7920   5.617   1.341   0.189  0.1860 -0.1409 -0.4349
   36MOL   O151 7921   5.609   1.423   0.079 -0.4710  0.0297  0.0881
   36MOL   H152 7922   5.416   1.362   0.247  0.1569  0.7425  0.9641
   36MOL   H153 7923   5.421   1.205   0.435  0.0796 -0.2782 -1.0769
   36MOL   H154 7924   5.839   1.133   0.362 -0.0598 -0.6441  1.9315
   36MOL   H155 7925   5.832   1.297   0.171  1.1830 -2.1422  1.4958
   36MOL   C156 7926   5.326   1.624   8.208 -0.1055 -0.3652  0.1507
   36MOL   C157 7927   5.447   1.585   0.016  0.2253  0.5450  0.0372
   36MOL   C158 7928   5.489   1.450   0.024 -0.4005 -0.1265  0.8726
   36MOL   C159 7929   5.417   1.354   8.202  0.0942  0.1650  0.0005
   36MOL   C160 7930   5.306   1.396   8.128  0.3374 -0.4776  0.4690
   36MOL   C161 7931   5.255   1.530   8.132 -0.4121  0.1858  0.6674
   36MOL   O162 7932   5.146   1.558   8.065  0.0277 -0.4217  0.2967
   36MOL   H163 7933   5.292   1.726   8.209 -0.1670 -0.3778 -0.4361
   36MOL   H164 7934   5.492   1.660   0.078 -2.1469  0.9786  1.2865
   36MOL   H165 7935   5.462   1.256   8.197  3.1484  1.5803 -2.0948
   36MOL   H166 7936   5.258   1.321   8.067  2.0683 -0.1036 -1.4117
   36MOL   C167 7937   5.257   1.695   7.747  0.4659 -1.1514  0.3795
   36MOL   C168 7938   5.260   1.643   7.876  0.0473 -0.1621 -0.7401
   36MOL   C169 7939   5.139   1.604   7.937 -0.2849  0.2191  0.1174
   36MOL   C170 7940   5.012   1.623   7.874 -0.2105  0.1957  0.2425
   36MOL   C171 7941   5.010   1.677   7.744 -0.0595 -0.4508  0.4399
   36MOL   C172 7942   5.130   1.713   7.684 -0.4254  0.7224  0.8784
   36MOL   O173 7943   5.126   1.779   7.560  0.4590 -0.6077  0.0816
   36MOL   H174 7944   5.349   1.704   7.692 -0.3137 -1.4958 -1.0223
   36MOL   H175 7945   5.351   1.642   7.934 -1.3787  0.2671  1.5580
   36MOL   H176 7946   4.920   1.603   7.926 -1.0029  1.1288 -0.7640
   36MOL   H177 7947   4.917   1.691   7.692  1.8249 -0.8586 -3.1985
   36MOL   C178 7948   5.126   2.130   7.610  0.9699 -0.8142  0.2140
   36MOL   C179 7949   5.078   2.003   7.598  0.0981 -0.9127 -0.2022
   36MOL   C180 7950   5.170   1.904   7.559  0.2939  0.2371  0.4634
   36MOL   C181 7951   5.303   1.936   7.529 -0.3288 -0.0411 -0.0280
   36MOL   C182 7952   5.346   2.071   7.539 -0.3989 -0.1506 -1.0620
   36MOL   C183 7953   5.258   2.169   7.586 -0.2574  0.1620 -0.2925
   36MOL   O184 7954   5.292   2.304   7.602  0.0142  0.3546 -0.1800
   36MOL   H185 7955   5.058   2.211   7.635 -0.2549 -1.7757  0.0660
   36MOL   H186 7956   4.974   1.982   7.618  0.0607 -1.8755 -1.3453
   36MOL   H187 7957   5.375   1.862   7.499 -1.5905 -0.8159 -1.2217
   36MOL   H188 7958   5.444   2.076   7.493 -0.6737 -0.8945 -1.7477
   36MOL   C189 7959   5.624   2.400   7.728 -0.6040  0.1920 -0.1637
   36MOL   C190 7960   5.519   2.364   7.645 -0.2449  0.3876 -0.7374
   36MOL   C191 7961   5.392   2.338   7.691 -0.1423  0.5981  0.0741
   36MOL   C192 7962   5.373   2.325   7.828 -0.5972 -0.3888  0.8604
   36MOL   C193 7963   5.475   2.360   7.920 -0.2915 -0.3894  0.1657
   36MOL   C194 7964   5.602   2.397   7.868  0.2016  0.5718  0.7620
   36MOL   O195 7965   5.696   2.436   7.960 -0.2223  0.1964 -0.0462
   36MOL   H196 7966   5.718   2.438   7.691  1.1832 -0.3763  3.4823
   36MOL   H197 7967   5.547   2.365   7.540  1.7656  0.4466 -0.2234
   36MOL   H198 7968   5.275   2.296   7.865 -0.7292 -2.6148 -1.1312
   36MOL   H199 7969   5.457   2.344   8.026 -0.3140  1.3713  0.4536
   36MOL   C200 7970   5.954   2.212   8.081 -0.5405 -0.3361 -0.4417
   36MOL   C201 7971   5.889   2.307   8.004 -0.0287  0.6263  0.3406
   36MOL   C202 7972   5.756   2.343   8.041  0.0950 -0.0960  0.1735
   36MOL   C203 7973   5.694   2.292   8.155 -0.1282  0.0831  0.4622
   36MOL   C204 7974   5.758   2.180   8.220 -0.5581 -0.9243 -0.0288
   36MOL   C205 7975   5.887   2.143   8.185  0.2305  0.1041  0.3600
   36MOL   O206 7976   5.959   2.054   0.007 -0.6163 -0.1792 -0.0780
   36MOL   H207 7977   6.057   2.185   8.064 -0.3659  0.7848 -1.2462
   36MOL   H208 7978   5.939   2.346   7.916 -0.3354 -0.8125 -0.4841
   36MOL   H209 7979   5.599   2.329   8.189 -0.1585  0.2740  0.1718
   36MOL   H210 7980   5.703   2.124   0.039 -2.1067 -1.4567 -1.5733
   36MOL   C211 7981   5.813   1.729   0.071  0.5194 -0.3512  0.2554
   36MOL   C212 7982   5.829   1.867   0.070  0.4616  0.2381  0.0416
   36MOL   C213 7983   5.930   1.922   8.243  0.0199  0.8602  0.2721
   36MOL   C214 7984   6.007   1.838   8.153 -0.3272  0.1887 -0.4020
   36MOL   C215 7985   5.981   1.703   8.153  0.0742 -0.0033  0.8026
   36MOL   C216 7986   5.884   1.647   8.234 -0.2349 -0.2406 -0.6071
   36MOL   O217 7987   5.870   1.512   8.247 -0.1947 -0.1251  0.2522
   36MOL   H218 7988   5.748   1.681   0.143  1.2338 -3.3157 -1.0164
   36MOL   H219 7989   5.771   1.929   0.136 -1.3431 -0.7453 -0.5697
   36MOL   H220 7990   6.085   1.871   8.087  1.1354 -0.7323  0.8360
   36MOL   H221 7991   6.038   1.638   8.088 -0.3967  1.6107 -1.2834
   36MOL   H222 7992   5.799   1.484   0.048 -1.9186  0.3553 -1.6761
   37MOL     C1 7993   3.678   0.018   3.091  0.0597  0.3087  0.2475
   37MOL     C2 7994   3.785   8.248   3.002 -0.2831 -0.5634  0.4721
   37MOL     C3 7995   3.891   0.082   2.997  0.1491  0.1028 -0.2337
   37MOL     C4 7996   3.890   0.201   3.068 -0.3467 -0.5952 -0.4599
   37MOL     C5 7997   3.786   0.219   3.163 -0.3769 -0.2667 -1.0327
   37MOL     C6 7998   3.679   0.129   3.176 -0.5687 -1.0509 -0.0872
   37MOL     O7 7999   3.578   0.149   3.270  0.4963 -1.0715  0.3815
   37MOL     H8 8000   3.598   8.201   3.085 -0.2066  0.5838  0.5350
   37MOL     H9 8001   3.799   8.164   2.936  1.0933 -0.3629  0.4946
   37MOL    H10 8002   3.966   0.277   3.064 -2.3002  1.5441  1.7824
   37MOL    H11 8003   3.789   0.304   3.229 -0.5663  0.3868 -1.8481
   37MOL    H12 8004   3.968   0.058   2.926  0.0737 -0.6402 -0.0711
   37MOL    C13 8005   3.338   0.430   3.185  0.0787  0.3481  0.0879
   37MOL    C14 8006   3.400   0.299   3.186  0.1098 -0.1824  0.4385
   37MOL    C15 8007   3.515   0.270   3.267 -0.2716  0.1068  0.2380
   37MOL    C16 8008   3.555   0.366   3.359  0.5936 -0.6624 -0.0616
   37MOL    C17 8009   3.500   0.498   3.350  0.2558  0.0468 -0.1456
   37MOL    C18 8010   3.396   0.531   3.266  0.2830 -0.0595  0.6836
   37MOL    O19 8011   3.350   0.657   3.259 -0.1177  0.3120 -0.6831
   37MOL    H20 8012   3.242   0.448   3.137 -0.5525  0.5118  1.4018
   37MOL    H21 8013   3.352   0.228   3.121 -1.9312  1.1370  0.4498
   37MOL    H22 8014   3.629   0.342   3.435  0.8345 -2.5798 -0.8602
   37MOL    H23 8015   3.541   0.576   3.413 -0.3860  1.4517 -1.4464
   37MOL    C24 8016   3.330   0.918   3.531  0.2409 -0.0577  0.6416
   37MOL    C25 8017   3.355   0.855   3.405 -0.0425  0.3407 -0.1110
   37MOL    C26 8018   3.323   0.723   3.378 -0.0439 -0.5005 -0.2468
   37MOL    C27 8019   3.249   0.656   3.481 -0.8786 -0.3078  0.7870
   37MOL    C28 8020   3.208   0.722   3.602  0.3777 -0.7154 -0.7660
   37MOL    C29 8021   3.255   0.852   3.629 -0.0416  0.9451 -0.5316
   37MOL    O30 8022   3.237   0.901   3.757  0.4553  0.2356  0.2581
   37MOL    H31 8023   3.374   1.016   3.534 -3.5484  1.7170  0.6100
   37MOL    H32 8024   3.417   0.909   3.334  0.3163  1.6449  1.1620
   37MOL    H33 8025   3.209   0.557   3.469  1.4141 -1.0817 -0.8315
   37MOL    H34 8026   3.158   0.673   3.684  0.8608 -0.3354 -0.2309
   37MOL    C35 8027   3.240   1.257   3.824 -0.1707  0.8353 -0.5248
   37MOL    C36 8028   3.276   1.124   3.821 -0.4983  0.5686  0.2094
   37MOL    C37 8029   3.190   1.029   3.771  0.1467  0.7920 -0.3734
   37MOL    C38 8030   3.061   1.066   3.727 -0.3252  0.4596 -0.6015
   37MOL    C39 8031   3.018   1.201   3.753 -0.0533 -0.4283  0.1812
   37MOL    C40 8032   3.112   1.300   3.797  0.0052 -0.3438 -0.3351
   37MOL    O41 8033   3.075   1.430   3.796  0.3711  0.2706  0.3035
   37MOL    H42 8034   3.317   1.330   3.844  0.6949 -0.4560  0.9515
   37MOL    H43 8035   3.374   1.105   3.863 -0.3266 -1.8369 -1.2231
   37MOL    H44 8036   2.987   0.998   3.686 -0.3269  1.4583 -2.2638
   37MOL    H45 8037   2.916   1.225   3.727 -0.3525 -1.5818  0.2465
   37MOL    C46 8038   3.252   1.592   3.519 -0.2096  0.0370 -0.3774
   37MOL    C47 8039   3.171   1.498   3.586  0.1175 -0.2651 -0.3997
   37MOL    C48 8040   3.147   1.517   3.724  0.4748 -0.5896  0.1501
   37MOL    C49 8041   3.196   1.638   3.786 -0.3161  0.7398  0.0048
   37MOL    C50 8042   3.267   1.737   3.717 -0.2725 -0.2941 -0.1198
   37MOL    C51 8043   3.296   1.717   3.581  0.0846  0.0071  0.5747
   37MOL    O52 8044   3.364   1.807   3.503  0.3023  0.4918 -0.2672
   37MOL    H53 8045   3.260   1.568   3.414  0.8891  0.5998 -0.4312
   37MOL    H54 8046   3.140   1.409   3.534  1.8667 -1.1619  0.0535
   37MOL    H55 8047   3.174   1.661   3.889 -0.4782 -1.6724  0.5500
   37MOL    H56 8048   3.285   1.837   3.755 -2.2929 -0.0842  0.3518
   37MOL    C57 8049   3.703   1.867   3.632 -0.2525 -0.3879 -0.2048
   37MOL    C58 8050   3.581   1.801   3.595  0.1515 -0.0587  0.4035
   37MOL    C59 8051   3.471   1.878   3.553  0.1189 -0.4776  0.1715
   37MOL    C60 8052   3.479   2.017   3.546  0.2810  0.2893  0.2407
   37MOL    C61 8053   3.599   2.082   3.582  0.0993  0.3754  0.3766
   37MOL    C62 8054   3.709   2.005   3.626 -0.1877 -0.2794 -0.1018
   37MOL    O63 8055   3.821   2.074   3.655  0.1649 -0.0121  0.5133
   37MOL    H64 8056   3.795   1.818   3.661  1.0552  1.2610 -1.4711
   37MOL    H65 8057   3.571   1.693   3.595  0.8814 -0.1345  0.8421
   37MOL    H66 8058   3.404   2.077   3.498  1.5533  1.0230 -0.8607
   37MOL    H67 8059   3.619   2.187   3.571 -0.4115  0.1704 -2.8285
   37MOL    C68 8060   3.824   2.069   4.033  0.3934 -0.1245  0.2202
   37MOL    C69 8061   3.776   2.045   3.904 -0.3232 -0.0421  0.2759
   37MOL    C70 8062   3.839   2.110   3.789  0.5395  0.0978 -0.1205
   37MOL    C71 8063   3.954   2.191   3.811  0.7411 -0.2198 -0.1478
   37MOL    C72 8064   3.997   2.208   3.946  0.2060 -0.4904 -0.9935
   37MOL    C73 8065   3.935   2.145   4.059 -0.1167 -0.4775 -0.4449
   37MOL    O74 8066   3.989   2.131   4.185 -0.5784 -0.4827  0.1198
   37MOL    H75 8067   3.769   2.021   4.113 -0.1989  0.3587  0.1042
   37MOL    H76 8068   3.697   1.973   3.891 -1.3446  1.0605  0.3285
   37MOL    H77 8069   4.018   2.220   3.729  0.4664 -1.3446 -0.7704
   37MOL    H78 8070   4.085   2.270   3.958 -0.4680  0.3106 -0.1434
   37MOL    C79 8071   4.091   2.475   4.297  0.1440  0.1355  0.4709
   37MOL    C80 8072   4.015   2.374   4.231  0.5098  0.6837 -0.2000
   37MOL    C81 8073   4.066   2.238   4.238  0.0349  0.0221 -0.3048
   37MOL    C82 8074   4.197   2.212   4.297  0.6247 -0.8523  0.4538
   37MOL    C83 8075   4.273   2.317   4.358  0.5930  0.1032  0.0145
   37MOL    C84 8076   4.212   2.448   4.363  0.0328  0.6124 -0.3979
   37MOL    O85 8077   4.286   2.553   4.408  0.1940  0.0502 -0.2180
   37MOL    H86 8078   4.054   2.577   4.291 -0.7328 -0.0517  2.2995
   37MOL    H87 8079   3.925   2.385   4.172 -0.5206 -2.6107  0.6618
   37MOL    H88 8080   4.233   2.110   4.306 -0.7369 -1.3916  0.0715
   37MOL    H89 8081   4.369   2.297   4.403  0.0574 -0.7212  0.8085
   37MOL    C90 8082   4.096   2.769   4.634 -0.0672  0.3098 -0.0366
   37MOL    C91 8083   4.152   2.716   4.517 -0.7556  0.2639  0.3039
   37MOL    C92 8084   4.247   2.609   4.527 -0.6688  0.6469 -0.3932
   37MOL    C93 8085   4.291   2.557   4.652  0.2690  0.3023  0.3199
   37MOL    C94 8086   4.232   2.607   4.767  0.2495 -1.0085  0.6480
   37MOL    C95 8087   4.137   2.710   4.759 -0.0151  0.1832  0.2519
   37MOL    O96 8088   4.089   2.750   4.879  0.2327  0.3284 -0.2067
   37MOL    H97 8089   4.013   2.838   4.621 -1.6925 -1.6582 -0.4463
   37MOL    H98 8090   4.136   2.763   4.421 -1.9096  1.0270  0.8554
   37MOL    H99 8091   4.365   2.479   4.654  0.4554  0.4941  1.1059
   37MOL   H100 8092   4.269   2.584   4.866 -2.7173 -1.0470  1.8022
   37MOL   C101 8093   4.207   3.075   5.004 -0.5716  0.6680  0.8660
   37MOL   C102 8094   4.202   2.939   4.973 -0.3937 -0.0964  0.5488
   37MOL   C103 8095   4.092   2.885   4.908  0.2309 -0.1243  0.3686
   37MOL   C104 8096   3.980   2.963   4.889  0.1941 -0.6233  0.4460
   37MOL   C105 8097   3.983   3.098   4.917 -0.3894  0.8806  0.3401
   37MOL   C106 8098   4.100   3.162   4.970 -0.0598 -0.0714 -0.6379
   37MOL   O107 8099   4.100   3.293   5.011 -0.1206  0.3403  0.5606
   37MOL   H108 8100   4.289   3.125   5.054  0.9111  0.4459 -1.2639
   37MOL   H109 8101   4.278   2.873   5.012  0.7316  0.7700 -0.1357
   37MOL   H110 8102   3.894   2.912   4.847  0.8764  0.3183 -2.1717
   37MOL   H111 8103   3.897   3.162   4.903  0.0146  1.9231  2.4393
   37MOL   C112 8104   4.016   3.516   4.725  0.2442  0.1806  0.6031
   37MOL   C113 8105   3.998   3.434   4.843 -0.0987  0.0328  0.2786
   37MOL   C114 8106   4.110   3.383   4.909 -0.6954  0.4341  0.0732
   37MOL   C115 8107   4.235   3.420   4.863 -0.4658  0.5345  0.0431
   37MOL   C116 8108   4.256   3.515   4.758 -0.2417 -0.2965 -0.4048
   37MOL   C117 8109   4.142   3.560   4.690 -0.7230 -0.0471 -0.0271
   37MOL   O118 8110   4.160   3.651   4.592  0.2674 -0.0625 -0.0740
   37MOL   H119 8111   3.936   3.560   4.668 -0.6241 -1.5646  0.4218
   37MOL   H120 8112   3.899   3.401   4.870  0.3250  0.4052  2.4105
   37MOL   H121 8113   4.321   3.375   4.910 -0.6603 -0.9888 -1.0207
   37MOL   H122 8114   4.356   3.553   4.741  0.4037 -0.2908  2.9927
   37MOL   C123 8115   4.386   3.518   4.332  0.5076 -0.2111 -0.6698
   37MOL   C124 8116   4.284   3.522   4.427 -0.7442 -0.0145  0.3573
   37MOL   C125 8117   4.265   3.638   4.506 -0.2699 -0.6213  0.0126
   37MOL   C126 8118   4.360   3.739   4.498 -0.3462 -0.2888  0.7057
   37MOL   C127 8119   4.463   3.731   4.402 -0.5113 -0.1076  0.6314
   37MOL   C128 8120   4.473   3.625   4.317  0.8784 -0.7492  0.3656
   37MOL   O129 8121   4.568   3.610   4.225 -0.3369  0.2661  0.3639
   37MOL   H130 8122   4.408   3.424   4.284  5.2857  0.4930 -0.1152
   37MOL   H131 8123   4.219   3.437   4.437 -3.4954  1.9703 -0.1536
   37MOL   H132 8124   4.359   3.827   4.560  1.5220  1.6868 -1.9499
   37MOL   H133 8125   4.526   3.819   4.399 -2.1921  1.1772  1.8660
   37MOL   C134 8126   4.878   3.426   4.327  0.5000  1.0234  0.5136
   37MOL   C135 8127   4.746   3.451   4.291  0.4405 -0.5583  0.3216
   37MOL   C136 8128   4.693   3.584   4.269 -0.9368  0.4655 -1.1859
   37MOL   C137 8129   4.794   3.687   4.293 -0.3834 -0.2151 -0.0055
   37MOL   C138 8130   4.930   3.664   4.304 -0.6164  0.4981 -0.3715
   37MOL   C139 8131   4.970   3.533   4.324  0.7857 -0.1619  0.9693
   37MOL   O140 8132   5.103   3.510   4.321 -0.1223  0.9974 -0.2831
   37MOL   H141 8133   4.904   3.322   4.340  0.5012  1.0492  0.7199
   37MOL   H142 8134   4.675   3.370   4.305  0.5094 -0.3639  1.9640
   37MOL   H143 8135   4.765   3.789   4.273 -1.0125 -0.2675  0.6202
   37MOL   H144 8136   5.003   3.743   4.310  0.8578 -0.7986 -0.8581
   37MOL   C145 8137   5.174   3.370   4.654  0.6654  0.7536  0.0412
   37MOL   C146 8138   5.122   3.449   4.553 -0.0624  0.7526  0.0700
   37MOL   C147 8139   5.162   3.439   4.421 -0.4232 -0.0549 -0.6929
   37MOL   C148 8140   5.276   3.357   4.390 -0.7943  0.4002  0.1681
   37MOL   C149 8141   5.333   3.287   4.498  1.0241  0.3234 -0.1843
   37MOL   C150 8142   5.279   3.287   4.627  0.5653  0.0079  0.2153
   37MOL   O151 8143   5.322   3.198   4.718 -0.4800 -0.0365 -0.1523
   37MOL   H152 8144   5.129   3.375   4.752  0.0226 -0.1286 -0.1981
   37MOL   H153 8145   5.040   3.516   4.573  1.0376  1.1269  3.7468
   37MOL   H154 8146   5.320   3.359   4.292 -1.2530  3.2531 -0.0269
   37MOL   H155 8147   5.413   3.219   4.470 -1.7764 -2.6450 -1.3632
   37MOL   C156 8148   5.646   3.105   4.849 -0.9382  0.0044  0.0363
   37MOL   C157 8149   5.521   3.103   4.786  0.0641  0.2488 -0.3028
   37MOL   C158 8150   5.447   3.216   4.767  0.5011 -0.4390  0.3198
   37MOL   C159 8151   5.508   3.340   4.812 -0.2727  0.7019 -0.0733
   37MOL   C160 8152   5.625   3.347   4.879 -0.4037 -0.4730 -0.5479
   37MOL   C161 8153   5.694   3.227   4.903 -0.2070 -0.5751  0.0381
   37MOL   O162 8154   5.813   3.236   4.975  0.6790 -0.4118  0.5953
   37MOL   H163 8155   5.714   3.022   4.857 -0.0122  0.5289 -2.1023
   37MOL   H164 8156   5.490   3.002   4.762 -0.5777 -0.3256  2.7256
   37MOL   H165 8157   5.442   3.424   4.797 -1.4782  0.1905  2.0925
   37MOL   H166 8158   5.661   3.440   4.919 -2.1141 -0.6917  1.6135
   37MOL   C167 8159   6.055   3.317   4.712 -0.1245 -0.2681  0.4373
   37MOL   C168 8160   5.950   3.329   4.801 -0.6332  0.2315 -0.2377
   37MOL   C169 8161   5.925   3.227   4.895  0.7241 -0.5007 -0.1717
   37MOL   C170 8162   6.012   3.119   4.906  0.0502  0.3428 -0.3996
   37MOL   C171 8163   6.122   3.106   4.820 -0.3238 -0.0878 -0.1842
   37MOL   C172 8164   6.142   3.208   4.723 -0.2403 -0.1607 -0.1138
   37MOL   O173 8165   6.250   3.205   4.636  0.1176 -0.6326 -0.1331
   37MOL   H174 8166   6.065   3.393   4.636  0.0637 -1.1219 -0.4083
   37MOL   H175 8167   5.883   3.414   4.801  0.1409  0.8769  1.6209
   37MOL   H176 8168   5.990   3.043   4.980  1.7159  1.3338  1.1579
   37MOL   H177 8169   6.184   3.019   4.832  1.2653  1.2706  1.9569
   37MOL   C178 8170   6.203   2.912   4.405 -0.1998  0.0517 -0.4348
   37MOL   C179 8171   6.170   3.010   4.502  0.6526 -0.2843 -0.3809
   37MOL   C180 8172   6.267   3.106   4.542  0.3635  0.6182  0.5478
   37MOL   C181 8173   6.401   3.092   4.500  0.1109 -0.5737 -0.2861
   37MOL   C182 8174   6.436   2.987   4.416 -0.4987 -0.1692  0.1082
   37MOL   C183 8175   6.334   2.906   4.355  0.1909  0.0286 -0.3789
   37MOL   O184 8176   6.365   2.817   4.259 -0.1876  0.0013  0.2911
   37MOL   H185 8177   6.130   2.843   4.366 -2.8845  1.9981  0.9600
   37MOL   H186 8178   6.070   3.023   4.540 -0.0447  0.0910 -2.2876
   37MOL   H187 8179   6.470   3.165   4.539 -0.3178  0.0858 -0.7500
   37MOL   H188 8180   6.540   2.986   4.386  0.6513  1.9756  3.7003
   37MOL   C189 8181   6.408   3.036   3.967  0.9851  0.5024 -0.1104
   37MOL   C190 8182   6.351   2.982   4.080  0.1200 -0.0017  0.1395
   37MOL   C191 8183   6.409   2.873   4.144  0.0510 -0.0416 -0.1920
   37MOL   C192 8184   6.530   2.824   4.098  0.4147 -0.0177 -0.4696
   37MOL   C193 8185   6.589   2.881   3.988  0.1232  1.3847  0.8466
   37MOL   C194 8186   6.531   2.988   3.916  0.5113  0.3758  0.4625
   37MOL   O195 8187   6.596   3.026   3.802  0.5196  0.4977  0.4858
   37MOL   H196 8188   6.367   3.120   3.912  0.7616 -0.5271 -1.5221
   37MOL   H197 8189   6.257   3.021   4.116  0.5239  1.9988 -0.9064
   37MOL   H198 8190   6.587   2.760   4.164  0.5931  2.2203  1.6088
   37MOL   H199 8191   6.682   2.839   3.954 -1.9522 -1.1488 -1.9596
   37MOL   C200 8192   6.785   3.341   3.870 -0.3327 -0.3078  0.4324
   37MOL   C201 8193   6.750   3.201   3.876  0.2711 -0.4138 -0.4997
   37MOL   C202 8194   6.639   3.160   3.807  0.0370 -0.4510 -0.9497
   37MOL   C203 8195   6.563   3.251   3.722 -0.3087 -0.5552 -0.6141
   37MOL   C204 8196   6.605   3.386   3.722 -0.0157  0.2711 -0.0102
   37MOL   C205 8197   6.710   3.432   3.791 -0.1401 -0.4784  0.3043
   37MOL   O206 8198   6.740   3.568   3.793 -0.0041  0.2895  0.0764
   37MOL   H207 8199   6.875   3.381   3.914 -0.4252  0.1424  0.2097
   37MOL   H208 8200   6.805   3.130   3.936 -1.0344 -1.7824 -0.8917
   37MOL   H209 8201   6.477   3.214   3.668  0.9176  0.1302 -3.0949
   37MOL   H210 8202   6.552   3.456   3.659 -2.7034  0.2694  2.1306
   37MOL   C211 8203   6.521   3.699   4.067  0.2906  0.1080  0.1366
   37MOL   C212 8204   6.591   3.612   3.987  0.4884  0.0334  0.2870
   37MOL   C213 8205   6.665   3.650   3.873 -1.0624  0.0770 -0.2864
   37MOL   C214 8206   6.674   3.787   3.842 -0.4574  0.3935  0.1135
   37MOL   C215 8207   6.607   3.885   3.920 -0.1421  0.2521  0.2948
   37MOL   C216 8208   6.519   3.836   4.021  0.4333  0.0898 -0.5931
   37MOL   O217 8209   6.432   3.931   4.073  0.2271  0.1941 -0.2237
   37MOL   H218 8210   6.461   3.663   4.149  1.4481 -0.4295  0.7698
   37MOL   H219 8211   6.585   3.508   4.015 -0.0096  0.7120  2.8455
   37MOL   H220 8212   6.750   3.817   3.772 -0.4660 -0.1140 -0.1147
   37MOL   H221 8213   6.608   3.988   3.886 -0.8192  0.2910  0.3783
   37MOL   H222 8214   6.348   3.891   4.085  0.5969 -1.1023 -1.8258
   38MOL     C1 8215   4.496   6.000   3.650  0.0997 -0.0403 -0.2284
   38MOL     C2 8216   4.585   5.895   3.612  0.5814 -0.3351 -0.0586
   38MOL     C3 8217   4.668   5.846   3.718 -0.2584 -0.6930 -0.4299
   38MOL     C4 8218   4.672   5.901   3.847  0.6135  0.3839  0.5697
   38MOL     C5 8219   4.581   6.007   3.878 -0.8971  0.4878 -0.6425
   38MOL     C6 8220   4.499   6.059   3.776 -1.1731  0.1281 -0.3858
   38MOL     O7 8221   4.405   6.160   3.795  0.6121  0.0705 -0.1492
   38MOL     H8 8222   4.432   6.038   3.572 -0.1192  0.3548  0.1393
   38MOL     H9 8223   4.583   5.837   3.521 -2.8873  1.0042 -0.8979
   38MOL    H10 8224   4.749   5.869   3.916  0.0211 -1.1538  0.5487
   38MOL    H11 8225   4.590   6.038   3.981  0.9271 -0.7250 -0.4026
   38MOL    H12 8226   4.736   5.763   3.713 -0.4990 -0.8286 -1.5276
   38MOL    C13 8227   4.392   6.510   3.911  0.3622 -0.1084  0.0705
   38MOL    C14 8228   4.367   6.374   3.898  0.7807  0.0724 -0.2098
   38MOL    C15 8229   4.451   6.283   3.828  0.0621 -0.5676  0.0792
   38MOL    C16 8230   4.575   6.328   3.785 -0.1982 -0.3668 -0.0065
   38MOL    C17 8231   4.603   6.467   3.807 -0.0425 -0.1311  0.5626
   38MOL    C18 8232   4.515   6.558   3.864 -0.0033  0.1348 -0.5218
   38MOL    O19 8233   4.552   6.690   3.863  0.1581  0.5208 -1.0402
   38MOL    H20 8234   4.332   6.578   3.970 -0.4217 -0.2858 -0.5070
   38MOL    H21 8235   4.272   6.333   3.929  0.1226  0.1655 -2.0582
   38MOL    H22 8236   4.631   6.259   3.724  0.8320 -0.6801  1.2755
   38MOL    H23 8237   4.696   6.497   3.761 -1.1749  1.1614 -0.9966
   38MOL    C24 8238   4.885   6.776   3.996 -0.2471  0.1425  0.4058
   38MOL    C25 8239   4.790   6.723   3.909 -0.1389 -0.0289  0.1061
   38MOL    C26 8240   4.651   6.729   3.948  0.0103  0.4636 -0.0811
   38MOL    C27 8241   4.615   6.790   4.069 -0.5326  0.2329 -1.0323
   38MOL    C28 8242   4.719   6.835   4.155 -0.1405 -0.5720  0.9385
   38MOL    C29 8243   4.852   6.828   4.116 -0.1941 -0.5496 -0.0522
   38MOL    O30 8244   4.955   6.867   4.202  0.0771  0.0169  0.2319
   38MOL    H31 8245   4.991   6.774   3.974 -0.4713 -0.3861 -0.6759
   38MOL    H32 8246   4.819   6.683   3.813 -3.3614  0.0824 -0.9640
   38MOL    H33 8247   4.508   6.799   4.086 -0.2272 -1.8208  2.4003
   38MOL    H34 8248   4.691   6.876   4.251  0.9337 -0.5314  1.2349
   38MOL    C35 8249   5.002   7.230   4.256 -0.1510 -0.1139  0.4664
   38MOL    C36 8250   5.010   7.102   4.194  0.0394 -0.5337  0.1121
   38MOL    C37 8251   4.950   6.992   4.257 -0.1955  0.2503 -0.9498
   38MOL    C38 8252   4.887   7.004   4.389  0.4594 -0.1220  0.0677
   38MOL    C39 8253   4.883   7.133   4.446  0.3698  0.1694  0.8322
   38MOL    C40 8254   4.932   7.246   4.378  0.1940  0.1291  0.3249
   38MOL    O41 8255   4.921   7.373   4.429 -0.2546  0.1164 -0.5963
   38MOL    H42 8256   5.036   7.323   4.212 -1.6305  0.7223  1.0577
   38MOL    H43 8257   5.069   7.078   4.107  1.1196  0.7969  0.4558
   38MOL    H44 8258   4.846   6.917   4.437 -1.4301 -0.2305 -1.6346
   38MOL    H45 8259   4.852   7.155   4.547  0.1752  1.1646  0.5617
   38MOL    C46 8260   4.627   7.491   4.617 -0.5121  0.2000  0.0957
   38MOL    C47 8261   4.756   7.443   4.590 -0.8796 -0.1434 -0.2841
   38MOL    C48 8262   4.801   7.423   4.455  0.5532  0.0668  0.5076
   38MOL    C49 8263   4.708   7.460   4.351  0.1310 -0.0460 -0.3229
   38MOL    C50 8264   4.579   7.507   4.373  0.4707  0.0351  0.5849
   38MOL    C51 8265   4.537   7.523   4.510  0.0798 -0.8946  0.2015
   38MOL    O52 8266   4.414   7.582   4.533  0.2943  0.2246  0.0030
   38MOL    H53 8267   4.590   7.501   4.719  1.1245  0.2316  0.6941
   38MOL    H54 8268   4.814   7.428   4.679  1.3366  1.2189 -1.4663
   38MOL    H55 8269   4.734   7.454   4.247 -1.2794 -1.2102 -0.6338
   38MOL    H56 8270   4.514   7.524   4.289  0.1340 -0.4326  0.7468
   38MOL    C57 8271   4.342   7.758   4.848 -0.0369  0.6649  0.1524
   38MOL    C58 8272   4.356   7.653   4.754 -0.3291 -0.3562  0.0246
   38MOL    C59 8273   4.407   7.677   4.624 -0.2548 -0.4915 -0.0350
   38MOL    C60 8274   4.448   7.805   4.583 -1.0872  0.9553  0.3411
   38MOL    C61 8275   4.430   7.908   4.673 -0.4807 -1.2878  0.0967
   38MOL    C62 8276   4.374   7.888   4.803  0.2450 -0.3227 -0.5670
   38MOL    O63 8277   4.357   7.994   4.893 -0.2579 -0.3995  0.5553
   38MOL    H64 8278   4.312   7.735   4.949  0.9646  0.8126  0.4946
   38MOL    H65 8279   4.338   7.549   4.776  3.1604 -1.0592 -0.0267
   38MOL    H66 8280   4.496   7.804   4.486  2.2139 -0.1254  1.9044
   38MOL    H67 8281   4.463   8.008   4.648  1.2269 -1.6687  0.8235
   38MOL    C68 8282   4.598   7.921   5.176  0.2217 -0.0715 -0.2938
   38MOL    C69 8283   4.553   7.949   5.046  0.1953  0.1988  0.2283
   38MOL    C70 8284   4.416   7.988   5.019 -0.1590 -0.5687  0.6374
   38MOL    C71 8285   4.334   8.015   5.126  0.3539  0.5761  0.0714
   38MOL    C72 8286   4.375   7.996   5.263  0.4271 -0.3297  0.5726
   38MOL    C73 8287   4.505   7.942   5.280 -0.1857  0.1520 -0.1463
   38MOL    O74 8288   4.536   7.892   5.408 -0.3059  0.5016  0.3237
   38MOL    H75 8289   4.700   7.896   5.202  0.6174  2.6919  1.0447
   38MOL    H76 8290   4.623   7.924   4.967  0.4766  2.1104 -0.1402
   38MOL    H77 8291   4.235   8.056   5.120 -1.1116 -2.5458  1.7128
   38MOL    H78 8292   4.299   8.029   5.333 -1.4275 -2.1429 -0.5505
   38MOL    C79 8293   4.848   8.036   5.516  0.4351 -0.6535 -0.2935
   38MOL    C80 8294   4.726   8.021   5.445 -0.4308  0.1250  0.1990
   38MOL    C81 8295   4.660   7.901   5.456  0.6750 -0.0407 -0.1545
   38MOL    C82 8296   4.720   7.791   5.519  0.2293  0.2899  0.1850
   38MOL    C83 8297   4.849   7.800   5.575 -0.0813  0.3941  0.3517
   38MOL    C84 8298   4.911   7.928   5.584 -0.6898 -0.7665  0.2721
   38MOL    O85 8299   5.036   7.944   5.637 -0.0114  0.0760 -0.2209
   38MOL    H86 8300   4.902   8.129   5.526 -1.2619  0.2916  0.2761
   38MOL    H87 8301   4.672   8.098   5.392 -0.9043 -1.9603 -2.3918
   38MOL    H88 8302   4.671   7.694   5.516  1.7500 -0.4507 -1.0512
   38MOL    H89 8303   4.895   7.710   5.613  0.9494  1.3155  1.3096
   38MOL    C90 8304   5.066   7.817   5.983 -0.3936 -0.2618 -0.5793
   38MOL    C91 8305   5.042   7.815   5.841 -0.0751 -0.6750  0.6333
   38MOL    C92 8306   5.034   7.943   5.773 -0.5754 -0.1865  0.5755
   38MOL    C93 8307   5.044   8.060   5.841  0.1894 -0.1057  0.3607
   38MOL    C94 8308   5.054   8.066   5.983 -0.4889  0.2393  0.4466
   38MOL    C95 8309   5.061   7.940   6.053 -0.5597  0.2251  0.0317
   38MOL    O96 8310   5.073   7.938   6.193 -0.1969  0.1861  0.1540
   38MOL    H97 8311   5.101   7.728   6.032  0.4910  0.7300  0.6473
   38MOL    H98 8312   5.038   7.721   5.787 -2.6638  0.2455 -0.8691
   38MOL    H99 8313   5.050   8.150   5.781  1.0690 -0.8214 -0.6308
   38MOL   H100 8314   5.074   8.158   6.036 -0.2006  0.7817 -0.5965
   38MOL   C101 8315   5.401   8.083   6.291  0.3979 -0.4039 -0.5624
   38MOL   C102 8316   5.306   8.008   6.219  0.3684 -0.2673  0.4452
   38MOL   C103 8317   5.170   8.016   6.257 -0.0266  0.2856 -0.9909
   38MOL   C104 8318   5.132   8.086   6.376  0.3152  0.4646 -0.2440
   38MOL   C105 8319   5.225   8.162   6.445 -0.4093 -0.1552 -0.6585
   38MOL   C106 8320   5.363   8.160   6.403  0.7678 -0.3212 -0.0705
   38MOL   O107 8321   5.461   8.230   6.459  0.2751  0.2265 -0.2469
   38MOL   H108 8322   5.505   8.078   6.261  0.7119 -1.2023  0.6321
   38MOL   H109 8323   5.344   7.943   6.142  1.2393 -0.6275  1.1735
   38MOL   H110 8324   5.035   8.062   6.415  0.0791 -0.5412 -1.4195
   38MOL   H111 8325   5.195   8.220   6.531  0.8849  0.2221 -0.4500
   38MOL   C112 8326   5.416   0.264   6.680  0.0899  0.2372 -0.2363
   38MOL   C113 8327   5.430   0.138   6.633  0.4606 -0.3396  0.7340
   38MOL   C114 8328   5.436   0.108   6.495 -0.4283  0.0368 -0.5459
   38MOL   C115 8329   5.430   0.210   6.402 -0.0249 -0.0200 -0.0177
   38MOL   C116 8330   5.402   0.340   6.442  0.7949 -0.4126  0.8169
   38MOL   C117 8331   5.396   0.366   6.583  0.4789 -0.0943  0.4830
   38MOL   O118 8332   5.384   0.490   6.632 -0.3188 -0.3203  0.0687
   38MOL   H119 8333   5.406   0.290   6.785 -0.4792  1.0115 -0.4812
   38MOL   H120 8334   5.447   0.055   6.700 -1.4838 -0.3609  1.2171
   38MOL   H121 8335   5.454   0.186   6.299  1.3298 -0.0636  0.2915
   38MOL   H122 8336   5.399   0.426   6.377  3.3169  0.3501  1.6549
   38MOL   C123 8337   5.135   0.552   6.884 -0.2327  0.0427 -0.2259
   38MOL   C124 8338   5.257   0.545   6.815  0.1303  0.7966 -0.7191
   38MOL   C125 8339   5.263   0.519   6.678  0.5045  0.0654 -0.3005
   38MOL   C126 8340   5.145   0.522   6.598  0.0509 -0.0926 -0.6144
   38MOL   C127 8341   5.024   0.531   6.669 -0.0665 -0.6236  0.0538
   38MOL   C128 8342   5.016   0.552   6.809 -0.4363 -0.3461 -0.1639
   38MOL   O129 8343   4.891   0.563   6.871 -0.3815 -0.1991 -0.0941
   38MOL   H130 8344   5.130   0.566   6.991  1.0930 -0.5370 -0.0793
   38MOL   H131 8345   5.352   0.536   6.865 -0.1560 -3.1376 -0.7465
   38MOL   H132 8346   5.168   0.504   6.494  1.6626 -1.9612  0.0355
   38MOL   H133 8347   4.931   0.528   6.614 -0.2090 -3.0230  0.3336
   38MOL   C134 8348   4.795   0.280   7.085  0.7303  0.3661  0.0034
   38MOL   C135 8349   4.809   0.357   6.971  0.1331 -0.3411 -0.3282
   38MOL   C136 8350   4.864   0.483   6.979  0.4904 -0.8475  0.1126
   38MOL   C137 8351   4.890   0.538   7.107  0.2513 -0.1771 -0.3849
   38MOL   C138 8352   4.870   0.473   7.229 -0.7382  0.7685 -0.2584
   38MOL   C139 8353   4.825   0.336   7.217 -0.0836  0.9267 -0.3662
   38MOL   O140 8354   4.810   0.265   7.337 -0.1293  0.5951 -0.0273
   38MOL   H141 8355   4.741   0.186   7.082 -1.3368  1.4793  1.5385
   38MOL   H142 8356   4.771   0.320   6.877  0.4035  1.2802 -1.0832
   38MOL   H143 8357   4.936   0.635   7.112  1.7848 -0.8909 -0.3587
   38MOL   H144 8358   4.907   0.505   7.325 -0.5922 -0.2625  0.0231
   38MOL   C145 8359   4.600   8.217   7.358 -0.4389 -0.5388 -0.1466
   38MOL   C146 8360   4.641   0.095   7.352  0.4300 -0.3831 -0.4450
   38MOL   C147 8361   4.774   0.133   7.338  0.2283  0.0181 -0.4694
   38MOL   C148 8362   4.870   0.034   7.328 -0.1673  0.1680  0.7913
   38MOL   C149 8363   4.832   8.152   7.329  0.5090 -0.0208  0.3470
   38MOL   C150 8364   4.696   8.121   7.338 -0.2193 -0.7455 -0.2773
   38MOL   O151 8365   4.654   7.994   7.330 -0.3350  0.5864 -0.4674
   38MOL   H152 8366   4.493   8.200   7.362 -0.2368 -1.6400  0.6700
   38MOL   H153 8367   4.573   0.179   7.359  1.0057  0.0998 -0.5605
   38MOL   H154 8368   4.972   0.062   7.308  0.2150 -1.9027 -0.2199
   38MOL   H155 8369   4.903   8.073   7.306 -0.8306 -0.4491 -2.6167
   38MOL   C156 8370   4.613   7.772   7.621  0.8046  0.0179 -0.3034
   38MOL   C157 8371   4.580   7.869   7.525 -0.6975 -0.0681  0.8670
   38MOL   C158 8372   4.682   7.906   7.431  1.1529 -0.2622  1.0104
   38MOL   C159 8373   4.799   7.829   7.427 -0.0331  0.1999  0.2627
   38MOL   C160 8374   4.828   7.733   7.523  0.0850  1.2927 -0.4060
   38MOL   C161 8375   4.734   7.704   7.620  0.2810 -0.1941  0.0615
   38MOL   O162 8376   4.762   7.598   7.711  0.2934  0.1358 -0.6002
   38MOL   H163 8377   4.548   7.749   7.705  4.5269 -1.2237  2.3958
   38MOL   H164 8378   4.486   7.922   7.534 -1.1520 -0.6184 -0.3920
   38MOL   H165 8379   4.871   7.866   7.355  0.8614  2.1934  2.0950
   38MOL   H166 8380   4.911   7.665   7.516  0.2892  1.3706  1.2295
   38MOL   C167 8381   4.622   7.579   8.053 -0.2185 -0.3322 -0.0964
   38MOL   C168 8382   4.629   7.578   7.916 -0.4348  0.6568  0.2430
   38MOL   C169 8383   4.748   7.618   7.846 -0.0597  0.1114  0.0056
   38MOL   C170 8384   4.861   7.651   7.924  0.2538  0.1178  0.2430
   38MOL   C171 8385   4.849   7.660   8.062 -0.4635 -0.4885 -0.3338
   38MOL   C172 8386   4.731   7.628   8.131 -0.1357  0.6350  0.4864
   38MOL   O173 8387   4.714   7.649   0.010  0.0176 -0.1510  0.4388
   38MOL   H174 8388   4.526   7.551   8.095 -0.8543  1.6746 -0.1400
   38MOL   H175 8389   4.552   7.522   7.865  1.4248 -1.7107 -0.0347
   38MOL   H176 8390   4.957   7.677   7.881  0.1045  0.6787  0.2540
   38MOL   H177 8391   4.930   7.703   8.119 -2.1572  0.1663  1.6217
   38MOL   C178 8392   4.861   7.364   0.188 -0.0757  0.6286 -0.2899
   38MOL   C179 8393   4.762   7.443   0.131  0.8079  0.2911  0.6533
   38MOL   C180 8394   4.797   7.579   0.090  0.0303 -0.1024 -0.2227
   38MOL   C181 8395   4.919   7.634   0.134  0.1025 -0.7090  0.5099
   38MOL   C182 8396   5.012   7.554   0.196 -0.0623 -0.9903  0.0403
   38MOL   C183 8397   4.986   7.417   0.225 -0.0202 -0.3604 -0.2198
   38MOL   O184 8398   5.085   7.328   0.269 -0.3597  0.0431  0.0556
   38MOL   H185 8399   4.841   7.258   0.197  1.3223 -0.1718 -5.0224
   38MOL   H186 8400   4.668   7.399   0.101  0.1057  0.1123  3.0835
   38MOL   H187 8401   4.951   7.734   0.107  0.2447 -1.0177 -0.4759
   38MOL   H188 8402   5.111   7.596   0.198 -1.0832  1.4878  0.8355
   38MOL   C189 8403   5.099   7.345   0.632 -0.4263 -0.2302  0.5027
   38MOL   C190 8404   5.060   7.301   0.506  0.2821 -0.1638 -0.6497
   38MOL   C191 8405   5.134   7.348   0.394  0.2307  0.3028 -1.1987
   38MOL   C192 8406   5.250   7.428   0.409 -0.1743  0.0993  0.0713
   38MOL   C193 8407   5.287   7.470   0.540  0.3325 -0.9555 -0.1780
   38MOL   C194 8408   5.216   7.423   0.654  0.6324  0.3118  0.5383
   38MOL   O195 8409   5.261   7.448   0.785  0.3768  0.0391  0.0398
   38MOL   H196 8410   5.043   7.302   0.713 -2.3653  2.0840  0.4321
   38MOL   H197 8411   4.981   7.228   0.503  0.1818 -0.1689  1.1891
   38MOL   H198 8412   5.309   7.451   0.321  1.6593  1.9022  1.7251
   38MOL   H199 8413   5.374   7.530   0.562  0.3135 -0.7530 -0.6400
   38MOL   C200 8414   5.602   7.460   0.916 -0.0004 -0.3868 -0.1405
   38MOL   C201 8415   5.470   7.495   0.885 -0.3763 -0.1424  0.4982
   38MOL   C202 8416   5.390   7.413   0.807 -0.3635  0.4842 -0.1080
   38MOL   C203 8417   5.444   7.291   0.751  0.4632  0.3101  0.0030
   38MOL   C204 8418   5.579   7.259   0.775  0.0360  0.2692  0.1868
   38MOL   C205 8419   5.658   7.342   0.859  0.6921 -0.7354  0.1847
   38MOL   O206 8420   5.791   7.303   0.886  0.1449  0.4521 -0.4782
   38MOL   H207 8421   5.650   7.521   0.991  1.1163  0.8088 -1.7928
   38MOL   H208 8422   5.429   7.589   0.918  0.9655  2.4017 -4.6554
   38MOL   H209 8423   5.389   7.224   0.686 -0.3007  0.4348  0.5030
   38MOL   H210 8424   5.621   7.172   0.728  0.6588  1.6330 -1.8574
   38MOL   C211 8425   6.137   7.390   0.786 -0.4527  0.1410  0.0913
   38MOL   C212 8426   6.024   7.343   0.856  0.1458  0.2093 -0.4343
   38MOL   C213 8427   5.893   7.345   0.804  0.2148  0.1380  0.3962
   38MOL   C214 8428   5.878   7.375   0.665 -0.6096  0.0144 -0.1798
   38MOL   C215 8429   5.986   7.426   0.589  0.1796  0.1815  0.2255
   38MOL   C216 8430   6.116   7.437   0.651 -0.5808 -0.0423 -0.9346
   38MOL   O217 8431   6.228   7.491   0.584  0.4248 -0.2553  0.2750
   38MOL   H218 8432   6.232   7.388   0.836 -0.0700  1.1517 -0.5814
   38MOL   H219 8433   6.044   7.309   0.957  0.7112 -1.2679 -1.0205
   38MOL   H220 8434   5.782   7.387   0.618 -1.4155  2.3836  1.9021
   38MOL   H221 8435   5.978   7.442   0.483  1.7513 -0.8445 -0.0589
   38MOL   H222 8436   6.306   7.471   0.633  1.4999 -0.9588 -1.6259
   39MOL     C1 8437   0.597   8.074   7.570 -0.8910  0.1021  0.6660
   39MOL     C2 8438   0.730   8.123   7.571  0.2425  0.2182  0.0345
   39MOL     C3 8439   0.827   8.092   7.469 -0.2196 -0.4748 -0.0780
   39MOL     C4 8440   0.779   8.014   7.364 -0.0736 -0.1858  0.0158
   39MOL     C5 8441   0.647   7.970   7.360 -0.1772  1.0637 -0.8181
   39MOL     C6 8442   0.556   7.983   7.466 -0.6692 -0.0428  0.0889
   39MOL     O7 8443   0.450   7.906   7.470  0.0552  0.0528 -0.8073
   39MOL     H8 8444   0.527   8.106   7.646  0.0629  0.4138  1.4200
   39MOL     H9 8445   0.760   8.185   7.654  0.8320 -0.0062 -0.0077
   39MOL    H10 8446   0.842   7.992   7.279 -0.7105  1.8539 -1.0334
   39MOL    H11 8447   0.623   7.894   7.288  1.1211 -0.4175  0.2793
   39MOL    H12 8448   0.927   8.131   7.467 -0.1220 -0.6969  0.4602
   39MOL    C13 8449   0.211   8.059   7.232  0.2402  0.1314 -0.7452
   39MOL    C14 8450   0.332   8.035   7.300  0.1195 -0.2496  0.2036
   39MOL    C15 8451   0.339   7.944   7.402 -0.3913  0.3018 -0.1337
   39MOL    C16 8452   0.224   7.871   7.444  0.5503  0.0310  0.5006
   39MOL    C17 8453   0.100   7.891   7.375 -0.6610  0.1826  0.1817
   39MOL    C18 8454   0.098   7.982   7.265 -0.5108 -0.7845 -0.1925
   39MOL    O19 8455   8.244   7.984   7.186  0.7291 -0.0740  0.6460
   39MOL    H20 8456   0.216   8.127   7.148 -0.0132  1.6808  0.4707
   39MOL    H21 8457   0.419   8.080   7.255 -0.9164 -1.1919 -2.8750
   39MOL    H22 8458   0.231   7.793   7.518  1.6243 -2.0057 -1.6930
   39MOL    H23 8459   0.014   7.829   7.395  0.2078 -1.4322 -0.9516
   39MOL    C24 8460   8.049   0.031   7.289  0.2084  0.1063 -0.0556
   39MOL    C25 8461   8.155   8.199   7.272 -0.1696 -0.5265  0.2229
   39MOL    C26 8462   8.146   8.075   7.211 -0.0259 -0.2287  0.5176
   39MOL    C27 8463   8.020   8.047   7.159  0.1800  0.3676 -0.4565
   39MOL    C28 8464   7.907   8.125   7.177  0.3651  0.3390  0.0741
   39MOL    C29 8465   7.922   8.246   7.252 -0.7104  0.2797  0.1977
   39MOL    O30 8466   7.821   0.080   7.291  0.4482 -0.4220  0.5330
   39MOL    H31 8467   8.067   0.131   7.326 -0.7948 -0.0299  0.8341
   39MOL    H32 8468   8.253   8.238   7.294 -1.2878  1.8897  1.0326
   39MOL    H33 8469   8.013   7.951   7.110  0.2640 -0.4456  1.0856
   39MOL    H34 8470   7.810   8.100   7.136 -0.3759  1.2285  1.2522
   39MOL    C35 8471   7.531   0.152   7.081  0.3535 -0.6647 -0.4524
   39MOL    C36 8472   7.653   0.175   7.154 -0.0889  0.5454  0.7928
   39MOL    C37 8473   7.699   0.066   7.233  0.1547 -0.2858 -0.5642
   39MOL    C38 8474   7.617   8.205   7.254  0.4105 -0.7504 -0.0978
   39MOL    C39 8475   7.487   8.191   7.192 -0.3187 -0.0940 -0.6696
   39MOL    C40 8476   7.446   0.037   7.102  0.3729  0.1034 -0.2662
   39MOL    O41 8477   7.335   0.034   7.029  0.5532 -0.0373  0.2554
   39MOL    H42 8478   7.492   0.233   7.021  1.0817 -0.1829 -0.2761
   39MOL    H43 8479   7.713   0.261   7.129  1.4794  0.0908  2.8060
   39MOL    H44 8480   7.650   8.134   7.329 -0.5862  1.5293  2.5611
   39MOL    H45 8481   7.434   8.098   7.206  0.4642 -0.1535  2.0700
   39MOL    C46 8482   7.061   8.081   7.130 -0.9320  0.3841 -0.3224
   39MOL    C47 8483   7.169   8.132   7.053 -0.3188 -0.5030  0.5540
   39MOL    C48 8484   7.223   0.002   7.087  0.1403 -0.1013  0.1835
   39MOL    C49 8485   7.166   0.076   7.191 -0.3683  0.2132  0.2988
   39MOL    C50 8486   7.051   0.033   7.258 -0.7654 -0.5789 -0.7224
   39MOL    C51 8487   6.994   8.164   7.226  0.1672  0.5199  0.5851
   39MOL    O52 8488   6.901   8.122   7.316 -0.8151 -0.0608  0.3905
   39MOL    H53 8489   7.031   7.978   7.115  0.8465  0.1991 -2.8234
   39MOL    H54 8490   7.220   8.077   6.976 -2.4803 -1.2594 -0.3555
   39MOL    H55 8491   7.215   0.159   7.239  1.0613 -0.9739  0.9120
   39MOL    H56 8492   7.012   0.107   7.328  0.6011  0.1676 -0.7244
   39MOL    C57 8493   6.698   7.844   7.221  0.1872  0.6088  0.2279
   39MOL    C58 8494   6.742   7.975   7.244  0.6071  0.1624 -0.2004
   39MOL    C59 8495   6.854   8.001   7.330  0.2210  0.2325 -0.1225
   39MOL    C60 8496   6.917   7.899   7.406 -0.8100  0.4899  0.0696
   39MOL    C61 8497   6.866   7.772   7.390  0.0339 -1.1378  0.1601
   39MOL    C62 8498   6.759   7.739   7.293 -0.1756 -0.3375 -0.4199
   39MOL    O63 8499   6.730   7.608   7.256  0.5034  0.4111 -0.0986
   39MOL    H64 8500   6.612   7.839   7.156 -0.0467  1.2773  0.4836
   39MOL    H65 8501   6.691   8.054   7.191  1.5795  0.7611 -0.2604
   39MOL    H66 8502   7.007   7.923   7.460 -0.1711  1.4009 -1.3744
   39MOL    H67 8503   6.907   7.689   7.444  0.9416 -0.5883  0.3205
   39MOL    C68 8504   6.399   7.470   7.301 -0.2556 -0.4127  0.2269
   39MOL    C69 8505   6.504   7.550   7.252 -0.2086 -0.3639 -0.0904
   39MOL    C70 8506   6.625   7.548   7.322  0.5384 -0.2362 -0.0589
   39MOL    C71 8507   6.638   7.482   7.444  0.0674  0.6113 -0.5811
   39MOL    C72 8508   6.532   7.398   7.490  0.1740 -0.0422 -0.0853
   39MOL    C73 8509   6.414   7.388   7.415 -0.1843 -0.2249 -0.2940
   39MOL    O74 8510   6.317   7.308   7.459  0.0558 -0.3198  0.0890
   39MOL    H75 8511   6.308   7.468   7.243  0.1897 -0.1232 -0.4853
   39MOL    H76 8512   6.498   7.606   7.160 -3.1659  2.6284  1.8208
   39MOL    H77 8513   6.722   7.491   7.511 -0.9143 -0.3185  0.8173
   39MOL    H78 8514   6.535   7.343   7.583  3.7540  1.9460  1.0893
   39MOL    C79 8515   5.960   7.403   7.457 -0.4239 -0.1179 -0.1802
   39MOL    C80 8516   6.080   7.344   7.422  0.6381 -0.0065  0.3353
   39MOL    C81 8517   6.201   7.374   7.494  0.6521 -0.2069 -0.3837
   39MOL    C82 8518   6.186   7.441   7.616 -0.1542  0.5454  0.2744
   39MOL    C83 8519   6.059   7.493   7.656 -0.0451  0.4141  0.0750
   39MOL    C84 8520   5.941   7.472   7.576 -0.1659  0.2592  0.4788
   39MOL    O85 8521   5.819   7.520   7.613 -0.5458 -0.3840 -0.3244
   39MOL    H86 8522   5.869   7.385   7.401  0.2320 -1.4156 -0.8338
   39MOL    H87 8523   6.087   7.290   7.329 -0.9865 -1.2258  0.8814
   39MOL    H88 8524   6.271   7.465   7.678  2.0315  1.0127 -2.7680
   39MOL    H89 8525   6.048   7.541   7.752 -0.0958 -0.2597  0.4092
   39MOL    C90 8526   5.631   7.347   7.888  0.5605  0.3601  0.0847
   39MOL    C91 8527   5.716   7.435   7.815  0.4029  0.0777 -0.5383
   39MOL    C92 8528   5.739   7.427   7.677 -0.0350  0.3985 -0.1081
   39MOL    C93 8529   5.686   7.318   7.606 -0.6517 -0.8141  0.2024
   39MOL    C94 8530   5.598   7.233   7.671 -0.4651  0.0575 -0.2750
   39MOL    C95 8531   5.570   7.248   7.807 -0.8091  0.2994 -0.3650
   39MOL    O96 8532   5.482   7.163   7.865 -0.0264  0.4757  0.3575
   39MOL    H97 8533   5.600   7.366   7.990 -1.8366 -1.3596 -0.3076
   39MOL    H98 8534   5.771   7.510   7.871 -0.0130  0.3014 -0.4298
   39MOL    H99 8535   5.702   7.319   7.499 -2.4893  2.0012 -0.1095
   39MOL   H100 8536   5.542   7.154   7.622 -2.9633  1.7013 -0.1723
   39MOL   C101 8537   5.115   7.163   7.795 -0.1157 -0.5748  0.0259
   39MOL   C102 8538   5.247   7.117   7.811 -0.3009  0.0943  0.5179
   39MOL   C103 8539   5.350   7.205   7.841 -0.0136 -0.7210  0.1152
   39MOL   C104 8540   5.318   7.343   7.840 -0.9203  0.3174 -0.5823
   39MOL   C105 8541   5.187   7.389   7.837  0.7714  0.4548 -0.8733
   39MOL   C106 8542   5.080   7.301   7.817 -0.0000 -0.4853 -0.5272
   39MOL   O107 8543   4.957   7.346   7.791  0.2946 -0.4142 -0.2975
   39MOL   H108 8544   5.035   7.093   7.776 -1.1027  0.9999 -1.7439
   39MOL   H109 8545   5.265   7.010   7.807  0.3571  0.0854  3.0689
   39MOL   H110 8546   5.391   7.422   7.850 -0.8425  0.0871  0.6850
   39MOL   H111 8547   5.169   7.495   7.848  1.1025  0.4420 -0.2008
   39MOL   C112 8548   4.714   7.242   8.050 -0.1740  0.0797 -0.5654
   39MOL   C113 8549   4.830   7.299   7.993 -0.6193 -0.4692 -0.4944
   39MOL   C114 8550   4.841   7.296   7.854 -0.7342  0.2640 -0.9515
   39MOL   C115 8551   4.739   7.239   7.775 -0.3644  0.4243 -0.1231
   39MOL   C116 8552   4.621   7.184   7.828 -1.0235  0.2862  0.3046
   39MOL   C117 8553   4.603   7.194   7.968 -0.0893 -0.2218  0.3584
   39MOL   O118 8554   4.487   7.142   8.020 -0.1451 -0.2289  0.2010
   39MOL   H119 8555   4.708   7.241   8.157  0.7338  0.6389 -0.5051
   39MOL   H120 8556   4.910   7.334   8.057 -0.7027 -0.8456 -0.1834
   39MOL   H121 8557   4.746   7.235   7.667 -0.5595 -3.1638 -0.0745
   39MOL   H122 8558   4.553   7.136   7.758 -0.5160 -1.8289  1.2344
   39MOL   C123 8559   4.343   7.416   8.203  0.6809  0.3167 -0.0150
   39MOL   C124 8560   4.373   7.329   8.095 -0.6905 -0.3401 -0.7973
   39MOL   C125 8561   4.439   7.212   8.126 -0.1344 -0.2207 -0.7240
   39MOL   C126 8562   4.468   7.167   0.002 -0.3011 -0.7632  0.4779
   39MOL   C127 8563   4.444   7.254   0.115  0.1629 -0.1698  0.3523
   39MOL   C128 8564   4.375   7.375   0.082 -0.0600  0.2890 -0.6102
   39MOL   O129 8565   4.342   7.449   0.185  0.5381 -0.2005 -0.0978
   39MOL   H130 8566   4.289   7.509   8.197 -2.6777 -1.3322  2.9540
   39MOL   H131 8567   4.350   7.344   7.991 -2.2773  0.3900 -0.3613
   39MOL   H132 8568   4.523   7.074   0.014  1.2763  0.1152  0.1468
   39MOL   H133 8569   4.468   7.232   0.217  0.3120 -3.0663 -0.2681
   39MOL   C134 8570   3.978   7.474   0.246 -0.6457  0.3601 -0.0566
   39MOL   C135 8571   4.104   7.499   0.201  0.5417 -0.4632  1.4708
   39MOL   C136 8572   4.216   7.433   0.245  0.0682 -0.2259  0.2864
   39MOL   C137 8573   4.201   7.334   0.347 -0.0563  0.4922  0.0442
   39MOL   C138 8574   4.069   7.299   0.393 -0.1829  0.4825 -0.0433
   39MOL   C139 8575   3.956   7.370   0.335 -0.2094  0.0713  0.3905
   39MOL   O140 8576   3.835   7.338   0.386  0.4554  0.4144  0.2152
   39MOL   H141 8577   3.888   7.520   0.207  0.3771  2.6881  0.2962
   39MOL   H142 8578   4.106   7.574   0.124  0.9470 -0.8531  1.0981
   39MOL   H143 8579   4.288   7.281   0.382  0.6690  1.1089 -0.7912
   39MOL   H144 8580   4.068   7.225   0.472  0.4318  1.0370  0.4923
   39MOL   C145 8581   3.571   7.157   0.199  0.4425  0.2558  0.7663
   39MOL   C146 8582   3.666   7.252   0.234 -0.4384  0.6245  0.2065
   39MOL   C147 8583   3.764   7.228   0.331 -0.1997  0.3772  0.3115
   39MOL   C148 8584   3.756   7.111   0.398 -0.6979 -0.0561 -0.0566
   39MOL   C149 8585   3.664   7.012   0.361 -0.1512  0.4352  0.2799
   39MOL   C150 8586   3.568   7.034   0.264  0.6432 -0.0939  0.6578
   39MOL   O151 8587   3.477   6.937   0.229 -0.6279 -0.6434 -0.0591
   39MOL   H152 8588   3.497   7.185   0.125  0.5710 -2.4263 -0.4459
   39MOL   H153 8589   3.671   7.353   0.197  0.6266  0.9284  1.1391
   39MOL   H154 8590   3.823   7.089   0.481  0.4266  3.2563 -0.0069
   39MOL   H155 8591   3.665   6.917   0.411  0.1401  0.8721  1.1108
   39MOL   C156 8592   3.403   6.749   8.165 -0.1856 -0.1412  0.3298
   39MOL   C157 8593   3.393   6.825   0.031  0.0462 -0.2040  0.5490
   39MOL   C158 8594   3.504   6.861   0.112 -0.1717  0.2838  0.5110
   39MOL   C159 8595   3.633   6.813   0.076 -0.0481  0.0613 -0.0088
   39MOL   C160 8596   3.650   6.750   8.203 -0.1169 -0.4048  0.0205
   39MOL   C161 8597   3.540   6.722   8.120  0.1465  0.7274  0.0643
   39MOL   O162 8598   3.561   6.675   7.993  0.1792 -0.2817 -0.2006
   39MOL   H163 8599   3.313   6.721   8.112  1.9406 -0.2635 -3.4056
   39MOL   H164 8600   3.296   6.855   0.069  0.0695 -0.0113  0.4589
   39MOL   H165 8601   3.712   6.827   0.148 -1.2847 -0.6212  1.5098
   39MOL   H166 8602   3.748   6.716   8.171 -0.1662 -0.0606 -0.4993
   39MOL   C167 8603   3.716   6.349   8.039  0.2283  0.2845 -0.2102
   39MOL   C168 8604   3.626   6.458   8.062  0.0367  0.1462 -0.4331
   39MOL   C169 8605   3.646   6.569   7.980 -0.2277  0.8566 -0.1689
   39MOL   C170 8606   3.746   6.568   7.885  0.2505 -0.4024 -0.3320
   39MOL   C171 8607   3.840   6.465   7.871  0.5698  0.0678 -0.3308
   39MOL   C172 8608   3.819   6.345   7.940  0.2798 -0.0366  0.0839
   39MOL   O173 8609   3.909   6.244   7.935  0.4027 -0.1951 -0.0326
   39MOL   H174 8610   3.699   6.254   8.088  1.1333  0.2931  0.1143
   39MOL   H175 8611   3.549   6.469   8.137  0.1220  2.4324 -0.6308
   39MOL   H176 8612   3.749   6.653   7.819 -0.8429  1.7552  2.3150
   39MOL   H177 8613   3.918   6.470   7.797 -1.4376 -0.2010 -2.5262
   39MOL   C178 8614   4.204   6.302   8.155 -0.1803  0.4088  0.6841
   39MOL   C179 8615   4.109   6.315   8.048 -0.5180 -0.0770  0.1710
   39MOL   C180 8616   3.995   6.238   8.040 -0.5599  0.1304  0.2046
   39MOL   C181 8617   3.966   6.152   8.155  0.1989 -0.1366  0.5224
   39MOL   C182 8618   4.051   6.146   0.013  0.3318 -0.5427 -0.0799
   39MOL   C183 8619   4.171   6.220   0.012 -0.9147 -0.2288 -0.3548
   39MOL   O184 8620   4.257   6.209   0.121 -0.2269 -0.0028  0.0311
   39MOL   H185 8621   4.294   6.362   8.164  0.3648 -0.5687  1.8707
   39MOL   H186 8622   4.140   6.368   7.958  0.3510 -1.0767 -0.1306
   39MOL   H187 8623   3.876   6.093   8.151 -0.2879  0.6654 -0.4722
   39MOL   H188 8624   4.036   6.078   0.096 -1.3593 -0.9374 -0.7038
   39MOL   C189 8625   4.173   6.456   0.374  0.5570  0.2414 -0.2275
   39MOL   C190 8626   4.218   6.404   0.254 -1.1390  0.8165  0.1405
   39MOL   C191 8627   4.220   6.262   0.237 -0.3855  0.6597  0.2711
   39MOL   C192 8628   4.190   6.178   0.344  0.0691 -0.6900 -0.8656
   39MOL   C193 8629   4.152   6.230   0.467 -0.2487 -0.1784  0.3276
   39MOL   C194 8630   4.137   6.370   0.482  0.1664 -0.1274  0.8248
   39MOL   O195 8631   4.100   6.413   0.607 -0.0066 -0.0880  0.8222
   39MOL   H196 8632   4.147   6.560   0.383 -0.8499 -0.0852 -0.4945
   39MOL   H197 8633   4.257   6.464   0.173  1.4379  1.2800  1.6481
   39MOL   H198 8634   4.196   6.070   0.335 -2.2391 -0.9548  0.2692
   39MOL   H199 8635   4.132   6.158   0.544 -1.1387 -0.7040 -0.3817
   39MOL   C200 8636   3.883   6.717   0.607  0.0883  0.2726  0.1727
   39MOL   C201 8637   4.001   6.640   0.608 -0.2941 -0.0827 -0.0403
   39MOL   C202 8638   3.990   6.498   0.616  0.5721  0.2487 -0.5845
   39MOL   C203 8639   3.864   6.435   0.620  0.4307 -0.7808 -0.5231
   39MOL   C204 8640   3.744   6.512   0.610 -1.1684 -0.0643 -0.0800
   39MOL   C205 8641   3.755   6.653   0.600  0.0673  0.1828 -0.3638
   39MOL   O206 8642   3.648   6.728   0.597  0.6751 -0.8121  0.3205
   39MOL   H207 8643   3.892   6.824   0.598  0.2229  0.2665  0.2443
   39MOL   H208 8644   4.101   6.683   0.605  0.6572 -2.3140 -1.7008
   39MOL   H209 8645   3.874   6.327   0.618 -2.8916 -1.1374 -0.6126
   39MOL   H210 8646   3.657   6.449   0.620 -2.2222  1.4437  0.4346
   39MOL   C211 8647   3.295   6.642   0.568 -0.1673  0.0348 -0.0058
   39MOL   C212 8648   3.418   6.679   0.620 -0.1073  0.3804  0.2689
   39MOL   C213 8649   3.534   6.683   0.544  0.7744 -0.0456 -0.8636
   39MOL   C214 8650   3.522   6.664   0.407  0.2154 -0.2404  0.5023
   39MOL   C215 8651   3.406   6.620   0.346  0.5952  0.2162 -0.1896
   39MOL   C216 8652   3.289   6.605   0.436  0.2386  0.8489  0.5772
   39MOL   O217 8653   3.180   6.558   0.377 -0.3791  0.1669  0.5335
   39MOL   H218 8654   3.214   6.630   0.638 -0.3598  1.5515  0.0410
   39MOL   H219 8655   3.422   6.704   0.725  0.6217  1.7905 -0.0839
   39MOL   H220 8656   3.603   6.674   0.337  0.0276 -0.5699  0.2301
   39MOL   H221 8657   3.402   6.603   0.239 -2.0926 -2.0809  0.2021
   39MOL   H222 8658   3.109   6.594   0.428 -1.1604  0.8805 -0.9927
   40MOL     C1 8659   7.910   0.599   2.217 -0.3332 -0.2404 -0.3659
   40MOL     C2 8660   7.876   0.622   2.351 -0.3413  0.3935 -0.3964
   40MOL     C3 8661   7.794   0.734   2.381  0.8048 -0.3067 -0.1239
   40MOL     C4 8662   7.731   0.810   2.279 -0.2320 -0.0134 -0.1464
   40MOL     C5 8663   7.751   0.775   2.143  0.3799 -0.2948 -0.1828
   40MOL     C6 8664   7.844   0.670   2.110 -0.5102  0.5117 -0.2094
   40MOL     O7 8665   7.871   0.634   1.983 -0.1267 -0.2258  0.3850
   40MOL     H8 8666   7.984   0.525   2.192  1.6834  1.0924  1.5278
   40MOL     H9 8667   7.924   0.562   2.426 -1.0491 -2.2877 -1.9943
   40MOL    H10 8668   7.679   0.899   2.308 -0.9167 -0.8001  1.0985
   40MOL    H11 8669   7.696   0.837   2.073 -3.2982 -0.9160  2.0560
   40MOL    H12 8670   7.772   0.751   2.486  0.7139  0.0557 -0.2006
   40MOL    C13 8671   7.662   0.541   1.685 -0.1288  0.0979 -0.0315
   40MOL    C14 8672   7.753   0.610   1.765 -0.9414 -0.1487 -0.6225
   40MOL    C15 8673   7.774   0.578   1.899  0.1724 -0.3459 -0.1851
   40MOL    C16 8674   7.691   0.474   1.947  0.1976  0.4536 -0.6240
   40MOL    C17 8675   7.602   0.407   1.866  0.8519 -0.6703  0.1193
   40MOL    C18 8676   7.587   0.435   1.731  0.8929  0.1053  0.0289
   40MOL    O19 8677   7.502   0.362   1.658  0.4370 -0.1869  0.4629
   40MOL    H20 8678   7.670   0.565   1.580  1.3171 -0.2042  0.0032
   40MOL    H21 8679   7.822   0.683   1.725  0.6828  0.2499  2.7500
   40MOL    H22 8680   7.702   0.443   2.050  0.2710  2.7075  0.0850
   40MOL    H23 8681   7.527   0.337   1.900  1.7988 -2.2466 -0.9651
   40MOL    C24 8682   7.701   0.212   1.385 -0.1369  0.0813  0.8909
   40MOL    C25 8683   7.641   0.304   1.469 -0.0450 -0.0841 -0.3214
   40MOL    C26 8684   7.571   0.272   1.583  0.3400  0.5155  0.6451
   40MOL    C27 8685   7.556   0.133   1.613  0.1928  0.5680  0.1241
   40MOL    C28 8686   7.614   0.035   1.533  1.3744  0.5767  0.0455
   40MOL    C29 8687   7.677   0.073   1.412  0.0126 -0.1028  0.2048
   40MOL    O30 8688   7.723   8.235   1.321 -0.1220  0.0446 -0.7206
   40MOL    H31 8689   7.755   0.244   1.297 -2.4095 -0.6797 -0.8333
   40MOL    H32 8690   7.650   0.408   1.442  1.3448 -0.9498 -3.3131
   40MOL    H33 8691   7.510   0.106   1.707 -1.4036  1.0533 -0.4936
   40MOL    H34 8692   7.595   8.183   1.545 -1.0238  0.9882  0.2015
   40MOL    C35 8693   8.015   8.013   1.354  1.1138 -0.3775  0.3169
   40MOL    C36 8694   7.880   8.064   1.360 -0.4773  0.5308 -0.4328
   40MOL    C37 8695   7.856   8.200   1.335 -0.2147  0.2583  0.4621
   40MOL    C38 8696   7.958   0.037   1.311  0.6299 -0.5189  0.5324
   40MOL    C39 8697   8.094   8.244   1.317  0.6869 -0.1563  0.9702
   40MOL    C40 8698   8.124   8.107   1.346  0.3723  0.3345  0.5765
   40MOL    O41 8699   8.254   8.052   1.349 -0.7421 -0.3782 -0.1146
   40MOL    H42 8700   8.042   7.909   1.358  2.9023  0.1024  1.6263
   40MOL    H43 8701   7.794   8.003   1.383 -0.9399  1.6383  0.8315
   40MOL    H44 8702   7.934   0.140   1.293 -1.1222 -1.0765 -0.4491
   40MOL    H45 8703   8.166   0.070   1.317  0.1607  0.3256 -0.9924
   40MOL    C46 8704   0.090   7.849   1.649  0.4604  0.2157 -0.2446
   40MOL    C47 8705   0.033   7.885   1.520  0.4037  1.2436 -0.0730
   40MOL    C48 8706   0.050   8.020   1.472 -1.2765  0.1160  0.5312
   40MOL    C49 8707   0.129   8.119   1.541 -0.7031  0.1104  0.4379
   40MOL    C50 8708   0.190   8.072   1.661  0.1051 -0.9364 -0.2268
   40MOL    C51 8709   0.162   7.943   1.723  0.1424 -0.6140  0.6167
   40MOL    O52 8710   0.198   7.915   1.851  0.1235 -0.2798  0.2669
   40MOL    H53 8711   0.064   7.752   1.688  0.5096  0.4767  0.4411
   40MOL    H54 8712   8.241   7.818   1.448 -0.7249  2.5734 -0.6193
   40MOL    H55 8713   0.161   8.203   1.482  0.2552 -1.7671 -1.7553
   40MOL    H56 8714   0.261   8.133   1.715  0.4016 -2.0930  0.7138
   40MOL    C57 8715   0.531   7.846   2.009 -0.0979  0.2308 -0.2664
   40MOL    C58 8716   0.403   7.901   1.986  0.3555 -0.8732 -0.4209
   40MOL    C59 8717   0.328   7.870   1.869  0.7672  0.0112  0.2795
   40MOL    C60 8718   0.379   7.765   1.791  0.0148  0.0284 -0.2933
   40MOL    C61 8719   0.506   7.718   1.806 -0.4573 -0.2433  0.0553
   40MOL    C62 8720   0.588   7.760   1.914  0.2189 -0.0430 -0.6174
   40MOL    O63 8721   0.715   7.709   1.935  0.3243  0.7554  0.1687
   40MOL    H64 8722   0.581   7.873   2.101  0.1806 -0.6768 -0.1458
   40MOL    H65 8723   0.350   7.952   2.066 -0.7681 -2.7554  0.0993
   40MOL    H66 8724   0.327   7.729   1.704 -0.6826  1.7980 -0.6357
   40MOL    H67 8725   0.539   7.638   1.741  0.7993 -0.4959  0.9654
   40MOL    C68 8726   0.818   7.523   2.235 -0.1665  0.9039  0.5849
   40MOL    C69 8727   0.800   7.623   2.144  0.4782  0.3857  1.4132
   40MOL    C70 8728   0.725   7.612   2.027  0.2762  0.2118 -0.4385
   40MOL    C71 8729   0.675   7.482   1.996  0.1649 -0.2944  0.2364
   40MOL    C72 8730   0.699   7.365   2.082  0.6314  0.2613 -0.3901
   40MOL    C73 8731   0.767   7.397   2.202  0.2573  0.3541  0.0722
   40MOL    O74 8732   0.791   7.291   2.291 -0.3433 -0.2935  0.1982
   40MOL    H75 8733   0.872   7.544   2.326  2.0923  0.4034 -0.5846
   40MOL    H76 8734   0.843   7.718   2.170 -1.4135  1.4716  0.6699
   40MOL    H77 8735   0.609   7.470   1.911  0.6579 -0.0190 -0.1848
   40MOL    H78 8736   0.669   7.262   2.065  2.3005 -0.3006 -0.0479
   40MOL    C79 8737   1.123   7.145   2.245  0.2067  0.8954 -0.3614
   40MOL    C80 8738   1.024   7.240   2.286  0.5320 -0.1095  0.8037
   40MOL    C81 8739   0.888   7.204   2.260  0.6097 -0.5921  0.5782
   40MOL    C82 8740   0.852   7.077   2.206 -0.3793 -0.3850  0.1907
   40MOL    C83 8741   0.955   6.988   2.166  0.3108  0.0335  0.3459
   40MOL    C84 8742   1.088   7.016   2.192 -0.2241  0.0388  0.8452
   40MOL    O85 8743   1.188   6.923   2.165 -0.0642  0.0828  0.2843
   40MOL    H86 8744   1.227   7.164   2.269  1.0208 -3.9552  0.5118
   40MOL    H87 8745   1.053   7.334   2.332 -0.0590  2.0393 -3.0450
   40MOL    H88 8746   0.748   7.049   2.199 -0.1107 -1.0548 -1.3313
   40MOL    H89 8747   0.931   6.889   2.133 -0.8449  0.7640 -1.0624
   40MOL    C90 8748   1.546   7.029   2.160 -0.1651  0.0496  0.3373
   40MOL    C91 8749   1.406   7.011   2.126  0.5985 -0.1595  0.3422
   40MOL    C92 8750   1.317   6.940   2.206  0.2235 -0.6133  0.0100
   40MOL    C93 8751   1.366   6.878   2.324 -0.2570 -0.1443 -0.0903
   40MOL    C94 8752   1.506   6.895   2.356 -0.9177 -0.2227 -0.3746
   40MOL    C95 8753   1.594   6.969   2.277  0.4696  0.0411  0.1378
   40MOL    O96 8754   1.723   6.978   2.312  0.6691 -0.4237  0.4312
   40MOL    H97 8755   1.613   7.081   2.093  1.7107 -1.1320  1.2518
   40MOL    H98 8756   1.388   7.047   2.026 -0.0354  0.8507  0.8160
   40MOL    H99 8757   1.303   6.809   2.379 -0.0751 -1.3727 -1.3652
   40MOL   H100 8758   1.549   6.842   2.439 -0.3438 -0.8826 -1.0836
   40MOL   C101 8759   1.869   6.672   2.137 -0.1000 -0.5219  0.3053
   40MOL   C102 8760   1.776   6.771   2.173  1.6598  0.8672 -0.3535
   40MOL   C103 8761   1.806   6.881   2.256  0.1833  0.6773  0.2382
   40MOL   C104 8762   1.943   6.891   2.297 -0.4116 -0.4811  0.4114
   40MOL   C105 8763   2.043   6.800   2.258 -0.7718 -0.1690  0.0304
   40MOL   C106 8764   2.004   6.687   2.175  0.5794  0.1469 -0.2674
   40MOL   O107 8765   2.092   6.586   2.151 -0.1927  0.0557 -0.6056
   40MOL   H108 8766   1.842   6.586   2.079 -0.8201 -0.9615  1.2937
   40MOL   H109 8767   1.672   6.759   2.144  0.7250  0.2368  3.0188
   40MOL   H110 8768   1.978   6.971   2.360  0.7909  0.1605 -1.0643
   40MOL   H111 8769   2.146   6.810   2.289 -0.0784 -1.2759 -1.8232
   40MOL   C112 8770   2.445   6.647   2.066 -0.0794  0.2065  0.6748
   40MOL   C113 8771   2.331   6.634   2.143  0.8264 -0.4489  0.3104
   40MOL   C114 8772   2.204   6.613   2.075  0.2074 -0.0833  0.2484
   40MOL   C115 8773   2.204   6.613   1.932 -0.2222  0.1354  0.1791
   40MOL   C116 8774   2.323   6.610   1.857  0.6189 -0.1528 -0.4556
   40MOL   C117 8775   2.444   6.642   1.922 -0.0135  0.0326  0.1400
   40MOL   O118 8776   2.561   6.661   1.860 -0.0161  0.1041 -0.4298
   40MOL   H119 8777   2.535   6.674   2.120  1.1303 -1.6005 -0.4007
   40MOL   H120 8778   2.328   6.638   2.251 -1.0238 -2.5163  0.3779
   40MOL   H121 8779   2.106   6.599   1.888 -0.4209  0.2858  0.5744
   40MOL   H122 8780   2.323   6.589   1.751 -0.3457 -0.0898 -0.4727
   40MOL   C123 8781   2.801   6.379   1.842  0.0540  0.4080 -0.0215
   40MOL   C124 8782   2.685   6.458   1.828 -0.1321  0.5306 -0.8682
   40MOL   C125 8783   2.668   6.581   1.890 -0.2292 -0.4952 -0.1180
   40MOL   C126 8784   2.767   6.617   1.985  0.1559 -0.1951 -0.0381
   40MOL   C127 8785   2.881   6.533   2.012 -0.1861  0.5134 -0.5671
   40MOL   C128 8786   2.902   6.415   1.935  0.9641  0.4054 -0.0190
   40MOL   O129 8787   3.009   6.322   1.950 -0.4993 -0.1168 -0.0412
   40MOL   H130 8788   2.810   6.284   1.791 -1.2459 -0.5856  1.5355
   40MOL   H131 8789   2.608   6.431   1.757 -1.1762  3.6144 -0.9597
   40MOL   H132 8790   2.750   6.703   2.048  0.3949  0.6294 -1.0834
   40MOL   H133 8791   2.944   6.560   2.096 -1.8196  3.0173 -0.1162
   40MOL   C134 8792   3.343   6.339   1.802  0.0285  0.0844 -0.7667
   40MOL   C135 8793   3.207   6.311   1.822  0.3714  0.4089 -0.3344
   40MOL   C136 8794   3.139   6.362   1.935 -0.4389 -0.5570 -0.1098
   40MOL   C137 8795   3.207   6.453   2.022  0.3483  0.4798  0.0911
   40MOL   C138 8796   3.337   6.489   1.990  0.4553 -0.4803  0.4644
   40MOL   C139 8797   3.408   6.427   1.890  0.3742  0.0933 -0.3319
   40MOL   O140 8798   3.538   6.468   1.868  0.1856  0.0154  0.0570
   40MOL   H141 8799   3.403   6.293   1.726  1.3792 -1.3241  1.1250
   40MOL   H142 8800   3.158   6.233   1.765  3.0711  0.6162 -3.0935
   40MOL   H143 8801   3.152   6.505   2.099 -0.0441  0.4073 -0.1367
   40MOL   H144 8802   3.389   6.570   2.039 -0.9768  1.0468 -0.4972
   40MOL   C145 8803   3.800   6.309   2.046  0.0525 -0.4941 -0.0319
   40MOL   C146 8804   3.699   6.393   2.014  0.1242 -0.1708 -0.0678
   40MOL   C147 8805   3.635   6.379   1.890  0.0454  0.2040  0.5439
   40MOL   C148 8806   3.688   6.285   1.797 -0.2804  0.2808  0.3104
   40MOL   C149 8807   3.793   6.198   1.828 -0.0795 -0.3622 -0.3615
   40MOL   C150 8808   3.851   6.215   1.954  0.7259 -0.1035 -0.4439
   40MOL   O151 8809   3.957   6.129   1.987  0.2212  0.5349  0.1930
   40MOL   H152 8810   3.847   6.299   2.143 -0.8668  1.6201  0.6417
   40MOL   H153 8811   3.655   6.468   2.079 -0.2793  0.0009 -0.5391
   40MOL   H154 8812   3.654   6.290   1.694 -1.7071  0.2629  0.7636
   40MOL   H155 8813   3.837   6.140   1.748 -0.7044 -0.3877 -0.6863
   40MOL   C156 8814   4.205   5.996   1.749  0.3990  0.0561  0.0332
   40MOL   C157 8815   4.125   6.092   1.816  0.1898 -0.4972  0.2442
   40MOL   C158 8816   4.021   6.046   1.900  0.6422  0.5632 -0.2761
   40MOL   C159 8817   3.987   5.910   1.908 -0.2387  0.2690 -0.4539
   40MOL   C160 8818   4.068   5.814   1.841  0.3670  0.6933 -0.4319
   40MOL   C161 8819   4.178   5.859   1.767 -0.1389  0.1279 -0.5165
   40MOL   O162 8820   4.258   5.773   1.700  0.0286  0.7345  0.4993
   40MOL   H163 8821   4.293   6.031   1.697  0.0146  0.1743 -0.5527
   40MOL   H164 8822   4.149   6.197   1.807 -2.2030  0.0664  0.1627
   40MOL   H165 8823   3.906   5.871   1.969  1.0842 -2.4525 -0.3572
   40MOL   H166 8824   4.040   5.710   1.851  1.9143  0.4422  1.6165
   40MOL   C167 8825   4.269   5.406   1.760 -0.5291  0.1353  1.0911
   40MOL   C168 8826   4.239   5.531   1.705  0.1100 -0.1446 -0.1631
   40MOL   C169 8827   4.286   5.652   1.762  0.7857  0.0512 -0.3536
   40MOL   C170 8828   4.368   5.649   1.877  0.2918  0.1706  0.0606
   40MOL   C171 8829   4.396   5.523   1.938 -0.6245 -0.3671  0.4106
   40MOL   C172 8830   4.349   5.403   1.875  0.2801 -0.6830  0.0259
   40MOL   O173 8831   4.387   5.282   1.929  0.1847 -0.1253 -0.9667
   40MOL   H174 8832   4.239   5.317   1.706  0.7669 -1.1748  2.4959
   40MOL   H175 8833   4.167   5.545   1.625 -2.4961 -0.9824  1.9411
   40MOL   H176 8834   4.405   5.740   1.923  0.9659  0.1780 -0.4979
   40MOL   H177 8835   4.456   5.517   2.027 -1.3358  0.2036  0.9282
   40MOL   C178 8836   4.161   5.153   2.179 -0.2761 -0.3867  0.6641
   40MOL   C179 8837   4.267   5.225   2.122  0.4592 -0.1630  0.5591
   40MOL   C180 8838   4.286   5.211   1.985  0.0232  0.4213  0.0712
   40MOL   C181 8839   4.208   5.126   1.909  0.4445  0.3725  0.0776
   40MOL   C182 8840   4.104   5.057   1.971 -1.0468 -0.5759 -0.4748
   40MOL   C183 8841   4.076   5.079   2.103  0.7768 -0.0447  0.5486
   40MOL   O184 8842   3.964   5.011   2.152 -0.3269 -0.7736 -0.1452
   40MOL   H185 8843   4.142   5.178   2.282 -1.3491  1.6464  0.0101
   40MOL   H186 8844   4.332   5.284   2.184  1.4739  0.6759 -1.2524
   40MOL   H187 8845   4.232   5.123   1.804  0.7667 -2.0172  0.2014
   40MOL   H188 8846   4.038   4.997   1.910 -2.7167  1.2255 -0.4636
   40MOL   C189 8847   3.896   4.961   2.508  0.7279  0.3421  0.1958
   40MOL   C190 8848   3.911   5.022   2.384  0.2874  0.2998 -0.0849
   40MOL   C191 8849   3.963   4.950   2.276 -0.1858  0.4589  0.6061
   40MOL   C192 8850   4.001   4.817   2.291 -0.2233  0.2333 -0.1055
   40MOL   C193 8851   3.986   4.762   2.417  0.5348 -0.0385  0.4670
   40MOL   C194 8852   3.940   4.829   2.528 -0.5746 -0.4826  0.0576
   40MOL   O195 8853   3.942   4.771   2.655 -0.3119 -0.1556  0.2252
   40MOL   H196 8854   3.850   5.026   2.581  0.9889  0.0750  0.6011
   40MOL   H197 8855   3.884   5.127   2.384  0.5098  0.3789  1.3359
   40MOL   H198 8856   4.035   4.766   2.202 -5.0948  0.6707 -2.3568
   40MOL   H199 8857   4.018   4.659   2.429  1.0699 -0.0463 -0.9238
   40MOL   C200 8858   4.295   4.815   2.758 -0.8071  0.1411  0.1312
   40MOL   C201 8859   4.182   4.800   2.674  0.0018  0.2799 -0.6961
   40MOL   C202 8860   4.053   4.796   2.728 -0.0873  0.4852 -0.6481
   40MOL   C203 8861   4.035   4.809   2.869 -0.3671 -0.2639 -0.7591
   40MOL   C204 8862   4.143   4.839   2.952 -0.7774  0.4298  0.1767
   40MOL   C205 8863   4.275   4.839   2.898  1.0036 -0.1041  0.5398
   40MOL   O206 8864   4.384   4.873   2.974  0.2218 -0.6643 -0.1373
   40MOL   H207 8865   4.395   4.829   2.720 -2.0176  2.5089 -2.4001
   40MOL   H208 8866   4.185   4.787   2.567  1.8890  4.2165 -1.1801
   40MOL   H209 8867   3.938   4.792   2.914 -0.1403  1.0777  0.2548
   40MOL   H210 8868   4.128   4.848   3.059 -1.2529 -0.6045  0.1995
   40MOL   C211 8869   4.354   5.247   3.014 -0.0040  0.7285  0.0930
   40MOL   C212 8870   4.352   5.117   2.956  0.4566  0.6385 -0.0889
   40MOL   C213 8871   4.391   5.000   3.031 -0.0636  1.1126  1.2209
   40MOL   C214 8872   4.448   5.016   3.160  1.0525  0.1539  0.4616
   40MOL   C215 8873   4.436   5.143   3.221 -0.2326 -0.5639 -0.1618
   40MOL   C216 8874   4.396   5.263   3.144  0.6633 -0.6853 -0.7569
   40MOL   O217 8875   4.394   5.387   3.192 -0.4887  0.4077 -1.0557
   40MOL   H218 8876   4.318   5.329   2.953  1.9641  1.4869 -0.0833
   40MOL   H219 8877   4.328   5.101   2.852  1.8518 -0.9238 -0.1991
   40MOL   H220 8878   4.489   4.934   3.216  0.4240  0.6994  1.7525
   40MOL   H221 8879   4.477   5.146   3.321 -3.8450 -2.6368  1.5099
   40MOL   H222 8880   4.408   5.393   3.285  0.9516  1.3801 -1.3198
   41MOL     C1 8881   6.199   0.061   0.845 -0.4252 -0.0129  0.3188
   41MOL     C2 8882   6.207   8.216   0.748  0.3396 -0.0087  0.6997
   41MOL     C3 8883   6.293   8.104   0.765 -0.0517 -0.2643  0.0525
   41MOL     C4 8884   6.364   8.098   0.888 -0.3957  0.3400  0.4046
   41MOL     C5 8885   6.349   8.191   0.996 -0.3785  0.5081  0.5666
   41MOL     C6 8886   6.270   0.046   0.970 -0.5221  0.2003 -0.2616
   41MOL     O7 8887   6.263   0.139   1.072  0.0584  0.3298  0.0025
   41MOL     H8 8888   6.135   0.147   0.829 -1.8376 -1.4128 -1.7883
   41MOL     H9 8889   6.139   8.219   0.664 -2.0587  0.4266  2.6221
   41MOL    H10 8890   6.423   8.012   0.913 -1.0234  0.4910  2.5094
   41MOL    H11 8891   6.384   8.163   1.094  2.1614 -3.4039 -1.3076
   41MOL    H12 8892   6.309   8.020   0.700  2.2719  1.7258 -2.0409
   41MOL    C13 8893   6.302   0.474   0.933  0.9732  0.0821 -0.2601
   41MOL    C14 8894   6.330   0.336   0.958 -0.4535 -0.0735 -0.3529
   41MOL    C15 8895   6.244   0.268   1.043  0.1035 -0.1016 -0.4879
   41MOL    C16 8896   6.129   0.336   1.093 -0.1001  0.7370  0.4691
   41MOL    C17 8897   6.095   0.473   1.065 -0.2150  0.1163  0.8266
   41MOL    C18 8898   6.188   0.543   0.989 -0.4502  0.3136  0.9844
   41MOL    O19 8899   6.177   0.679   0.973  0.1854  0.2771 -0.2500
   41MOL    H20 8900   6.369   0.525   0.865  1.7543 -2.3734 -1.3916
   41MOL    H21 8901   6.412   0.280   0.917 -0.8997 -1.9617  1.3104
   41MOL    H22 8902   6.059   0.278   1.152 -0.7170  0.5805 -0.4008
   41MOL    H23 8903   6.005   0.518   1.105 -0.7206 -0.3746  0.2531
   41MOL    C24 8904   6.307   0.859   1.279  0.7446 -0.1207  0.1203
   41MOL    C25 8905   6.292   0.756   1.181 -0.2838  0.1776  0.0192
   41MOL    C26 8906   6.185   0.767   1.085  0.2808 -0.3942 -0.5089
   41MOL    C27 8907   6.079   0.859   1.096  0.5804 -0.1832 -0.1723
   41MOL    C28 8908   6.081   0.945   1.207  0.0037  0.8189 -0.6105
   41MOL    C29 8909   6.202   0.952   1.292  0.5683  0.4087  1.0564
   41MOL    O30 8910   6.215   1.045   1.392  0.8654 -0.0885  0.4516
   41MOL    H31 8911   6.393   0.866   1.345  0.5526  0.4043  0.3148
   41MOL    H32 8912   6.367   0.678   1.174  0.7324  1.0019  1.4646
   41MOL    H33 8913   5.993   0.848   1.032  0.0348 -2.1300  0.8399
   41MOL    H34 8914   5.997   1.008   1.232 -0.5370 -0.6110  1.3197
   41MOL    C35 8915   6.214   0.893   1.721 -0.1039 -0.6610 -0.3740
   41MOL    C36 8916   6.260   0.935   1.590  0.6950 -0.4136 -0.8196
   41MOL    C37 8917   6.175   1.010   1.513  0.4083 -0.2310 -0.2735
   41MOL    C38 8918   6.050   1.055   1.562 -1.0580  0.7160 -0.6240
   41MOL    C39 8919   5.998   1.009   1.692  0.2884  0.6631 -0.2027
   41MOL    C40 8920   6.083   0.926   1.765 -0.4505  0.0225 -0.3756
   41MOL    O41 8921   6.040   0.884   1.886 -0.1821  0.2018 -0.2119
   41MOL    H42 8922   6.281   0.831   1.779  2.0912  2.4602  0.5556
   41MOL    H43 8923   6.361   0.910   1.562  0.9171  1.6807 -1.9801
   41MOL    H44 8924   5.997   1.124   1.499 -3.1470  2.1736  2.5868
   41MOL    H45 8925   5.895   1.036   1.708 -0.7639 -2.3063 -1.7008
   41MOL    C46 8926   5.824   0.595   1.833  0.0734  0.4838  0.0435
   41MOL    C47 8927   5.884   0.721   1.813  0.5939  0.2949  0.0298
   41MOL    C48 8928   5.993   0.756   1.895  0.0743 -0.1313 -0.4576
   41MOL    C49 8929   6.029   0.668   2.000 -0.5717  0.0259 -0.5471
   41MOL    C50 8930   5.977   0.538   2.016 -0.3293 -0.0593  0.2806
   41MOL    C51 8931   5.870   0.496   1.927  0.1642 -0.7523  0.5260
   41MOL    O52 8932   5.807   0.379   1.942  0.6707  0.1060  0.4544
   41MOL    H53 8933   5.739   0.581   1.769  0.1571  0.7699 -0.1297
   41MOL    H54 8934   5.862   0.804   1.748 -0.9857 -1.0544 -1.1877
   41MOL    H55 8935   6.100   0.698   2.076  0.2151 -0.8280 -0.9402
   41MOL    H56 8936   6.003   0.472   2.098  1.1390 -0.1812 -0.2757
   41MOL    C57 8937   5.652   0.197   1.651 -0.3790 -0.4980  0.2111
   41MOL    C58 8938   5.675   0.296   1.754 -0.3201 -0.5784  0.4441
   41MOL    C59 8939   5.794   0.296   1.831  0.6508  0.1259 -0.5775
   41MOL    C60 8940   5.888   0.192   1.805  0.0145 -0.0733 -0.9136
   41MOL    C61 8941   5.870   0.103   1.703  0.9969 -0.1196 -0.6031
   41MOL    C62 8942   5.749   0.100   1.625 -0.0414  0.3143  0.7593
   41MOL    O63 8943   5.744   0.018   1.513 -0.1474 -0.6720  0.5044
   41MOL    H64 8944   5.562   0.193   1.592  0.3874 -1.9368 -0.8739
   41MOL    H65 8945   5.602   0.375   1.760  0.5895  0.4642 -1.6731
   41MOL    H66 8946   5.974   0.196   1.870  1.5756 -2.5177 -2.7408
   41MOL    H67 8947   5.944   0.030   1.674 -0.7578 -2.3715  0.3866
   41MOL    C68 8948   5.618   7.929   1.532 -0.1968  0.2655  0.5807
   41MOL    C69 8949   5.704   8.039   1.552 -0.2580  0.5350  0.4629
   41MOL    C70 8950   5.656   8.167   1.519 -0.4551  0.7743 -0.4274
   41MOL    C71 8951   5.524   8.186   1.483  0.6390  0.1553  0.6635
   41MOL    C72 8952   5.434   8.079   1.479 -0.9878 -0.8806  0.1916
   41MOL    C73 8953   5.477   7.949   1.505 -0.3574 -0.6218 -0.7256
   41MOL    O74 8954   5.387   7.841   1.516 -0.0118 -0.2271  0.3418
   41MOL    H75 8955   5.663   7.833   1.555  1.2539  0.2005 -2.2568
   41MOL    H76 8956   5.810   8.023   1.565 -0.4180  0.2944  1.4424
   41MOL    H77 8957   5.492   0.029   1.448 -3.6336 -1.0525  0.8945
   41MOL    H78 8958   5.333   8.100   1.447 -1.0129  0.3362  1.0369
   41MOL    C79 8959   5.229   7.858   1.846 -0.1112  0.6944  0.6629
   41MOL    C80 8960   5.326   7.875   1.750  0.6797 -0.1166 -1.3891
   41MOL    C81 8961   5.286   7.857   1.611 -0.4790  0.5024 -0.5200
   41MOL    C82 8962   5.153   7.843   1.575 -0.0990  0.0402 -0.3705
   41MOL    C83 8963   5.054   7.854   1.671  0.3259 -1.0089 -0.7784
   41MOL    C84 8964   5.093   7.854   1.808 -0.0209  0.0876 -0.2854
   41MOL    O85 8965   4.995   7.825   1.892 -1.1801 -0.4071 -0.2013
   41MOL    H86 8966   5.246   7.854   1.952  0.0889  0.2646  0.6162
   41MOL    H87 8967   5.431   7.870   1.775  0.6884  2.6937 -0.7139
   41MOL    H88 8968   5.125   7.841   1.471  1.5609  0.8928 -0.8498
   41MOL    H89 8969   4.949   7.866   1.647  0.8563  2.9326 -1.3793
   41MOL    C90 8970   5.041   7.459   1.969 -0.3849  0.2569 -0.0265
   41MOL    C91 8971   5.027   7.579   1.895 -0.1716  0.0725 -0.2536
   41MOL    C92 8972   4.999   7.701   1.961  0.3303 -0.2145  0.3022
   41MOL    C93 8973   4.987   7.702   2.103 -0.3912 -0.3321  0.2250
   41MOL    C94 8974   5.007   7.585   2.173  0.5280 -0.2198  0.3315
   41MOL    C95 8975   5.026   7.465   2.107  0.4927 -0.2470  0.0767
   41MOL    O96 8976   5.036   7.350   2.181  0.1300 -0.5987  0.7584
   41MOL    H97 8977   5.065   7.362   1.928 -1.0659 -0.7554  1.8896
   41MOL    H98 8978   5.038   7.571   1.788 -0.5790 -1.8079 -0.1855
   41MOL    H99 8979   4.979   7.795   2.159 -1.0363 -0.1501 -0.1744
   41MOL   H100 8980   4.997   7.591   2.281  0.4319 -1.3133  0.3855
   41MOL   C101 8981   5.332   7.350   2.402  0.0578 -0.1012 -0.0695
   41MOL   C102 8982   5.201   7.378   2.355 -0.7508  0.0080  0.6264
   41MOL   C103 8983   5.162   7.313   2.235  0.0321 -0.0775  0.2316
   41MOL   C104 8984   5.256   7.225   2.166  0.7461 -0.2105 -0.0446
   41MOL   C105 8985   5.385   7.200   2.219  0.2376 -0.8696  0.6924
   41MOL   C106 8986   5.426   7.260   2.340  0.2648 -0.6954 -0.1162
   41MOL   O107 8987   5.554   7.241   2.396 -0.0889 -0.5317  0.4112
   41MOL   H108 8988   5.360   7.398   2.495 -0.0766  0.8752 -0.5238
   41MOL   H109 8989   5.125   7.430   2.411 -0.4207  1.0987  0.0679
   41MOL   H110 8990   5.228   7.169   2.078 -2.8703 -0.3706  1.1070
   41MOL   H111 8991   5.453   7.139   2.162 -1.9018 -1.8593 -0.8627
   41MOL   C112 8992   5.653   7.078   2.711  0.2086  0.3895 -0.6456
   41MOL   C113 8993   5.631   7.179   2.617 -0.2773 -0.1071 -0.3184
   41MOL   C114 8994   5.584   7.146   2.488  0.5310  0.2793  0.3907
   41MOL   C115 8995   5.551   7.013   2.463  0.5965  0.0232 -0.8511
   41MOL   C116 8996   5.572   6.916   2.556  0.1216  0.5443 -0.5590
   41MOL   C117 8997   5.631   6.945   2.682  0.4205 -0.3723  0.2900
   41MOL   O118 8998   5.658   6.850   2.776 -0.5800 -0.1767 -0.1129
   41MOL   H119 8999   5.700   7.104   2.805  0.3193 -0.8979 -0.3427
   41MOL   H120 9000   5.645   7.282   2.646 -1.4766  0.8674 -2.9900
   41MOL   H121 9001   5.493   6.989   2.374 -1.8454  1.3654  0.3177
   41MOL   H122 9002   5.550   6.811   2.539  0.9418 -0.0167  1.6006
   41MOL   C123 9003   5.987   6.699   2.708 -0.8525 -0.3823 -0.3813
   41MOL   C124 9004   5.856   6.745   2.688  0.3819 -0.1396  0.0031
   41MOL   C125 9005   5.784   6.806   2.796 -0.2307  0.2614 -0.7843
   41MOL   C126 9006   5.862   6.844   2.912 -0.0387  0.5651 -0.2881
   41MOL   C127 9007   5.990   6.792   2.932  0.1534  0.1667 -0.0130
   41MOL   C128 9008   6.052   6.717   2.830 -0.1109  0.4594  0.2409
   41MOL   O129 9009   6.177   6.662   2.848  0.1269  0.2988 -0.0973
   41MOL   H130 9010   6.032   6.638   2.631  0.6813 -0.4540  0.5457
   41MOL   H131 9011   5.812   6.711   2.596 -0.3573 -1.5498  0.8471
   41MOL   H132 9012   5.820   6.898   2.996 -2.0830 -1.8733  0.3551
   41MOL   H133 9013   6.040   6.806   3.026  1.3819  2.9835 -1.0505
   41MOL   C134 9014   6.156   6.372   3.064  0.3738  0.6451  0.4345
   41MOL   C135 9015   6.123   6.464   2.966  0.3248 -0.7074 -0.2373
   41MOL   C136 9016   6.200   6.577   2.950 -0.4651  0.4927  0.3534
   41MOL   C137 9017   6.321   6.593   3.020 -0.3318 -0.3866 -0.2713
   41MOL   C138 9018   6.344   6.511   3.132 -0.6222 -0.7634  0.5956
   41MOL   C139 9019   6.261   6.398   3.153 -0.3156 -0.1389 -0.3020
   41MOL   O140 9020   6.295   6.304   3.247 -0.1295  0.5002 -0.5157
   41MOL   H141 9021   6.099   6.280   3.061  1.0120  0.2650 -0.2010
   41MOL   H142 9022   6.047   6.428   2.898 -0.1226 -3.7872  1.7747
   41MOL   H143 9023   6.379   6.678   2.986 -1.0242 -0.3756 -1.4609
   41MOL   H144 9024   6.434   6.531   3.187 -1.0608  1.5408  0.5543
   41MOL   C145 9025   6.283   6.410   3.598 -0.5620  0.4356 -0.2803
   41MOL   C146 9026   6.336   6.382   3.474 -0.0912  0.2370  0.2064
   41MOL   C147 9027   6.245   6.329   3.375 -0.3468 -0.1706 -0.4294
   41MOL   C148 9028   6.113   6.296   3.405 -0.7985  0.3603  0.7310
   41MOL   C149 9029   6.071   6.323   3.537  0.0383  0.0273 -0.5874
   41MOL   C150 9030   6.154   6.376   3.641  1.2185 -0.5368 -0.8627
   41MOL   O151 9031   6.104   6.387   3.768 -0.0566  0.0655 -0.1352
   41MOL   H152 9032   6.339   6.460   3.676  1.4273 -1.1930 -0.6134
   41MOL   H153 9033   6.442   6.395   3.457 -0.0380 -1.7627 -1.1997
   41MOL   H154 9034   6.049   6.252   3.330  1.0427 -0.2254 -0.5464
   41MOL   H155 9035   5.969   6.306   3.567  0.4082 -0.1842  0.6110
   41MOL   C156 9036   5.902   6.620   3.972  0.4856 -0.2134 -0.0749
   41MOL   C157 9037   5.947   6.502   3.910 -0.3304 -0.3584  0.3206
   41MOL   C158 9038   6.044   6.501   3.809 -0.2351 -0.4521 -0.0145
   41MOL   C159 9039   6.076   6.632   3.751  0.2984 -0.1893  0.4199
   41MOL   C160 9040   6.024   6.754   3.805 -1.2585  0.3374  0.0916
   41MOL   C161 9041   5.946   6.745   3.928  0.7116 -0.6025  0.7046
   41MOL   O162 9042   5.920   6.861   4.000 -0.1816  0.8902 -0.1554
   41MOL   H163 9043   5.844   6.622   4.063  0.5920 -3.9905  0.1531
   41MOL   H164 9044   5.910   6.410   3.954  0.2902 -1.3761 -1.2534
   41MOL   H165 9045   6.144   6.634   3.667  1.4435 -3.1670  1.1939
   41MOL   H166 9046   6.043   6.849   3.757 -1.9685 -0.3240 -1.5625
   41MOL   C167 9047   5.998   6.856   4.360 -0.2311 -0.8468  0.4913
   41MOL   C168 9048   5.928   6.836   4.244 -0.1849  0.5578  0.6406
   41MOL   C169 9049   5.988   6.873   4.121  0.9232 -0.6764  0.2116
   41MOL   C170 9050   6.123   6.923   4.118  0.2001 -0.1530  0.2315
   41MOL   C171 9051   6.193   6.937   4.237 -0.1056  0.8077 -0.1188
   41MOL   C172 9052   6.130   6.902   4.356 -0.2225 -1.0775  0.2168
   41MOL   O173 9053   6.205   6.907   4.474 -0.6081 -0.1369  0.1047
   41MOL   H174 9054   5.956   6.827   4.455  1.0145  0.6478  1.5198
   41MOL   H175 9055   5.827   6.800   4.241 -0.5005  1.4646  0.3602
   41MOL   H176 9056   6.168   6.950   4.024 -0.4203 -1.3272 -0.4164
   41MOL   H177 9057   6.291   6.982   4.244  0.5980 -0.8218  0.8939
   41MOL   C178 9058   6.262   7.112   4.775  0.6245 -0.5321 -0.0104
   41MOL   C179 9059   6.285   7.027   4.665 -0.6112  0.4465  0.1654
   41MOL   C180 9060   6.183   7.003   4.572 -0.1341  0.5101 -0.5820
   41MOL   C181 9061   6.063   7.080   4.579 -0.0738 -0.0895 -0.2259
   41MOL   C182 9062   6.041   7.169   4.681  0.3094 -0.0329  0.4264
   41MOL   C183 9063   6.143   7.183   4.779  0.1334 -0.2710 -0.7721
   41MOL   O184 9064   6.124   7.274   4.887  0.1720  0.4945 -0.0807
   41MOL   H185 9065   6.340   7.126   4.848  1.0130  0.7709 -0.6509
   41MOL   H186 9066   6.377   6.970   4.664  0.0888  1.5344  0.9805
   41MOL   H187 9067   5.979   7.064   4.513 -0.0009 -0.3397 -0.2546
   41MOL   H188 9068   5.948   7.224   4.691  0.4075  0.1417  0.3852
   41MOL   C189 9069   5.990   7.619   4.840  0.1193 -0.1115  0.0348
   41MOL   C190 9070   5.993   7.478   4.859 -0.3879 -0.0108  0.4565
   41MOL   C191 9071   6.121   7.407   4.860 -0.8604 -0.0624 -0.3296
   41MOL   C192 9072   6.244   7.482   4.858 -0.4186  0.1175  0.4082
   41MOL   C193 9073   6.236   7.622   4.838 -0.0176  0.1130 -0.3589
   41MOL   C194 9074   6.112   7.689   4.823  0.2800 -0.1244  0.3227
   41MOL   O195 9075   6.117   7.827   4.800  0.2014 -0.4331  0.0953
   41MOL   H196 9076   5.895   7.666   4.822  0.2917 -0.5247 -2.0469
   41MOL   H197 9077   5.903   7.418   4.851 -0.5374  0.0405  1.6885
   41MOL   H198 9078   6.340   7.433   4.859  0.7257  2.3134  2.0027
   41MOL   H199 9079   6.324   7.685   4.844 -2.1756  3.2995 -0.7404
   41MOL   C200 9080   6.250   8.062   5.060 -0.0298 -0.2931  0.3554
   41MOL   C201 9081   6.236   7.992   4.937 -0.3128 -0.0269 -0.0684
   41MOL   C202 9082   6.125   7.905   4.910 -0.6273 -0.2348  0.3999
   41MOL   C203 9083   6.034   7.893   5.015  0.0888  0.2616  0.6102
   41MOL   C204 9084   6.046   7.959   5.136 -0.4090  0.9306 -0.4512
   41MOL   C205 9085   6.159   8.035   5.160 -0.0657 -0.2577  0.2669
   41MOL   O206 9086   6.178   8.096   5.284 -0.2060 -0.2048  0.3830
   41MOL   H207 9087   6.337   8.123   5.081  0.9374 -1.3881 -0.3863
   41MOL   H208 9088   6.310   7.993   4.859 -1.1408  1.0375 -0.8629
   41MOL   H209 9089   5.954   7.823   4.993  1.9329 -1.8349  0.4070
   41MOL   H210 9090   5.972   7.943   5.212  1.3253 -0.0240  1.0736
   41MOL   C211 9091   6.176   0.188   5.420 -0.0199 -0.1871  0.3476
   41MOL   C212 9092   6.195   0.048   5.406  0.0500  0.5080  0.0243
   41MOL   C213 9093   6.147   8.230   5.290  0.2651  0.6973 -0.3051
   41MOL   C214 9094   6.068   0.047   5.196 -0.0784 -0.2895 -0.0201
   41MOL   C215 9095   6.048   0.184   5.217 -1.1383 -0.3159  0.3514
   41MOL   C216 9096   6.105   0.255   5.323 -0.8413  0.1055  0.7861
   41MOL   O217 9097   6.088   0.386   5.342  0.3440 -0.2432 -0.8333
   41MOL   H218 9098   6.205   0.248   5.505  1.0210 -0.2703  0.0594
   41MOL   H219 9099   6.241   8.236   5.478 -0.0673 -0.2470 -0.5750
   41MOL   H220 9100   6.013   8.250   5.118 -1.1501  1.6276 -0.5609
   41MOL   H221 9101   5.980   0.228   5.145 -2.1982  0.4204  1.7667
   41MOL   H222 9102   6.171   0.414   5.378 -0.0211  1.0585 -0.9583
   42MOL     C1 9103   7.648   5.655   5.353  0.0855  0.2842  1.2218
   42MOL     C2 9104   7.709   5.770   5.311  0.4605  1.3263  0.1874
   42MOL     C3 9105   7.656   5.896   5.339  0.2581  0.0022 -0.0311
   42MOL     C4 9106   7.551   5.914   5.425  0.7166  0.0218  0.0924
   42MOL     C5 9107   7.488   5.795   5.472  0.1618 -0.0139 -0.8343
   42MOL     C6 9108   7.541   5.661   5.443 -0.5445 -0.2654 -0.2243
   42MOL     O7 9109   7.498   5.546   5.504 -0.2458  0.2790  0.0374
   42MOL     H8 9110   7.684   5.557   5.324  0.1016 -0.2147  2.8820
   42MOL     H9 9111   7.793   5.756   5.245  0.3821 -1.2142  0.5508
   42MOL    H10 9112   7.523   6.016   5.444  2.1154  0.6722 -1.2524
   42MOL    H11 9113   7.411   5.808   5.547  0.0027 -0.3879 -0.9271
   42MOL    H12 9114   7.702   5.987   5.304  1.0538  0.2150  1.4998
   42MOL    C13 9115   7.190   5.482   5.693  0.3211 -0.3809 -0.7768
   42MOL    C14 9116   7.322   5.504   5.659 -0.8127 -0.0581 -0.5515
   42MOL    C15 9117   7.365   5.534   5.530 -0.1050 -0.8770  0.5733
   42MOL    C16 9118   7.264   5.545   5.429  0.4501 -0.0569  0.0446
   42MOL    C17 9119   7.133   5.521   5.459 -0.1658  0.6756 -0.4435
   42MOL    C18 9120   7.096   5.491   5.591 -0.1183 -0.0111  0.2213
   42MOL    O19 9121   6.964   5.469   5.621 -0.1069  0.1066  0.1604
   42MOL    H20 9122   7.154   5.463   5.793 -1.0533 -0.0417 -1.1964
   42MOL    H21 9123   7.404   5.505   5.728 -0.0392 -3.2482 -1.3355
   42MOL    H22 9124   7.294   5.558   5.326 -0.5018 -1.0893 -0.3644
   42MOL    H23 9125   7.058   5.519   5.382 -0.1694 -0.8061 -0.4100
   42MOL    C24 9126   6.703   5.251   5.467 -0.2393 -0.3507  0.5000
   42MOL    C25 9127   6.769   5.361   5.525 -0.0798  0.1103  0.8235
   42MOL    C26 9128   6.905   5.356   5.565 -0.8924  0.0507  0.2326
   42MOL    C27 9129   6.975   5.232   5.539 -0.3224  0.3662  0.2351
   42MOL    C28 9130   6.907   5.115   5.496  0.1884  0.1571 -0.0984
   42MOL    C29 9131   6.773   5.128   5.449  0.5037  0.2221 -0.3236
   42MOL    O30 9132   6.711   5.015   5.401  0.1012 -0.1100 -0.0214
   42MOL    H31 9133   6.599   5.260   5.439 -0.1777  0.8307  0.6333
   42MOL    H32 9134   6.716   5.454   5.539  0.1169  0.6317 -1.6132
   42MOL    H33 9135   7.077   5.222   5.572 -0.1887  3.0796  0.8080
   42MOL    H34 9136   6.953   5.017   5.491  3.1693  1.4987  0.5101
   42MOL    C35 9137   6.336   4.994   5.358  0.0250  0.1892 -0.1170
   42MOL    C36 9138   6.476   5.032   5.338  1.0032  0.0150  0.3856
   42MOL    C37 9139   6.575   4.994   5.426 -0.1879 -0.3324 -0.9211
   42MOL    C38 9140   6.536   4.939   5.552 -0.0625  0.1747 -0.0274
   42MOL    C39 9141   6.401   4.895   5.569 -0.7313  0.9244 -0.1599
   42MOL    C40 9142   6.300   4.927   5.477  0.3952 -0.3815  0.0445
   42MOL    O41 9143   6.170   4.889   5.509 -0.4734  0.6402  0.2748
   42MOL    H42 9144   6.255   5.016   5.291  1.3047 -1.1132 -2.1391
   42MOL    H43 9145   6.490   5.098   5.254  3.0895 -1.0751 -0.1597
   42MOL    H44 9146   6.607   4.915   5.630 -1.4075 -0.4866  1.0174
   42MOL    H45 9147   6.385   4.845   5.663  1.8190 -2.3174 -1.3526
   42MOL    C46 9148   5.856   5.084   5.447  0.3417  0.1987  0.2210
   42MOL    C47 9149   5.954   4.977   5.441  0.3559 -0.4045 -0.5044
   42MOL    C48 9150   6.073   4.982   5.519  0.3730 -0.2018  0.7588
   42MOL    C49 9151   6.079   5.084   5.616  0.2697 -0.2869 -0.3431
   42MOL    C50 9152   5.979   5.180   5.632  0.5006  0.5577  0.3879
   42MOL    C51 9153   5.862   5.182   5.552 -0.7289  0.3840  0.9344
   42MOL    O52 9154   5.759   5.271   5.558  0.0085 -0.5677  0.2573
   42MOL    H53 9155   5.768   5.083   5.385 -0.1648 -0.1186  0.9399
   42MOL    H54 9156   5.952   4.892   5.374  0.2670 -0.6037 -0.2521
   42MOL    H55 9157   6.162   5.103   5.682 -1.5732  2.0360  1.3869
   42MOL    H56 9158   5.995   5.257   5.706  3.7762 -0.4058  0.7463
   42MOL    C57 9159   5.518   5.277   5.842  0.4354 -0.5504  0.2023
   42MOL    C58 9160   5.629   5.313   5.765  0.0453  0.2010  1.2247
   42MOL    C59 9161   5.657   5.237   5.648  0.3695  0.4935  0.0456
   42MOL    C60 9162   5.590   5.117   5.631  0.4946 -0.0802 -0.1641
   42MOL    C61 9163   5.471   5.082   5.703 -0.3281 -0.6450  0.8422
   42MOL    C62 9164   5.435   5.167   5.810 -0.5754  0.4189  0.5393
   42MOL    O63 9165   5.329   5.131   5.882  0.5982 -0.5572 -0.2650
   42MOL    H64 9166   5.492   5.341   5.925  0.5464 -0.9411  0.5414
   42MOL    H65 9167   5.691   5.395   5.797  0.1451 -0.2526  2.2117
   42MOL    H66 9168   5.617   5.058   5.544  0.2616  0.7634 -0.8116
   42MOL    H67 9169   5.417   4.992   5.678 -0.8142 -1.1070  3.4997
   42MOL    C68 9170   5.092   5.406   5.899 -0.3842  0.1151 -0.1213
   42MOL    C69 9171   5.177   5.309   5.846  0.2173 -0.0590  0.4536
   42MOL    C70 9172   5.238   5.220   5.931 -0.3248 -0.2182 -0.6460
   42MOL    C71 9173   5.205   5.218   6.065 -0.5437 -0.0424  0.1676
   42MOL    C72 9174   5.120   5.314   6.119 -0.1177  0.0382 -0.3253
   42MOL    C73 9175   5.061   5.412   6.037  0.9596  0.2870  0.0549
   42MOL    O74 9176   4.984   5.516   6.090  0.5945 -0.1119  0.2401
   42MOL    H75 9177   5.037   5.476   5.837  0.8970  0.7179 -0.5925
   42MOL    H76 9178   5.205   5.314   5.741  1.9890  0.9255  0.9380
   42MOL    H77 9179   5.232   5.135   6.128 -0.8055 -0.4299 -0.2310
   42MOL    H78 9180   5.095   5.304   6.224  1.0774  0.8618  0.0518
   42MOL    C79 9181   4.711   5.472   6.331 -0.7058  0.4438  0.4360
   42MOL    C80 9182   4.779   5.471   6.211 -0.5121 -0.0471 -0.0012
   42MOL    C81 9183   4.918   5.508   6.206  0.5842 -0.0749  0.2813
   42MOL    C82 9184   4.987   5.537   6.322 -0.1110  0.7623  0.0900
   42MOL    C83 9185   4.915   5.541   6.442 -0.4368 -0.3923 -0.2706
   42MOL    C84 9186   4.781   5.499   6.450 -0.2041 -0.7754 -0.0425
   42MOL    O85 9187   4.720   5.500   6.574  0.3435  0.1475  0.1358
   42MOL    H86 9188   4.605   5.454   6.334 -0.8961  1.7496  1.8443
   42MOL    H87 9189   4.722   5.453   6.121 -1.7620 -1.2686  1.0112
   42MOL    H88 9190   5.089   5.573   6.314  0.9331 -1.5375  2.0892
   42MOL    H89 9191   4.965   5.577   6.531 -1.3034  1.1676 -0.3915
   42MOL    C90 9192   4.725   5.849   6.693 -0.4228  0.2167  0.1916
   42MOL    C91 9193   4.708   5.734   6.611 -0.2746  0.1480  0.1712
   42MOL    C92 9194   4.746   5.607   6.655  0.4383 -0.2142  0.0048
   42MOL    C93 9195   4.796   5.592   6.785 -0.1707  0.0716 -0.7499
   42MOL    C94 9196   4.815   5.702   6.871  1.0129  0.3390  0.4679
   42MOL    C95 9197   4.781   5.827   6.822  0.0375  0.8435  0.5969
   42MOL    O96 9198   4.803   5.940   6.892  0.3189  0.4899 -0.2125
   42MOL    H97 9199   4.699   5.946   6.655 -2.1109  1.3744  3.9737
   42MOL    H98 9200   4.672   5.739   6.509 -3.1335 -0.3470  1.1007
   42MOL    H99 9201   4.822   5.493   6.819  0.8383 -0.3125 -2.6009
   42MOL   H100 9202   4.867   5.685   6.964 -0.6989 -1.4828  1.1227
   42MOL   C101 9203   4.600   6.224   7.014 -0.1977  0.7936  0.4153
   42MOL   C102 9204   4.707   6.148   6.957 -0.8772  0.0778  0.0355
   42MOL   C103 9205   4.700   6.012   6.941 -0.4120  0.2015 -0.3345
   42MOL   C104 9206   4.589   5.947   6.992  0.7901  0.1850  0.1778
   42MOL   C105 9207   4.478   6.017   7.044  0.3740  0.3895 -0.1364
   42MOL   C106 9208   4.486   6.155   7.062  0.4644 -0.5768  0.6109
   42MOL   O107 9209   4.385   6.217   7.131 -0.5919 -0.7556 -0.2370
   42MOL   H108 9210   4.613   6.330   7.025 -0.2615  0.7520  0.9125
   42MOL   H109 9211   4.789   6.206   6.917  1.0534 -2.7756 -0.3619
   42MOL   H110 9212   4.579   5.840   6.977 -0.7611  0.3262  0.0568
   42MOL   H111 9213   4.390   5.971   7.087  2.1652  0.0150  3.3672
   42MOL   C112 9214   4.034   6.148   7.113  0.7339 -0.5148  0.2985
   42MOL   C113 9215   4.156   6.163   7.163  0.1999 -0.6687 -0.7944
   42MOL   C114 9216   4.257   6.220   7.077  1.2422  0.3573 -0.7670
   42MOL   C115 9217   4.231   6.268   6.947  0.4372  0.6635  0.5393
   42MOL   C116 9218   4.099   6.259   6.898  0.0724  0.2974  0.1469
   42MOL   C117 9219   3.999   6.198   6.981  0.2880 -0.0411 -0.2537
   42MOL   O118 9220   3.876   6.164   6.924  0.0495 -0.2176 -0.2181
   42MOL   H119 9221   3.957   6.096   7.169  0.1215 -0.9926 -0.9656
   42MOL   H120 9222   4.183   6.130   7.262  0.4013  0.0406 -0.6043
   42MOL   H121 9223   4.309   6.313   6.887 -1.1535  1.2999 -1.1228
   42MOL   H122 9224   4.069   6.293   6.800 -0.2779  2.1031  0.8672
   42MOL   C123 9225   3.592   6.093   7.143 -0.1747  0.5477 -0.1275
   42MOL   C124 9226   3.701   6.073   7.063  0.2845 -0.4302  0.1079
   42MOL   C125 9227   3.772   6.185   7.013  0.4159  0.1868 -0.1886
   42MOL   C126 9228   3.744   6.315   7.045 -0.2674 -0.3156 -0.5085
   42MOL   C127 9229   3.636   6.330   7.136  0.2086 -0.3612 -0.1938
   42MOL   C128 9230   3.557   6.223   7.182  0.0301  0.4535  0.5350
   42MOL   O129 9231   3.451   6.246   7.265  0.0238  0.6462 -0.5970
   42MOL   H130 9232   3.534   6.017   7.193  0.1764  0.8488  0.7522
   42MOL   H131 9233   3.742   5.977   7.035 -0.8937 -1.1853  0.9276
   42MOL   H132 9234   3.790   6.405   7.006 -0.8331  0.3239  0.2628
   42MOL   H133 9235   3.619   6.430   7.175 -0.2603 -1.5200  2.7337
   42MOL   C134 9236   3.396   6.508   7.502 -0.2420 -0.6425  0.7867
   42MOL   C135 9237   3.388   6.439   7.382  0.1140  0.2061 -0.3784
   42MOL   C136 9238   3.463   6.321   7.370  0.3068 -0.2687  0.0809
   42MOL   C137 9239   3.537   6.277   7.481  0.7844 -0.4733 -0.5713
   42MOL   C138 9240   3.542   6.346   7.604  0.6009 -0.5544  0.8181
   42MOL   C139 9241   3.466   6.462   7.610  0.0163 -0.8212 -0.2372
   42MOL   O140 9242   3.468   6.532   7.729  0.8407  0.5296 -0.0921
   42MOL   H141 9243   3.345   6.603   7.495 -1.1515 -0.7499  4.9888
   42MOL   H142 9244   3.334   6.462   7.291 -3.3425 -2.2995  0.9052
   42MOL   H143 9245   3.584   6.180   7.474 -0.3489 -1.0909  0.2281
   42MOL   H144 9246   3.607   6.320   7.686  0.8277 -0.3856  0.6948
   42MOL   C145 9247   3.176   6.703   7.860 -0.3457 -0.4665 -0.3447
   42MOL   C146 9248   3.295   6.679   7.786 -0.2892  0.0255  0.0084
   42MOL   C147 9249   3.357   6.554   7.805 -0.2810 -0.4266  0.5041
   42MOL   C148 9250   3.311   6.466   7.902  0.2188 -0.1904 -0.2412
   42MOL   C149 9251   3.197   6.491   7.982  0.3459  0.0527  0.7783
   42MOL   C150 9252   3.125   6.609   7.950  0.1403  0.1955 -0.7028
   42MOL   O151 9253   3.009   6.631   8.020  0.2827  0.1205  0.0503
   42MOL   H152 9254   3.129   6.800   7.859 -0.8557 -0.7060  0.0505
   42MOL   H153 9255   3.342   6.753   7.722  0.6218 -0.3618  0.2211
   42MOL   H154 9256   3.364   6.372   7.911  0.8563  0.1325 -0.5751
   42MOL   H155 9257   3.159   6.411   8.044  0.4583  0.3241  1.2033
   42MOL   C156 9258   3.024   6.743   0.114 -0.0070 -0.2790  0.1199
   42MOL   C157 9259   3.040   6.666   0.001 -0.2278 -0.2943 -0.3384
   42MOL   C158 9260   3.013   6.713   8.126 -0.2347  0.1858  0.1959
   42MOL   C159 9261   2.981   6.847   8.109 -0.2025 -0.4980 -0.1134
   42MOL   C160 9262   2.962   6.931   8.225 -0.0285 -0.2383 -0.2034
   42MOL   C161 9263   2.973   6.873   0.099  0.6269 -0.6216 -0.4122
   42MOL   O162 9264   2.947   6.956   0.196 -0.3603 -0.4513 -0.3487
   42MOL   H163 9265   3.022   6.701   0.214 -0.1580  1.6606  0.9610
   42MOL   H164 9266   3.069   6.564   0.021 -1.2056 -0.7507 -1.1825
   42MOL   H165 9267   2.967   6.891   8.011 -1.2329  0.7093  0.5573
   42MOL   H166 9268   2.932   7.034   8.211 -0.7982 -0.3785  0.3680
   42MOL   C167 9269   3.229   6.951   0.443  0.7029 -0.4289 -0.5499
   42MOL   C168 9270   3.160   6.956   0.320  0.0133 -0.5145  0.3829
   42MOL   C169 9271   3.016   6.942   0.313  0.2288 -0.1181 -0.2037
   42MOL   C170 9272   2.949   6.922   0.437  0.1202 -0.9901  0.5084
   42MOL   C171 9273   3.020   6.930   0.561  0.2531  0.0094 -0.4193
   42MOL   C172 9274   3.158   6.936   0.566  0.1847  0.0461 -0.0303
   42MOL   O173 9275   3.230   6.939   0.684  0.4793  0.0998 -0.1221
   42MOL   H174 9276   3.335   6.967   0.452  0.2383  1.1854  2.5093
   42MOL   H175 9277   3.208   6.974   0.225 -1.1604 -0.6750 -0.2480
   42MOL   H176 9278   2.843   6.903   0.433  0.1870 -1.2470 -0.1506
   42MOL   H177 9279   2.965   6.928   0.654 -1.2583 -0.6762 -1.3138
   42MOL   C178 9280   3.309   7.300   0.766  0.1382 -0.0186 -0.2038
   42MOL   C179 9281   3.241   7.177   0.751  0.0329 -0.7950  0.8405
   42MOL   C180 9282   3.303   7.053   0.711  0.3694 -0.0445 -0.8262
   42MOL   C181 9283   3.442   7.054   0.708 -0.4621 -0.2691 -0.4308
   42MOL   C182 9284   3.512   7.178   0.703  0.1127 -0.4590 -0.7741
   42MOL   C183 9285   3.444   7.296   0.744  0.0903  0.0510 -0.3996
   42MOL   O184 9286   3.518   7.411   0.756 -0.0118 -0.3843  0.2552
   42MOL   H185 9287   3.253   7.390   0.787  1.1269  0.6129 -0.2402
   42MOL   H186 9288   3.133   7.178   0.758  0.0356 -0.9196  0.8907
   42MOL   H187 9289   3.489   6.958   0.692 -4.4351 -2.1279 -1.6565
   42MOL   H188 9290   3.619   7.181   0.690  0.0213  1.0800 -1.3808
   42MOL   C189 9291   3.403   7.694   0.569 -0.3976  0.0206  0.0748
   42MOL   C190 9292   3.424   7.609   0.674 -0.5926 -0.2323 -0.6850
   42MOL   C191 9293   3.507   7.498   0.651  0.0653 -0.2468  0.2415
   42MOL   C192 9294   3.560   7.473   0.522 -0.8962  0.1541  0.8359
   42MOL   C193 9295   3.525   7.556   0.414 -0.9068 -0.6899 -1.2759
   42MOL   C194 9296   3.454   7.674   0.438 -0.2650  0.0919 -0.0188
   42MOL   O195 9297   3.426   7.762   0.335  0.1071 -0.6500 -0.5539
   42MOL   H196 9298   3.336   7.776   0.590  1.6587  1.4325  1.3804
   42MOL   H197 9299   3.386   7.634   0.772 -0.4441  0.8355 -0.8919
   42MOL   H198 9300   3.624   7.388   0.507  0.3484  1.1322  0.5362
   42MOL   H199 9301   3.567   7.539   0.316  0.4888  1.2251 -1.0467
   42MOL   C200 9302   3.460   8.129   0.368  0.1478  0.3516  0.4194
   42MOL   C201 9303   3.403   8.006   0.339 -0.5436  1.1074  0.4962
   42MOL   C202 9304   3.482   7.888   0.354  0.3331  0.2954  0.4831
   42MOL   C203 9305   3.616   7.901   0.382 -0.5727 -0.0645 -0.6372
   42MOL   C204 9306   3.672   8.027   0.419  0.3332 -0.3649  0.0929
   42MOL   C205 9307   3.593   8.141   0.411 -0.3692  0.0367 -0.4024
   42MOL   O206 9308   3.647   0.008   0.438  0.0946 -0.0413  0.4429
   42MOL   H207 9309   3.396   8.216   0.357  0.6389  1.1717  3.4936
   42MOL   H208 9310   3.298   8.003   0.316 -0.5173  0.1128  0.4741
   42MOL   H209 9311   3.672   7.809   0.388  1.8062  1.3263 -0.8146
   42MOL   H210 9312   3.768   8.030   0.469  1.4755 -4.0847 -1.7017
   42MOL   C211 9313   3.846   0.106   0.726  0.2213 -0.1502  0.1782
   42MOL   C212 9314   3.813   0.078   0.588  0.7250 -1.1879  0.0041
   42MOL   C213 9315   3.680   0.039   0.561  0.3633 -0.3770 -0.2411
   42MOL   C214 9316   3.581   0.047   0.664  0.5372  1.0381  0.5750
   42MOL   C215 9317   3.613   0.094   0.790  0.4142  0.3323  0.3091
   42MOL   C216 9318   3.746   0.108   0.822 -0.5622  0.0830  0.3135
   42MOL   O217 9319   3.779   0.137   0.949  0.3817 -0.4951 -0.3455
   42MOL   H218 9320   3.948   0.120   0.759 -0.0489  3.3582 -0.3408
   42MOL   H219 9321   3.887   0.075   0.509 -0.1787 -1.4313 -0.8495
   42MOL   H220 9322   3.478   0.044   0.631  0.6114  0.4901  0.3973
   42MOL   H221 9323   3.534   0.113   0.860  2.1051 -0.5001  2.5010
   42MOL   H222 9324   3.707   0.107   1.002 -1.1894  1.3595 -1.3606
   43MOL     C1 9325   5.180   2.455   2.418 -1.0084  0.3672 -0.3473
   43MOL     C2 9326   5.078   2.362   2.464  0.6965 -0.0037 -0.4455
   43MOL     C3 9327   4.951   2.408   2.499 -0.2771  0.2557  0.4344
   43MOL     C4 9328   4.914   2.537   2.470 -0.5592 -0.8613  0.4170
   43MOL     C5 9329   5.010   2.627   2.427 -0.2068  0.2252 -0.5574
   43MOL     C6 9330   5.143   2.589   2.392  0.3573 -0.1106  0.5700
   43MOL     O7 9331   5.237   2.676   2.338  0.4744 -0.4082 -0.1507
   43MOL     H8 9332   5.280   2.427   2.387 -0.5198  3.0707 -1.3511
   43MOL     H9 9333   5.099   2.256   2.466 -0.8606 -0.3080  0.7654
   43MOL    H10 9334   4.821   2.570   2.513  0.0306  1.1947  0.1514
   43MOL    H11 9335   4.965   2.723   2.409  1.7638  1.3550  0.3677
   43MOL    H12 9336   4.883   2.347   2.556 -0.8496 -0.2533 -0.7744
   43MOL    C13 9337   5.328   2.974   2.535  0.2163  0.0990 -0.2528
   43MOL    C14 9338   5.262   2.888   2.445 -0.0719  1.0592 -0.4283
   43MOL    C15 9339   5.307   2.756   2.426  0.6421 -0.0116 -0.5115
   43MOL    C16 9340   5.427   2.708   2.491  0.8378  0.0861 -0.5570
   43MOL    C17 9341   5.488   2.800   2.590 -0.3530 -0.1404 -0.0173
   43MOL    C18 9342   5.437   2.927   2.606  0.3516 -0.0263 -0.1826
   43MOL    O19 9343   5.492   3.003   2.711 -0.0285  0.1094  0.3647
   43MOL    H20 9344   5.287   3.071   2.556 -0.5186 -0.0175 -1.1613
   43MOL    H21 9345   5.174   2.922   2.393  1.2551  0.3323 -3.2664
   43MOL    H22 9346   5.463   2.607   2.475  0.4181 -0.3824  1.3707
   43MOL    H23 9347   5.571   2.780   2.657 -0.9142 -3.2470 -0.1656
   43MOL    C24 9348   5.826   3.171   2.667 -0.1610  0.3119 -0.0024
   43MOL    C25 9349   5.725   3.077   2.688  0.2573 -0.3376 -0.3691
   43MOL    C26 9350   5.590   3.107   2.680  0.3586  0.5705  0.9540
   43MOL    C27 9351   5.553   3.242   2.656  0.3107 -0.3253  0.7770
   43MOL    C28 9352   5.659   3.338   2.628  0.1055  0.6407 -0.8357
   43MOL    C29 9353   5.792   3.303   2.637  0.3008 -0.0132  0.2868
   43MOL    O30 9354   5.880   3.406   2.634 -0.3436  0.0666  0.2045
   43MOL    H31 9355   5.931   3.146   2.662 -0.1987 -0.3596  2.2839
   43MOL    H32 9356   5.769   2.988   2.731 -1.4652 -0.3404  1.4836
   43MOL    H33 9357   5.449   3.267   2.668  0.6484  1.1706  0.6065
   43MOL    H34 9358   5.630   3.438   2.601 -0.8086  0.0392 -2.1319
   43MOL    C35 9359   5.936   3.633   2.355  0.2937 -0.1760  0.4577
   43MOL    C36 9360   5.924   3.589   2.484  0.2469  0.3109  0.6755
   43MOL    C37 9361   5.917   3.448   2.511  0.6572 -0.0095  0.2317
   43MOL    C38 9362   5.958   3.357   2.405  0.2347 -0.7659 -0.0412
   43MOL    C39 9363   5.999   3.414   2.282  0.7792  0.0242  0.2620
   43MOL    C40 9364   5.986   3.552   2.252  0.3416 -0.6017 -0.0447
   43MOL    O41 9365   6.006   3.607   2.125  0.2317  1.0944 -0.2193
   43MOL    H42 9366   5.902   3.733   2.334 -0.3149 -0.1982  1.3177
   43MOL    H43 9367   5.889   3.661   2.556  0.2614  2.7608 -1.6905
   43MOL    H44 9368   5.953   3.251   2.426 -2.5126 -0.8407 -0.8446
   43MOL    H45 9369   6.032   3.364   2.192  0.9397 -0.1467  0.4148
   43MOL    C46 9370   6.282   3.850   2.079  0.5422 -0.0321  0.2129
   43MOL    C47 9371   6.151   3.797   2.089 -0.2236  0.5347 -0.0110
   43MOL    C48 9372   6.132   3.660   2.097  0.1327  0.0337  0.4446
   43MOL    C49 9373   6.241   3.570   2.111 -0.2691 -0.3101  0.4371
   43MOL    C50 9374   6.374   3.626   2.091  0.8524 -0.1890 -0.6943
   43MOL    C51 9375   6.393   3.765   2.076 -0.2909 -0.2159  0.9820
   43MOL    O52 9376   6.518   3.810   2.052 -0.5312 -0.3757  0.1701
   43MOL    H53 9377   6.297   3.956   2.071  1.4991 -0.3166 -2.2557
   43MOL    H54 9378   6.064   3.861   2.089  0.9485  2.1753  0.6664
   43MOL    H55 9379   6.227   3.463   2.102  0.9929 -0.2255 -3.2138
   43MOL    H56 9380   6.459   3.563   2.074  0.6152 -0.6416 -0.2450
   43MOL    C57 9381   6.632   4.029   2.333 -0.1780 -0.2461 -0.2871
   43MOL    C58 9382   6.559   3.975   2.223  0.0081  0.6283 -1.1797
   43MOL    C59 9383   6.592   3.854   2.160 -0.5825 -0.1494  0.3109
   43MOL    C60 9384   6.711   3.792   2.202 -0.3748 -0.3744 -0.1859
   43MOL    C61 9385   6.789   3.840   2.312  0.4922  1.0926 -0.4904
   43MOL    C62 9386   6.741   3.952   2.380  0.7547 -0.2348  0.2605
   43MOL    O63 9387   6.809   4.001   2.485  0.0221 -0.3144  0.1359
   43MOL    H64 9388   6.596   4.118   2.382  3.0240  0.6705  0.5334
   43MOL    H65 9389   6.476   4.039   2.196  0.5469  0.4390 -3.4207
   43MOL    H66 9390   6.744   3.702   2.152 -2.0094 -0.0121 -1.9864
   43MOL    H67 9391   6.866   3.775   2.350 -0.6200 -0.8717 -1.4634
   43MOL    C68 9392   6.685   3.833   2.791  0.3607 -0.1204  0.2227
   43MOL    C69 9393   6.702   3.855   2.651  0.2433  0.0190 -0.1493
   43MOL    C70 9394   6.775   3.974   2.616  0.0711 -0.4665 -0.0070
   43MOL    C71 9395   6.813   4.064   2.715 -0.2050 -0.1315  0.0809
   43MOL    C72 9396   6.799   4.040   2.850 -0.0238  0.3174  0.2721
   43MOL    C73 9397   6.737   3.917   2.891 -0.1401  0.4425 -0.2353
   43MOL    O74 9398   6.734   3.880   3.022  0.2579 -0.3936  0.7663
   43MOL    H75 9399   6.637   3.746   2.832 -1.4774  0.3326 -0.8921
   43MOL    H76 9400   6.682   3.778   2.578 -0.7406 -0.8867  1.0686
   43MOL    H77 9401   6.852   4.162   2.693  1.8017 -0.8401  0.4249
   43MOL    H78 9402   6.843   4.107   2.922  0.4643  0.4481 -0.1462
   43MOL    C79 9403   7.089   3.859   3.126 -0.0798 -0.1960 -0.0644
   43MOL    C80 9404   6.971   3.849   3.055 -0.3639  0.0031  0.2819
   43MOL    C81 9405   6.849   3.898   3.097  0.2525 -0.1407  0.3423
   43MOL    C82 9406   6.848   3.959   3.227  0.4754 -0.3288  0.5321
   43MOL    C83 9407   6.971   3.984   3.296 -0.1127  0.1909  0.3897
   43MOL    C84 9408   7.092   3.936   3.247 -0.1650  0.1093 -0.5078
   43MOL    O85 9409   7.214   3.956   3.310 -0.2967 -0.2099 -0.5486
   43MOL    H86 9410   7.180   3.820   3.082  1.6456  2.4114  1.0217
   43MOL    H87 9411   6.984   3.802   2.959 -1.4398 -0.4009  0.3343
   43MOL    H88 9412   6.751   3.989   3.264 -1.1205 -2.4397 -1.7469
   43MOL    H89 9413   6.959   4.053   3.379 -0.6621  0.6103 -0.0355
   43MOL    C90 9414   7.466   4.159   3.148 -0.4444 -0.3381  0.4656
   43MOL    C91 9415   7.392   4.048   3.192  0.2573 -0.0657 -0.0771
   43MOL    C92 9416   7.279   4.066   3.272 -0.5090 -0.1484 -0.4552
   43MOL    C93 9417   7.243   4.196   3.312  0.4547  0.1358  0.5590
   43MOL    C94 9418   7.315   4.308   3.263 -0.1326 -0.2697 -0.7847
   43MOL    C95 9419   7.431   4.296   3.182 -0.0604 -0.2656  1.0382
   43MOL    O96 9420   7.504   4.406   3.145 -0.4977  0.5610  0.0190
   43MOL    H97 9421   7.549   4.151   3.079 -0.6053 -1.9142  0.4371
   43MOL    H98 9422   7.414   3.946   3.161  0.7280  0.0536 -0.1488
   43MOL    H99 9423   7.155   4.226   3.366 -1.2868  1.8569 -3.0167
   43MOL   H100 9424   7.272   4.405   3.283 -0.0966 -0.8181  2.2646
   43MOL   C101 9425   7.866   4.335   3.222  0.0332  0.3429  0.3713
   43MOL   C102 9426   7.724   4.331   3.233 -0.0968  0.5132 -0.0645
   43MOL   C103 9427   7.643   4.406   3.147  0.5096 -0.6114  1.2681
   43MOL   C104 9428   7.706   4.504   3.069  0.2798  0.1951  0.0581
   43MOL   C105 9429   7.844   4.518   3.070 -0.2660  0.5439  0.6517
   43MOL   C106 9430   7.926   4.424   3.137 -1.1123 -0.0142 -0.5476
   43MOL   O107 9431   8.060   4.423   3.116 -0.2140 -0.3415  0.8646
   43MOL   H108 9432   7.933   4.262   3.266  1.0713  0.0386 -1.6361
   43MOL   H109 9433   7.694   4.254   3.303  2.1017  0.0499  0.3827
   43MOL   H110 9434   7.646   4.570   3.008 -0.8357 -0.2979  0.6092
   43MOL   H111 9435   7.882   4.594   3.004  0.6471 -1.4013 -1.1324
   43MOL   C112 9436   0.003   4.491   3.412  0.4406  0.5039 -0.4816
   43MOL   C113 9437   8.180   4.424   3.318 -0.7846  0.2309  0.3558
   43MOL   C114 9438   8.140   4.492   3.204  0.2364  0.2860  0.1618
   43MOL   C115 9439   8.175   4.628   3.187 -0.0674 -0.2480 -0.6773
   43MOL   C116 9440   8.254   4.691   3.280 -0.5361  0.2915 -0.2568
   43MOL   C117 9441   0.039   4.627   3.400 -0.6055 -0.5786  0.0130
   43MOL   O118 9442   0.116   4.692   3.489 -0.1242  0.3793  0.0570
   43MOL   H119 9443   0.035   4.434   3.498 -0.6701  0.6590  0.0519
   43MOL   H120 9444   8.151   4.323   3.342  0.7702  0.0630  1.5660
   43MOL   H121 9445   8.148   4.686   3.100  0.5502 -1.9260 -2.0039
   43MOL   H122 9446   0.010   4.796   3.253  0.6434  0.3119  0.2153
   43MOL   C123 9447   0.014   5.017   3.613  0.0289 -0.3319 -0.9550
   43MOL   C124 9448   0.045   4.914   3.522 -0.1497 -0.1002  0.1502
   43MOL   C125 9449   0.058   4.783   3.566  0.4996  0.3321  0.4149
   43MOL   C126 9450   0.010   4.752   3.697 -0.3795  0.3068 -0.7441
   43MOL   C127 9451   8.220   4.854   3.784  0.0459  0.2510  0.4583
   43MOL   C128 9452   8.228   4.989   3.743 -0.9340 -0.4354  0.1563
   43MOL   O129 9453   8.202   5.089   3.832  0.1465  0.3729  0.2830
   43MOL   H130 9454   8.253   5.116   3.574 -0.5734  0.2029  0.5576
   43MOL   H131 9455   0.075   4.935   3.421  0.0143  1.2595  0.4672
   43MOL   H132 9456   0.016   4.654   3.741  0.5431  0.7962  0.2376
   43MOL   H133 9457   8.207   4.831   3.889 -0.4496  0.2897  0.4067
   43MOL   C134 9458   7.859   5.193   3.764  0.0004  0.9773 -0.0236
   43MOL   C135 9459   7.967   5.113   3.795 -0.5867  0.3722  0.0776
   43MOL   C136 9460   8.095   5.171   3.794 -0.1597  0.6425  0.2930
   43MOL   C137 9461   8.119   5.305   3.763  0.2331  0.0693 -0.1707
   43MOL   C138 9462   8.008   5.384   3.734  0.4272  0.2889  0.6190
   43MOL   C139 9463   7.878   5.326   3.736 -0.4209  0.5969  0.7391
   43MOL   O140 9464   7.775   5.412   3.716 -0.3601  0.1409 -0.1046
   43MOL   H141 9465   7.761   5.152   3.746  0.6398 -0.3089 -0.5827
   43MOL   H142 9466   7.959   5.008   3.816 -1.8467  0.5519  0.5682
   43MOL   H143 9467   8.220   5.341   3.778  0.4083 -0.6030  0.2892
   43MOL   H144 9468   8.030   5.487   3.712 -0.5046  0.6641  1.3750
   43MOL   C145 9469   7.493   5.293   3.520 -1.1111 -1.1329 -0.3327
   43MOL   C146 9470   7.579   5.323   3.624 -0.4818 -0.3916  0.4928
   43MOL   C147 9471   7.694   5.397   3.607 -0.4413 -0.1928 -0.1033
   43MOL   C148 9472   7.719   5.466   3.486  0.3079 -0.3933  0.3519
   43MOL   C149 9473   7.640   5.427   3.372 -0.4627 -0.0256  0.7542
   43MOL   C150 9474   7.524   5.342   3.392  0.4575 -0.7144 -0.2985
   43MOL   O151 9475   7.433   5.316   3.293  0.5616 -0.8073  0.0961
   43MOL   H152 9476   7.402   5.237   3.532 -0.8173 -0.9911  2.9318
   43MOL   H153 9477   7.556   5.287   3.723  0.9446 -2.0009  0.2505
   43MOL   H154 9478   7.807   5.528   3.482  0.4114 -0.6335 -1.6743
   43MOL   H155 9479   7.659   5.466   3.273  0.2569 -1.4002  0.3295
   43MOL   C156 9480   7.211   5.601   3.238  0.0498 -0.2484  0.3098
   43MOL   C157 9481   7.270   5.494   3.304  0.6483 -0.2056 -0.2107
   43MOL   C158 9482   7.371   5.424   3.233 -0.0145 -0.9739  0.3872
   43MOL   C159 9483   7.407   5.460   3.100  0.2093 -0.1612 -0.2188
   43MOL   C160 9484   7.355   5.577   3.044  0.7356 -0.0784  0.0237
   43MOL   C161 9485   7.256   5.652   3.109 -0.4079 -0.2190 -0.1980
   43MOL   O162 9486   7.199   5.763   3.051 -0.0902  0.3461  0.2233
   43MOL   H163 9487   7.126   5.646   3.286 -1.0697  0.4670 -2.2390
   43MOL   H164 9488   7.244   5.462   3.404  2.4208 -0.4132  0.1940
   43MOL   H165 9489   7.476   5.398   3.046 -0.8289 -0.4845 -1.1934
   43MOL   H166 9490   7.394   5.615   2.951 -0.4588  2.6016  0.5770
   43MOL   C167 9491   6.846   5.840   3.143  0.6805  0.1466 -0.7294
   43MOL   C168 9492   6.991   5.839   3.150  0.3933 -0.2042  0.2279
   43MOL   C169 9493   7.061   5.771   3.049 -0.8352  0.2994  0.6343
   43MOL   C170 9494   6.991   5.712   2.939  0.3436 -0.3146  0.3092
   43MOL   C171 9495   6.854   5.721   2.932  0.2553  1.3020  0.2130
   43MOL   C172 9496   6.778   5.781   3.035 -0.5484 -0.1922 -0.2691
   43MOL   O173 9497   6.641   5.795   3.035  0.9944  0.2169 -0.0960
   43MOL   H174 9498   6.799   5.887   3.227  0.1688  0.5229 -1.2212
   43MOL   H175 9499   7.049   5.886   3.228  1.2086  1.7540 -1.4896
   43MOL   H176 9500   7.047   5.654   2.867 -0.5965 -0.4628 -0.3006
   43MOL   H177 9501   6.804   5.674   2.848  2.3339  0.9813 -0.8631
   43MOL   C178 9502   6.534   5.972   2.727 -0.1901  0.4678 -1.3249
   43MOL   C179 9503   6.588   5.883   2.817  0.0762  0.4222 -0.6787
   43MOL   C180 9504   6.591   5.899   2.958 -0.6436 -0.1339 -0.2446
   43MOL   C181 9505   6.546   6.025   3.009  0.5653  0.0081 -0.4903
   43MOL   C182 9506   6.496   6.125   2.924 -0.0915  0.1654  0.4892
   43MOL   C183 9507   6.493   6.100   2.784 -0.4283  0.2782  0.3055
   43MOL   O184 9508   6.441   6.194   2.689  0.5900  0.6250 -0.7591
   43MOL   H185 9509   6.525   5.938   2.624 -0.2216 -2.5048 -0.3913
   43MOL   H186 9510   6.621   5.784   2.788 -2.0639  0.1591 -2.3076
   43MOL   H187 9511   6.577   6.049   3.109  1.0646  1.2426 -0.9403
   43MOL   H188 9512   6.474   6.224   2.961  0.4297 -0.3672  2.2805
   43MOL   C189 9513   6.712   6.441   2.679  0.0194  0.3030  0.4592
   43MOL   C190 9514   6.640   6.321   2.662 -0.2546  0.3280  0.0047
   43MOL   C191 9515   6.503   6.317   2.684 -0.2003  0.2262  0.7909
   43MOL   C192 9516   6.434   6.439   2.696 -0.4410  0.8267  0.3462
   43MOL   C193 9517   6.497   6.562   2.696 -0.3813  0.1330  0.4056
   43MOL   C194 9518   6.640   6.565   2.684 -0.7829 -0.2278 -0.0673
   43MOL   O195 9519   6.708   6.682   2.712 -0.6351  0.0053  0.0393
   43MOL   H196 9520   6.820   6.440   2.678  0.1226  2.5040  2.4295
   43MOL   H197 9521   6.700   6.232   2.652 -0.1152  0.3255  0.8176
   43MOL   H198 9522   6.328   6.446   2.715 -0.8549 -2.8754 -0.3060
   43MOL   H199 9523   6.436   6.646   2.724 -0.8846 -0.0088 -0.2397
   43MOL   C200 9524   6.815   6.834   2.393  0.0334 -0.1262  0.0079
   43MOL   C201 9525   6.733   6.781   2.495 -0.3282 -0.2955 -0.0167
   43MOL   C202 9526   6.784   6.721   2.608 -0.3306  0.6817  0.2926
   43MOL   C203 9527   6.925   6.714   2.619  0.2721 -0.8442 -0.6216
   43MOL   C204 9528   7.009   6.769   2.516  0.1418 -0.1104  0.4265
   43MOL   C205 9529   6.955   6.829   2.404  0.0897  0.3622  0.2700
   43MOL   O206 9530   7.028   6.887   2.306  0.2516 -0.0283 -0.0493
   43MOL   H207 9531   6.763   6.882   2.311  0.0682 -0.7050 -0.3559
   43MOL   H208 9532   6.628   6.806   2.487 -0.1884  1.0701  2.2339
   43MOL   H209 9533   6.978   6.662   2.697 -0.3517  1.6934  1.5705
   43MOL   H210 9534   7.116   6.757   2.525  0.4117 -0.2155 -2.3353
   43MOL   C211 9535   7.018   7.255   2.389 -0.3095  0.2185 -0.3416
   43MOL   C212 9536   7.023   7.115   2.405  0.6503  0.5496  0.3226
   43MOL   C213 9537   7.009   7.024   2.298 -0.8084  0.2128 -0.2667
   43MOL   C214 9538   6.999   7.073   2.168  0.3048 -0.8982  0.1808
   43MOL   C215 9539   6.990   7.214   2.149  0.0341  0.5158  1.3770
   43MOL   C216 9540   7.008   7.305   2.260  0.6703 -1.1083 -0.4694
   43MOL   O217 9541   7.016   7.446   2.249 -0.2629 -0.1448 -0.3986
   43MOL   H218 9542   7.021   7.318   2.477  2.9087 -0.7206  0.2983
   43MOL   H219 9543   7.014   7.080   2.507 -1.4850  2.1196  0.7397
   43MOL   H220 9544   7.010   7.011   2.080  1.4676 -0.1297 -0.2243
   43MOL   H221 9545   6.977   7.254   2.049  2.0283  0.7215  1.1633
   43MOL   H222 9546   7.077   7.465   2.179 -0.8442  2.6094 -0.1906
   44MOL     C1 9547   1.113   1.620   0.992 -0.5349  0.1716 -0.9467
   44MOL     C2 9548   1.142   1.497   0.927 -0.2071  0.1341  0.0817
   44MOL     C3 9549   1.068   1.379   0.961 -0.9287  0.3662  1.0182
   44MOL     C4 9550   0.982   1.382   1.068  0.1661 -0.3332  0.5452
   44MOL     C5 9551   0.955   1.502   1.138  0.7974 -0.7353  0.5136
   44MOL     C6 9552   1.012   1.619   1.092 -0.5377 -0.1097  0.2718
   44MOL     O7 9553   0.966   1.739   1.142  0.8437  0.0687  0.3798
   44MOL     H8 9554   1.163   1.712   0.964 -1.7129  1.1652  0.1669
   44MOL     H9 9555   1.223   1.501   0.856 -0.3706  1.9807 -0.0260
   44MOL    H10 9556   0.934   1.290   1.100 -0.6883 -0.2298 -0.3999
   44MOL    H11 9557   0.877   1.516   1.211 -1.2989 -0.5950 -1.6699
   44MOL    H12 9558   1.080   1.294   0.895  2.6275 -0.8532  3.1432
   44MOL    C13 9559   0.990   2.063   0.970  0.5838 -0.5144 -0.3509
   44MOL    C14 9560   1.029   1.942   1.034 -0.1647 -0.4737  0.1478
   44MOL    C15 9561   0.934   1.842   1.060 -0.2994 -0.1948 -0.1132
   44MOL    C16 9562   0.805   1.857   1.008 -0.6203 -0.2372 -0.0336
   44MOL    C17 9563   0.767   1.971   0.937 -0.2722 -0.5340  0.5991
   44MOL    C18 9564   0.860   2.073   0.918 -0.4614  0.0172  0.2072
   44MOL    O19 9565   0.827   2.182   0.836  0.3603  0.4244  0.1445
   44MOL    H20 9566   1.060   2.143   0.952  1.4089 -1.1409  0.0158
   44MOL    H21 9567   1.134   1.932   1.058  0.1122 -0.4345 -1.0188
   44MOL    H22 9568   0.739   1.773   1.026  0.0283 -0.7855 -0.1868
   44MOL    H23 9569   0.668   1.975   0.893 -0.2124 -0.9332  0.4237
   44MOL    C24 9570   1.111   2.289   0.621 -0.1120 -0.8196 -0.1707
   44MOL    C25 9571   1.023   2.271   0.734 -0.0820  0.2716 -0.2767
   44MOL    C26 9572   0.909   2.189   0.724 -0.1180  0.2122 -0.3262
   44MOL    C27 9573   0.882   2.130   0.603 -0.5706 -0.9118  0.0337
   44MOL    C28 9574   0.964   2.141   0.493  0.0561  0.5945 -0.3458
   44MOL    C29 9575   1.077   2.225   0.496 -1.1962  0.4023 -0.6119
   44MOL    O30 9576   1.159   2.235   0.390  0.2342  0.4220  0.6432
   44MOL    H31 9577   1.195   2.357   0.627 -0.9311  0.1762  0.0366
   44MOL    H32 9578   1.057   2.312   0.828 -0.8355 -0.5286  0.3563
   44MOL    H33 9579   0.794   2.068   0.606 -1.5151  0.3594 -0.8261
   44MOL    H34 9580   0.928   2.092   0.403  0.7802 -0.2261 -0.1939
   44MOL    C35 9581   1.254   1.942   0.187  0.1523 -0.6474  0.3422
   44MOL    C36 9582   1.183   2.055   0.227  0.1887  0.6912 -0.2905
   44MOL    C37 9583   1.220   2.123   0.348  0.4277 -0.5167  0.4970
   44MOL    C38 9584   1.333   2.079   0.414  1.0080 -0.0447 -0.5224
   44MOL    C39 9585   1.403   1.965   0.374 -0.3018  0.0310 -0.1745
   44MOL    C40 9586   1.372   1.899   0.253  0.7283  0.5823 -0.0419
   44MOL    O41 9587   1.436   1.789   0.200  0.2803 -0.5099  0.1749
   44MOL    H42 9588   1.222   1.892   0.097  3.5977 -1.1243 -0.6960
   44MOL    H43 9589   1.103   2.097   0.168  0.6378  0.1982 -1.2621
   44MOL    H44 9590   1.357   2.123   0.510 -0.4367  0.5463 -0.4201
   44MOL    H45 9591   1.486   1.926   0.431 -0.4138 -0.8969 -0.6215
   44MOL    C46 9592   1.528   1.493   0.401 -1.2159 -1.0552  0.2874
   44MOL    C47 9593   1.545   1.604   0.312  0.1620  0.8277  0.2630
   44MOL    C48 9594   1.427   1.667   0.265 -0.0727  0.0761  0.1798
   44MOL    C49 9595   1.305   1.613   0.303 -0.3705 -0.3791  0.3281
   44MOL    C50 9596   1.288   1.501   0.390  0.3404 -0.0272 -0.0847
   44MOL    C51 9597   1.406   1.441   0.438  0.9634  0.2532  0.4196
   44MOL    O52 9598   1.392   1.338   0.527  0.0690 -0.8587 -1.0118
   44MOL    H53 9599   1.624   1.455   0.433 -0.5849  0.1726 -0.0904
   44MOL    H54 9600   1.642   1.645   0.287 -0.3778  3.1838  1.8228
   44MOL    H55 9601   1.225   1.669   0.257  2.5132  3.1450 -0.6585
   44MOL    H56 9602   1.190   1.461   0.411  0.3722 -1.1144 -1.8281
   44MOL    C57 9603   1.527   1.006   0.565  0.8751  0.5146 -0.1747
   44MOL    C58 9604   1.486   1.133   0.588 -0.3007  0.1151  0.7283
   44MOL    C59 9605   1.428   1.209   0.485 -0.3690  0.2163  1.0072
   44MOL    C60 9606   1.410   1.158   0.357 -0.7014 -0.0304  0.4950
   44MOL    C61 9607   1.450   1.025   0.334  0.9214  0.7906 -0.1265
   44MOL    C62 9608   1.509   0.952   0.439  0.0257 -0.0851  0.8579
   44MOL    O63 9609   1.556   0.823   0.419  0.2210 -0.7319  0.6802
   44MOL    H64 9610   1.556   0.938   0.644  0.9300 -0.6175 -1.1384
   44MOL    H65 9611   1.493   1.173   0.688 -0.3195  0.1553  0.7137
   44MOL    H66 9612   1.363   1.211   0.275  0.2346  0.5730  0.3331
   44MOL    H67 9613   1.435   0.982   0.236  3.2049  1.7278 -0.9091
   44MOL    C68 9614   1.242   0.625   0.421  0.4071 -0.0264 -0.0928
   44MOL    C69 9615   1.335   0.723   0.392  0.5861 -0.2442  0.4363
   44MOL    C70 9616   1.468   0.721   0.437 -0.1117  0.3513 -0.0363
   44MOL    C71 9617   1.509   0.614   0.520  0.9004 -0.1195 -0.0703
   44MOL    C72 9618   1.419   0.513   0.551 -0.7392 -0.4140 -0.4213
   44MOL    C73 9619   1.288   0.514   0.497  0.1972 -0.2622 -0.1141
   44MOL    O74 9620   1.202   0.414   0.533 -0.0109  0.2079 -0.0612
   44MOL    H75 9621   1.143   0.625   0.378  1.1071  0.0301 -1.7655
   44MOL    H76 9622   1.306   0.802   0.324 -0.5155 -0.7825  0.2683
   44MOL    H77 9623   1.604   0.609   0.571  1.0867 -2.7953 -0.6219
   44MOL    H78 9624   1.438   0.435   0.622  1.3163  0.7825  0.3742
   44MOL    C79 9625   0.959   0.521   0.789 -0.2775  0.7246 -0.5470
   44MOL    C80 9626   1.076   0.471   0.734  0.1596 -0.0790  0.4475
   44MOL    C81 9627   1.085   0.443   0.597 -0.5019  0.0914 -0.1903
   44MOL    C82 9628   0.965   0.439   0.519 -0.0270  0.1296 -1.0660
   44MOL    C83 9629   0.844   0.480   0.584  0.7028  0.6626 -1.0726
   44MOL    C84 9630   0.842   0.517   0.715 -0.3146  0.0790  0.1754
   44MOL    O85 9631   0.729   0.572   0.772 -0.1212  0.2459 -0.1105
   44MOL    H86 9632   0.952   0.538   0.895 -0.6159 -0.1547 -0.4190
   44MOL    H87 9633   1.165   0.460   0.793  0.2811 -0.0570  0.2708
   44MOL    H88 9634   0.973   0.418   0.413  0.5240 -0.9628 -0.8128
   44MOL    H89 9635   0.752   0.475   0.527 -0.6299  1.2649  0.9894
   44MOL    C90 9636   0.511   0.270   0.850 -0.2081  0.3465  0.2540
   44MOL    C91 9637   0.621   0.359   0.851  0.0897 -0.5578  0.0513
   44MOL    C92 9638   0.622   0.478   0.768  0.2166 -0.4721  0.1985
   44MOL    C93 9639   0.513   0.501   0.686  0.1872 -0.8071 -0.0232
   44MOL    C94 9640   0.408   0.402   0.674  0.0593 -0.3248  0.0416
   44MOL    C95 9641   0.404   0.294   0.758 -0.3836  0.0389 -0.7670
   44MOL    O96 9642   0.298   0.207   0.752 -0.6604  0.0076 -0.1624
   44MOL    H97 9643   0.513   0.179   0.907  0.8438 -0.3870 -0.9113
   44MOL    H98 9644   0.701   0.334   0.920 -2.1822 -2.3861  2.1089
   44MOL    H99 9645   0.516   0.590   0.625  0.3315  0.2164  1.4828
   44MOL   H100 9646   0.324   0.419   0.608  0.8564 -0.7174 -1.0712
   44MOL   C101 9647   0.353   8.182   0.524 -0.4654 -0.5583  0.1412
   44MOL   C102 9648   0.321   0.053   0.576 -0.5516 -0.3629 -0.1010
   44MOL   C103 9649   0.326   0.080   0.717 -0.2393 -0.5219  0.2519
   44MOL   C104 9650   0.365   8.235   0.804  0.3028 -0.1666 -0.0864
   44MOL   C105 9651   0.404   8.106   0.757  0.4957  0.0129  0.9552
   44MOL   C106 9652   0.409   8.082   0.612 -0.6773  0.3495  0.4504
   44MOL   O107 9653   0.459   7.960   0.566  0.0120 -0.1125 -0.0799
   44MOL   H108 9654   0.333   8.168   0.419 -1.3483  0.1531  0.2063
   44MOL   H109 9655   0.283   0.131   0.511 -0.1711  0.7206  0.9572
   44MOL   H110 9656   0.366   8.252   0.911  1.8573 -1.6851  0.1612
   44MOL   H111 9657   0.437   8.028   0.823 -0.1486 -2.1358 -1.1674
   44MOL   C112 9658   0.192   7.803   0.381  0.3504 -0.2517  0.1392
   44MOL   C113 9659   0.267   7.852   0.485  0.4449 -0.3335 -1.0954
   44MOL   C114 9660   0.397   7.907   0.462 -0.1118 -0.0887  0.5512
   44MOL   C115 9661   0.459   7.897   0.339 -0.2167  0.7373 -0.4621
   44MOL   C116 9662   0.382   7.841   0.236  0.2382  0.7822 -0.3261
   44MOL   C117 9663   0.251   7.801   0.254  0.4696  0.7676  0.4520
   44MOL   O118 9664   0.195   7.733   0.155 -0.3415  0.1593  0.3328
   44MOL   H119 9665   0.092   7.765   0.396  0.7746 -1.5374 -0.2462
   44MOL   H120 9666   0.220   7.850   0.582  0.3942 -0.6633 -1.1250
   44MOL   H121 9667   0.562   7.927   0.328  0.7981 -2.4069 -0.0692
   44MOL   H122 9668   0.431   7.846   0.140  0.0175  2.3853 -0.3742
   44MOL   C123 9669   0.044   7.934   8.139 -0.6436 -0.1489 -0.3898
   44MOL   C124 9670   0.138   7.866   8.219 -0.0900  0.1429  0.0196
   44MOL   C125 9671   0.096   7.791   0.076 -0.5040  0.5231  0.0503
   44MOL   C126 9672   8.217   7.787   0.110  0.3184 -0.2212  0.1795
   44MOL   C127 9673   8.120   7.858   0.035  0.6331 -0.1219 -0.0254
   44MOL   C128 9674   8.163   7.932   8.175 -0.1484  0.4164 -0.2066
   44MOL   O129 9675   8.063   7.984   8.101 -0.2360 -0.5366 -0.1218
   44MOL   H130 9676   0.074   7.988   8.050  1.6619 -1.1023 -0.2158
   44MOL   H131 9677   0.242   7.881   8.193 -0.6143  2.2461 -0.9645
   44MOL   H132 9678   8.186   7.755   0.208  0.0478 -0.9128 -0.1311
   44MOL   H133 9679   8.017   7.861   0.066  1.0938  4.0581  1.5053
   44MOL   C134 9680   8.130   0.030   7.913  0.2025  0.3909  0.1680
   44MOL   C135 9681   8.109   8.198   8.017  0.2290 -0.2218 -0.4174
   44MOL   C136 9682   8.089   8.060   7.993  0.0779 -0.1994 -0.9843
   44MOL   C137 9683   8.106   8.009   7.858 -0.1773 -0.5751 -0.0031
   44MOL   C138 9684   8.144   8.097   7.756  0.3122 -0.0348  0.1383
   44MOL   C139 9685   8.159   8.231   7.785 -0.1343  0.4170 -0.4586
   44MOL   O140 9686   8.188   0.069   7.693 -0.0454  0.1266  0.2018
   44MOL   H141 9687   8.142   0.137   7.924 -0.9336  0.5956 -0.5466
   44MOL   H142 9688   8.103   8.233   8.119 -2.2508  0.7036 -0.8453
   44MOL   H143 9689   8.079   7.907   7.838  0.6771 -1.0851  1.3709
   44MOL   H144 9690   8.175   8.059   7.660  0.5692 -1.3708  0.7438
   44MOL   C145 9691   0.266   0.221   7.681  0.0713 -0.1476  0.7131
   44MOL   C146 9692   0.132   0.201   7.713 -0.2431  0.6067  0.2118
   44MOL   C147 9693   0.064   0.089   7.666 -0.5267  0.6250  0.1948
   44MOL   C148 9694   0.131   8.250   7.579  0.2861 -0.3114 -0.3221
   44MOL   C149 9695   0.260   0.027   7.543 -0.3605  0.1630  0.8944
   44MOL   C150 9696   0.331   0.130   7.597 -0.6829 -0.6233  0.3731
   44MOL   O151 9697   0.464   0.147   7.575 -0.3085  0.0764  0.0061
   44MOL   H152 9698   0.319   0.298   7.735  1.1109 -0.7131  0.5162
   44MOL   H153 9699   0.081   0.263   7.786  0.4096 -0.7370  1.8367
   44MOL   H154 9700   0.083   8.164   7.534  1.0077 -0.7928 -0.1662
   44MOL   H155 9701   0.306   8.222   7.465  0.6044  1.7610  0.2105
   44MOL   C156 9702   0.513   0.274   7.236 -0.5427  0.2071 -0.3383
   44MOL   C157 9703   0.492   0.183   7.341  0.2438 -0.1972  0.2884
   44MOL   C158 9704   0.495   0.231   7.473  0.0342  0.3995  0.7510
   44MOL   C159 9705   0.523   0.361   7.505  0.5836  0.1368  0.3205
   44MOL   C160 9706   0.527   0.457   7.405  0.2596  0.2277 -0.3441
   44MOL   C161 9707   0.533   0.411   7.267  0.1083  0.9043  0.1464
   44MOL   O162 9708   0.553   0.498   7.167  0.1197 -0.4844 -0.1239
   44MOL   H163 9709   0.521   0.238   7.135 -0.0176 -0.3316 -0.1082
   44MOL   H164 9710   0.482   0.077   7.320  1.5865 -0.0135 -1.4464
   44MOL   H165 9711   0.525   0.385   7.610 -2.1292 -0.5089  0.5540
   44MOL   H166 9712   0.541   0.563   7.421 -0.2834  0.2543 -0.0333
   44MOL   C167 9713   0.219   0.632   7.062 -0.7424  0.0177  0.2549
   44MOL   C168 9714   0.339   0.612   7.139 -0.4523  1.5179  0.4329
   44MOL   C169 9715   0.447   0.538   7.090  0.0423 -0.6306 -0.1522
   44MOL   C170 9716   0.448   0.502   6.951 -0.6800 -0.2529  0.6899
   44MOL   C171 9717   0.331   0.519   6.872  0.7374 -0.0295  0.0394
   44MOL   C172 9718   0.218   0.585   6.927  0.2003  0.1839  0.1905
   44MOL   O173 9719   0.101   0.590   6.860 -0.2569 -0.0285  0.1312
   44MOL   H174 9720   0.133   0.683   7.101 -1.8174 -1.7807  0.2619
   44MOL   H175 9721   0.342   0.640   7.243  1.8587  1.7384  0.3211
   44MOL   H176 9722   0.526   0.444   6.903  0.6256  0.5811  1.7466
   44MOL   H177 9723   0.332   0.474   6.774 -0.7174  1.2703 -0.6032
   44MOL   C178 9724   8.092   0.844   6.828 -0.6099  0.4849 -0.1861
   44MOL   C179 9725   8.152   0.719   6.864 -0.1044  0.1409  0.3357
   44MOL   C180 9726   0.040   0.708   6.841  0.0958 -0.3544 -0.2454
   44MOL   C181 9727   0.107   0.816   6.780 -0.4699  0.2089 -0.4322
   44MOL   C182 9728   0.047   0.937   6.753 -0.6697  0.7047 -0.4358
   44MOL   C183 9729   8.163   0.954   6.771  0.1420  0.2097 -0.5839
   44MOL   O184 9730   8.096   1.070   6.727  0.0163  0.6090 -0.1403
   44MOL   H185 9731   7.984   0.846   6.828 -0.6682 -1.5753  0.2749
   44MOL   H186 9732   8.099   0.634   6.904  0.6092  0.0942  1.2103
   44MOL   H187 9733   0.211   0.798   6.757 -1.1546 -1.1963 -2.6272
   44MOL   H188 9734   0.103   1.016   6.705  2.3196  0.5803  2.6305
   44MOL   C189 9735   7.864   1.143   6.445  0.1167  0.1555 -0.1171
   44MOL   C190 9736   7.914   1.138   6.576  0.4751  0.2856 -0.6335
   44MOL   C191 9737   8.035   1.066   6.602  0.2854 -0.6333  0.5834
   44MOL   C192 9738   8.093   0.992   6.498 -0.3091  0.1180  0.6706
   44MOL   C193 9739   8.032   0.987   6.368  0.4508 -0.1240  0.1924
   44MOL   C194 9740   7.922   1.066   6.342 -0.5121  0.1722  0.0970
   44MOL   O195 9741   7.876   1.067   6.215  0.3478 -0.1664 -0.1323
   44MOL   H196 9742   7.781   1.212   6.438 -1.3431 -1.4354  0.9652
   44MOL   H197 9743   7.870   1.202   6.651  1.1797  0.4766 -0.3809
   44MOL   H198 9744   8.197   0.965   6.506 -0.0822  0.5479 -0.7498
   44MOL   H199 9745   8.072   0.925   6.289 -2.3160 -2.3128  0.4471
   44MOL   C200 9746   8.088   1.119   5.917  0.5647  0.2884  0.4200
   44MOL   C201 9747   7.992   1.065   6.005 -0.5107 -0.0587 -0.7351
   44MOL   C202 9748   7.961   1.133   6.126 -0.0073 -0.2228  0.0399
   44MOL   C203 9749   8.003   1.267   6.144 -0.0146  0.3101  0.4488
   44MOL   C204 9750   8.086   1.323   6.043  1.3087 -0.7214  0.0060
   44MOL   C205 9751   8.139   1.251   5.938  0.3620  0.6346  0.9343
   44MOL   O206 9752   8.224   1.311   5.848  0.0419  0.0587  0.4782
   44MOL   H207 9753   8.109   1.065   5.826  0.6360  2.2199 -0.7460
   44MOL   H208 9754   7.973   0.958   6.006  2.3336 -0.6130 -0.0997
   44MOL   H209 9755   7.964   1.323   6.227  1.5022  2.7887 -0.4453
   44MOL   H210 9756   8.124   1.424   6.051 -0.4737 -0.0968  0.8246
   44MOL   C211 9757   0.200   1.096   5.653 -0.0667 -0.1165 -0.1412
   44MOL   C212 9758   0.082   1.147   5.702  0.0218  0.1376 -0.4155
   44MOL   C213 9759   0.087   1.255   5.795 -0.7571 -0.4417 -0.1326
   44MOL   C214 9760   0.211   1.302   5.837  0.8614 -0.0971  0.1196
   44MOL   C215 9761   0.330   1.246   5.790 -0.1220 -0.2656  0.4828
   44MOL   C216 9762   0.326   1.146   5.688 -0.6352  0.1829 -0.2534
   44MOL   O217 9763   0.438   1.095   5.626  0.1304 -0.4109 -0.0140
   44MOL   H218 9764   0.184   1.016   5.582  1.1842  0.1108 -0.6992
   44MOL   H219 9765   8.243   1.111   5.663 -1.2225  2.5492  0.2020
   44MOL   H220 9766   0.225   1.388   5.901  0.6452 -0.1246  0.2065
   44MOL   H221 9767   0.424   1.287   5.824  0.2090 -1.6435  1.2859
   44MOL   H222 9768   0.511   1.154   5.637  0.3887 -0.4922 -1.2442
   45MOL     C1 9769   3.126   6.237   0.050  0.3432 -0.5877 -0.2300
   45MOL     C2 9770   3.253   6.183   0.093  0.1524 -0.0589 -0.7631
   45MOL     C3 9771   3.259   6.068   0.183  0.4140  0.0689  0.3347
   45MOL     C4 9772   3.136   6.016   0.231  0.0308 -0.8087  0.0487
   45MOL     C5 9773   3.016   6.079   0.198 -0.1154 -1.0804 -0.2453
   45MOL     C6 9774   3.005   6.193   0.112 -0.3846 -0.2682  0.0154
   45MOL     O7 9775   2.883   6.256   0.084 -1.0037  0.6059 -0.1237
   45MOL     H8 9776   3.126   6.312   8.227  0.2859 -1.4256 -1.0499
   45MOL     H9 9777   3.346   6.211   0.046  0.0197  0.8936 -0.4566
   45MOL    H10 9778   3.137   5.934   0.301 -3.0589 -1.9419 -1.1203
   45MOL    H11 9779   2.931   6.049   0.258  0.5840  0.1498  1.4030
   45MOL    H12 9780   3.346   6.015   0.216  1.2650  1.7181  0.8252
   45MOL    C13 9781   2.794   6.419   8.008 -0.0007 -0.2567 -0.2132
   45MOL    C14 9782   2.819   6.405   8.148 -0.0388  0.1445  0.2245
   45MOL    C15 9783   2.856   6.275   8.200 -0.2683 -0.4554 -0.4186
   45MOL    C16 9784   2.854   6.163   8.105 -0.1519 -0.3330 -0.5622
   45MOL    C17 9785   2.833   6.184   7.966 -1.0318  0.2185 -0.2048
   45MOL    C18 9786   2.799   6.315   7.910 -0.5815  0.9639 -0.2571
   45MOL    O19 9787   2.771   6.328   7.778 -0.2062 -0.0156 -0.6793
   45MOL    H20 9788   2.760   6.516   7.975 -0.0457 -0.7113 -1.5300
   45MOL    H21 9789   2.819   6.496   8.205 -1.4149  0.6544 -0.5470
   45MOL    H22 9790   2.882   6.065   8.140  0.0524  0.3723  1.3089
   45MOL    H23 9791   2.834   6.101   7.897 -0.7561  0.8723 -1.0010
   45MOL    C24 9792   2.788   6.674   7.663 -0.1351 -0.2204 -0.0551
   45MOL    C25 9793   2.733   6.553   7.705 -0.0117 -0.3434  0.1323
   45MOL    C26 9794   2.817   6.443   7.717 -0.4334  0.1013 -0.4381
   45MOL    C27 9795   2.952   6.452   7.671  0.3601  0.2626  0.0512
   45MOL    C28 9796   3.003   6.572   7.621  0.1744  0.0213  0.3174
   45MOL    C29 9797   2.924   6.685   7.622 -0.1074  0.1271 -0.3510
   45MOL    O30 9798   2.970   6.810   7.585 -0.1495 -0.5587 -0.3415
   45MOL    H31 9799   2.740   6.770   7.674  1.2284  0.5070 -0.3257
   45MOL    H32 9800   2.634   6.550   7.750 -0.6595  0.3210 -1.2061
   45MOL    H33 9801   3.026   6.373   7.675  1.6125  1.4620  1.4959
   45MOL    H34 9802   3.100   6.571   7.575  0.9604 -0.4284  1.9313
   45MOL    C35 9803   3.272   6.884   7.383 -0.3314  0.1584  0.9729
   45MOL    C36 9804   3.184   6.883   7.492 -0.2121  0.6157 -0.5254
   45MOL    C37 9805   3.052   6.826   7.478 -1.0104  0.3963  0.1595
   45MOL    C38 9806   3.012   6.775   7.354  0.6176  0.1061  0.2436
   45MOL    C39 9807   3.093   6.793   7.241  0.2051  0.3350 -1.0611
   45MOL    C40 9808   3.226   6.842   7.254  0.4987 -0.1644 -0.2601
   45MOL    O41 9809   3.311   6.834   7.151 -0.1524  0.1720 -0.0499
   45MOL    H42 9810   3.377   6.906   7.394 -0.3918  1.3761 -0.6658
   45MOL    H43 9811   3.217   6.921   7.587  0.7728 -3.4235  0.8382
   45MOL    H44 9812   2.914   6.731   7.347  0.5339  0.2785  0.3346
   45MOL    H45 9813   3.052   6.748   7.152 -1.4663  0.6888 -0.5037
   45MOL    C46 9814   3.422   7.181   7.069  0.5150 -0.4709  0.1793
   45MOL    C47 9815   3.330   7.079   7.104  0.2139  0.0759 -0.3336
   45MOL    C48 9816   3.379   6.945   7.101  0.4779 -0.2295  0.0399
   45MOL    C49 9817   3.515   6.919   7.058 -0.1801 -0.4418 -0.7415
   45MOL    C50 9818   3.598   7.019   7.014 -0.2783 -0.1078  0.0148
   45MOL    C51 9819   3.552   7.153   7.026  0.4768 -0.0332 -0.5182
   45MOL    O52 9820   3.635   7.256   6.992  0.0301  0.2945 -0.3788
   45MOL    H53 9821   3.395   7.285   7.069 -1.0954 -0.8296 -2.6167
   45MOL    H54 9822   3.231   7.102   7.139  0.3065  0.4239 -0.3075
   45MOL    H55 9823   3.547   6.819   7.035  1.0990 -0.0956 -0.5019
   45MOL    H56 9824   3.696   6.984   6.984 -0.4370  0.2906 -0.9812
   45MOL    C57 9825   3.556   7.527   6.755 -0.2898  0.7525 -0.2183
   45MOL    C58 9826   3.572   7.453   6.878 -0.3854 -0.0688  0.2653
   45MOL    C59 9827   3.612   7.321   6.872  0.5054  0.1626  0.3538
   45MOL    C60 9828   3.629   7.258   6.747  0.0551 -0.1851  0.0139
   45MOL    C61 9829   3.609   7.328   6.627 -0.4738  0.0569  0.1078
   45MOL    C62 9830   3.573   7.467   6.631  1.0339  0.2196  0.0037
   45MOL    O63 9831   3.556   7.539   6.513 -0.5644  0.5016 -0.3879
   45MOL    H64 9832   3.536   7.633   6.748  1.3702  1.1319  0.5959
   45MOL    H65 9833   3.563   7.505   6.972  0.1659 -0.4206  0.5136
   45MOL    H66 9834   3.644   7.152   6.738 -0.3924 -0.3259  0.7840
   45MOL    H67 9835   3.628   7.279   6.533  2.0638  1.0831  0.0522
   45MOL    C68 9836   3.769   7.825   6.414 -0.3164 -0.5502  0.1452
   45MOL    C69 9837   3.653   7.750   6.451  0.4832 -0.0205  0.3031
   45MOL    C70 9838   3.668   7.613   6.474 -0.0732 -0.4630 -0.4152
   45MOL    C71 9839   3.789   7.548   6.457  0.5747 -0.0965  0.8256
   45MOL    C72 9840   3.902   7.620   6.419 -0.2941 -0.3576 -0.3068
   45MOL    C73 9841   3.889   7.760   6.382  0.0204  0.6984 -0.5721
   45MOL    O74 9842   3.999   7.823   6.321  0.1841  0.1533 -0.0943
   45MOL    H75 9843   3.753   7.929   6.387  1.6226 -0.5990 -1.2818
   45MOL    H76 9844   3.559   7.802   6.463  0.0282 -0.5506 -1.0284
   45MOL    H77 9845   3.806   7.442   6.475  0.8704  0.1938  2.2980
   45MOL    H78 9846   3.991   7.560   6.423 -0.6925 -0.8786  1.4525
   45MOL    C79 9847   3.900   8.037   6.034 -0.6182  0.3244 -0.5130
   45MOL    C80 9848   3.923   7.989   6.163 -0.4929 -0.3814 -0.3371
   45MOL    C81 9849   3.978   7.857   6.186 -0.2099 -0.3938  0.4630
   45MOL    C82 9850   4.016   7.774   6.082 -0.3771  0.2431  0.9215
   45MOL    C83 9851   3.998   7.820   5.946  0.3131 -0.7183 -0.0170
   45MOL    C84 9852   3.938   7.948   5.929 -0.1217 -0.4560  0.2914
   45MOL    O85 9853   3.906   7.989   5.804 -0.1072  0.5852 -0.5064
   45MOL    H86 9854   3.859   8.136   6.022  0.5796  1.0389  1.0497
   45MOL    H87 9855   3.880   8.045   6.244 -0.8840  0.4300 -1.0893
   45MOL    H88 9856   4.060   7.678   6.100  0.2298  0.5688  1.1992
   45MOL    H89 9857   4.035   7.761   5.864  0.1749  0.7476 -1.1464
   45MOL    C90 9858   3.589   7.809   5.715 -0.5337 -0.6199  0.1955
   45MOL    C91 9859   3.724   7.832   5.734  0.2875  0.2223  0.4718
   45MOL    C92 9860   3.775   7.964   5.768 -1.3461  0.5888 -0.6004
   45MOL    C93 9861   3.685   8.066   5.801 -0.4147  0.6546 -0.1863
   45MOL    C94 9862   3.546   8.044   5.794  0.1270 -0.0051 -0.5086
   45MOL    C95 9863   3.499   7.915   5.745 -0.6576 -1.0437  0.1619
   45MOL    O96 9864   3.370   7.892   5.736  0.1062  0.2729  0.4740
   45MOL    H97 9865   3.548   7.711   5.695  0.5322 -1.1841  0.7251
   45MOL    H98 9866   3.787   7.745   5.733  0.9355  0.6920 -2.3944
   45MOL    H99 9867   3.713   8.165   5.833 -2.1178  1.1811 -0.2605
   45MOL   H100 9868   3.482   8.130   5.806  2.4455  1.5406  1.1231
   45MOL   C101 9869   3.320   7.824   5.375 -0.0707  0.6159 -0.2647
   45MOL   C102 9870   3.373   7.885   5.491  1.1829  0.5261 -0.1189
   45MOL   C103 9871   3.325   7.839   5.617 -0.5158 -0.8204 -0.5868
   45MOL   C104 9872   3.236   7.736   5.625 -0.1405  0.0940 -0.5919
   45MOL   C105 9873   3.186   7.679   5.509 -0.3920  0.0519 -0.4333
   45MOL   C106 9874   3.225   7.719   5.386 -0.7598 -0.4008  0.8107
   45MOL   O107 9875   3.173   7.664   5.271 -0.2437  0.2276  0.3339
   45MOL   H108 9876   3.360   7.859   5.280 -0.2962  2.3622  0.2755
   45MOL   H109 9877   3.452   7.959   5.490  1.4133  0.2812 -1.1246
   45MOL   H110 9878   3.198   7.699   5.720  0.3241 -1.4179 -0.9734
   45MOL   H111 9879   3.115   7.598   5.512 -0.3041  0.0515  2.1417
   45MOL   C112 9880   2.931   7.915   5.166  0.2779 -0.0960 -0.3338
   45MOL   C113 9881   3.052   7.840   5.173  0.6811 -1.3495  0.0004
   45MOL   C114 9882   3.053   7.714   5.235 -0.2824  0.1814 -0.3207
   45MOL   C115 9883   2.936   7.653   5.282  0.6122  0.2933 -0.1426
   45MOL   C116 9884   2.815   7.724   5.276 -0.2545 -0.5072 -0.2349
   45MOL   C117 9885   2.813   7.852   5.213 -0.0416  0.1070 -0.1491
   45MOL   O118 9886   2.690   7.913   5.211 -0.0717 -0.2187 -0.0213
   45MOL   H119 9887   2.924   8.014   5.124 -0.7672 -0.0909 -0.1763
   45MOL   H120 9888   3.136   7.887   5.126  1.0439 -1.8529  0.1365
   45MOL   H121 9889   2.949   7.557   5.328 -0.9410  0.3026  0.3469
   45MOL   H122 9890   2.727   7.685   5.325  1.3959 -3.6179  0.4105
   45MOL   C123 9891   2.591   8.056   4.886 -0.5475 -0.1385  0.0523
   45MOL   C124 9892   2.635   7.964   4.983 -0.8883 -0.3091  0.4543
   45MOL   C125 9893   2.648   8.006   5.118  0.9847  0.8413 -0.0593
   45MOL   C126 9894   2.629   8.137   5.152 -0.7057  0.2032 -0.4810
   45MOL   C127 9895   2.587   8.233   5.064  0.1786  0.7518 -0.4945
   45MOL   C128 9896   2.564   8.191   4.927 -0.2978 -0.0558  0.1930
   45MOL   O129 9897   2.530   0.035   4.833 -0.6226 -0.9307 -0.3719
   45MOL   H130 9898   2.580   8.024   4.784 -0.6749 -0.4580  0.1657
   45MOL   H131 9899   2.660   7.864   4.950 -0.7368 -0.0863 -0.1121
   45MOL   H132 9900   2.655   8.159   5.255  1.0746  0.6235 -0.9957
   45MOL   H133 9901   2.574   0.079   5.102  1.8783  0.3269  1.2189
   45MOL   C134 9902   2.830   0.072   4.624  0.0010  0.1671 -1.0640
   45MOL   C135 9903   2.744   0.074   4.734  0.5156 -0.5966  0.7379
   45MOL   C136 9904   2.611   0.034   4.720 -0.1057  0.4936 -0.1458
   45MOL   C137 9905   2.565   8.244   4.596  0.2760  0.2634 -0.2294
   45MOL   C138 9906   2.652   8.223   4.489  0.5615  0.3986 -0.2703
   45MOL   C139 9907   2.784   0.021   4.498  0.3030  0.3887 -0.5778
   45MOL   O140 9908   2.865   0.003   4.394 -0.4419 -0.0817 -0.1992
   45MOL   H141 9909   2.926   0.121   4.626 -0.0558  0.3277 -1.9312
   45MOL   H142 9910   2.772   0.107   4.833  0.8246 -0.5656  0.6386
   45MOL   H143 9911   2.459   8.228   4.582  0.8772 -1.4298 -3.3588
   45MOL   H144 9912   2.624   8.179   4.394 -0.8088  0.8694 -0.0984
   45MOL   C145 9913   3.034   0.268   4.220 -0.3211 -0.3374 -0.2833
   45MOL   C146 9914   3.006   0.157   4.292 -0.5041  0.2029 -1.2549
   45MOL   C147 9915   2.879   0.114   4.318 -0.2874  0.5324 -0.5577
   45MOL   C148 9916   2.775   0.183   4.247  0.3991 -0.1664 -0.6101
   45MOL   C149 9917   2.800   0.295   4.165  0.0847  0.1798 -0.2600
   45MOL   C150 9918   2.934   0.336   4.150 -0.1029  0.2777  0.4803
   45MOL   O151 9919   2.966   0.442   4.065  0.1848 -0.9501 -0.6468
   45MOL   H152 9920   3.134   0.300   4.194 -0.4383  1.9372  1.8360
   45MOL   H153 9921   3.090   0.108   4.339  0.2268  2.1313 -0.5098
   45MOL   H154 9922   2.679   0.137   4.267 -0.6460  1.5431 -1.6157
   45MOL   H155 9923   2.717   0.335   4.109  1.1134 -1.0283 -2.7373
   45MOL   C156 9924   2.955   0.808   4.063 -0.4962 -0.4842 -0.4476
   45MOL   C157 9925   2.976   0.674   4.024  0.6964  0.4414  0.0534
   45MOL   C158 9926   2.948   0.570   4.112  0.1743 -1.2133 -0.5735
   45MOL   C159 9927   2.910   0.598   4.244 -1.3452  0.8514 -0.1103
   45MOL   C160 9928   2.889   0.730   4.282 -0.2711 -0.0225 -0.3406
   45MOL   C161 9929   2.911   0.840   4.193  0.3350  0.1884 -0.5183
   45MOL   O162 9930   2.909   0.967   4.239  0.5052  0.3987  0.6754
   45MOL   H163 9931   2.986   0.889   3.998  1.7191  0.2211  1.4352
   45MOL   H164 9932   3.008   0.645   3.925 -2.8389 -2.3699 -0.3557
   45MOL   H165 9933   2.882   0.521   4.314 -0.6347 -1.4854 -2.3052
   45MOL   H166 9934   2.872   0.749   4.387 -2.2376 -2.1107 -0.2379
   45MOL   C167 9935   2.776   1.224   4.023 -0.8663  0.0291  0.2012
   45MOL   C168 9936   2.871   1.139   4.086 -0.3202  0.4362  0.1186
   45MOL   C169 9937   2.821   1.047   4.177  0.5062  0.6840 -0.3354
   45MOL   C170 9938   2.689   1.058   4.225 -0.0567 -0.0742  1.0360
   45MOL   C171 9939   2.595   1.142   4.168 -0.5280 -0.9402 -0.2468
   45MOL   C172 9940   2.641   1.223   4.066  0.1057  0.7576 -0.2087
   45MOL   O173 9941   2.554   1.320   4.013 -0.3189 -0.1706 -0.5501
   45MOL   H174 9942   2.806   1.292   3.945  1.1782 -1.5770 -0.4566
   45MOL   H175 9943   2.977   1.148   4.063  0.0719 -0.2323  1.6107
   45MOL   H176 9944   2.659   0.986   4.300  1.0018  0.5764  2.1242
   45MOL   H177 9945   2.493   1.140   4.204 -0.5774  0.5024 -0.3133
   45MOL   C178 9946   2.405   1.145   3.713 -0.1879  0.1162  0.4539
   45MOL   C179 9947   2.464   1.166   3.839  0.1706  0.0777 -0.6043
   45MOL   C180 9948   2.506   1.295   3.888  0.5128  1.0499  0.6347
   45MOL   C181 9949   2.502   1.398   3.797  0.1941 -0.0861  0.1816
   45MOL   C182 9950   2.434   1.382   3.673  0.1869 -0.1596  0.6460
   45MOL   C183 9951   2.378   1.260   3.633 -0.6347 -0.0830 -0.0158
   45MOL   O184 9952   2.316   1.256   3.508 -0.0835 -0.0843  0.0983
   45MOL   H185 9953   2.372   1.044   3.692 -0.4230  0.6438 -1.7281
   45MOL   H186 9954   2.466   1.076   3.899 -0.2435 -0.7592 -1.8206
   45MOL   H187 9955   2.547   1.494   3.817  1.1718 -0.4406 -0.2611
   45MOL   H188 9956   2.414   1.473   3.619 -2.0318 -0.2772  1.2294
   45MOL   C189 9957   2.497   1.073   3.239 -0.3402 -1.2077  0.0021
   45MOL   C190 9958   2.404   1.109   3.342 -0.9043 -0.1388 -0.0694
   45MOL   C191 9959   2.401   1.236   3.402  0.5494  0.2793 -1.0226
   45MOL   C192 9960   2.499   1.335   3.359 -0.5596  0.0150  0.3281
   45MOL   C193 9961   2.576   1.308   3.243 -0.1305 -0.0280 -0.2578
   45MOL   C194 9962   2.586   1.175   3.197 -0.6546 -0.3624  0.3353
   45MOL   O195 9963   2.693   1.143   3.112 -0.3507 -0.4582 -0.0989
   45MOL   H196 9964   2.513   0.975   3.197 -2.9656 -1.4942 -0.4177
   45MOL   H197 9965   2.346   1.031   3.388 -2.6019  0.5015 -1.0645
   45MOL   H198 9966   2.516   1.427   3.413  1.9148 -0.7383  0.9290
   45MOL   H199 9967   2.649   1.380   3.208 -1.0101  1.5239  1.0313
   45MOL   C200 9968   2.653   1.304   2.775 -0.2945  0.1120  0.2898
   45MOL   C201 9969   2.638   1.281   2.915  0.0872  0.0290 -0.4531
   45MOL   C202 9970   2.714   1.176   2.976 -0.2131  0.1137 -0.6169
   45MOL   C203 9971   2.816   1.108   2.910  0.1663  0.0459  0.3054
   45MOL   C204 9972   2.830   1.125   2.769 -0.4447  0.2991 -0.0416
   45MOL   C205 9973   2.748   1.221   2.709  0.1830 -1.0223  0.2934
   45MOL   O206 9974   2.765   1.240   2.575  0.4172  0.2948  0.5161
   45MOL   H207 9975   2.595   1.381   2.729 -2.8559 -1.0413  1.4849
   45MOL   H208 9976   2.564   1.338   2.968 -0.5375 -1.7484  0.6278
   45MOL   H209 9977   2.886   1.050   2.968 -1.3125 -1.3052  0.7963
   45MOL   H210 9978   2.911   1.067   2.727  0.9634  0.8510  1.8236
   45MOL   C211 9979   2.653   1.128   2.248  0.0333 -0.1907 -0.2414
   45MOL   C212 9980   2.715   1.208   2.347  0.2543  0.8317  0.0035
   45MOL   C213 9981   2.693   1.167   2.482  0.2835 -0.7177 -0.6175
   45MOL   C214 9982   2.596   1.071   2.523 -0.4527  0.2249  0.3412
   45MOL   C215 9983   2.532   1.000   2.419 -0.2602 -0.2930 -1.1056
   45MOL   C216 9984   2.566   1.026   2.281 -0.2954  0.0307  0.9600
   45MOL   O217 9985   2.512   0.961   2.176  0.4643 -0.1490  0.0988
   45MOL   H218 9986   2.685   1.150   2.147  0.3356 -1.4212 -0.4171
   45MOL   H219 9987   2.787   1.288   2.336 -0.2274  1.0141 -2.0413
   45MOL   H220 9988   2.568   1.056   2.626  1.0022  0.8524  0.8550
   45MOL   H221 9989   2.460   0.925   2.450  0.8439 -1.5048 -1.4037
   45MOL   H222 9990   2.457   0.889   2.203  1.0999 -0.7081 -0.0817
   46MOL     C1 9991   7.829   0.640   6.421 -0.2792 -0.4309  0.2015
   46MOL     C2 9992   7.705   0.702   6.450 -0.3719  0.4484 -0.6101
   46MOL     C3 9993   7.633   0.769   6.351  0.3606 -0.5735 -0.4231
   46MOL     C4 9994   7.698   0.797   6.233  0.4042  0.0218  1.1284
   46MOL     C5 9995   7.818   0.733   6.198 -0.5783  0.1514  0.0321
   46MOL     C6 9996   7.881   0.648   6.289 -0.2204  0.3318 -0.4240
   46MOL     O7 9997   7.997   0.583   6.252 -0.0987 -0.2036  0.3023
   46MOL     H8 9998   7.874   0.583   6.502 -0.3714 -0.7930  0.0013
   46MOL     H9 9999   7.666   0.688   6.549 -3.4583  0.3221 -1.7851
   46MOL    H1010000   7.645   0.843   6.150  0.9999  1.4062  1.5008
   46MOL    H1110001   7.854   0.737   6.096 -0.0817 -1.1755  0.1503
   46MOL    H1210002   7.539   0.819   6.367  1.9350  1.4536  3.0433
   46MOL    C1310003   8.237   0.459   6.504 -0.1954 -0.5902  0.3819
   46MOL    C1410004   8.160   0.550   6.428  0.7649 -0.6083 -0.4471
   46MOL    C1510005   8.063   0.502   6.341  0.4788 -0.6149 -0.0880
   46MOL    C1610006   8.029   0.363   6.336 -0.2245  0.8199  0.5064
   46MOL    C1710007   8.102   0.276   6.418 -0.4077 -0.1896 -0.1135
   46MOL    C1810008   8.203   0.326   6.504 -0.0390  0.1148 -0.0847
   46MOL    O1910009   0.009   0.241   6.592  0.1436  0.0241 -0.5044
   46MOL    H2010010   0.048   0.493   6.584  0.5982  0.3192 -0.6275
   46MOL    H2110011   8.171   0.657   6.442 -1.6479 -0.2848 -0.8120
   46MOL    H2210012   7.953   0.317   6.275  0.3256  0.2017  0.2833
   46MOL    H2310013   8.084   0.170   6.412 -1.4296  0.0428 -1.2994
   46MOL    C2410014   0.370   0.189   6.686  0.5091 -0.4722 -0.0852
   46MOL    C2510015   0.229   0.201   6.694 -0.2742  0.0811 -0.5619
   46MOL    C2610016   0.145   0.210   6.581  0.0319  0.2883  0.6713
   46MOL    C2710017   0.201   0.179   6.459  0.3771  0.2752  0.1523
   46MOL    C2810018   0.337   0.146   6.451 -0.2643 -0.1849  0.5043
   46MOL    C2910019   0.427   0.157   6.562 -0.5064 -0.4005 -0.1020
   46MOL    O3010020   0.560   0.135   6.539  0.9725  0.0407  0.4781
   46MOL    H3110021   0.432   0.185   6.775  1.8777  0.6983 -0.9694
   46MOL    H3210022   0.187   0.215   6.792 -0.5026  0.0121 -0.6498
   46MOL    H3310023   0.138   0.177   6.371 -1.3379  0.9437  1.3543
   46MOL    H3410024   0.369   0.125   6.350  0.8460  0.4686  0.7207
   46MOL    C3510025   0.682   8.133   6.312 -0.6279  0.0700 -0.5352
   46MOL    C3610026   0.672   0.004   6.372 -0.1885  0.3879 -0.1506
   46MOL    C3710027   0.600   0.012   6.492  0.4473 -1.2407  0.1917
   46MOL    C3810028   0.573   8.147   6.564 -0.5291  0.1220 -0.1225
   46MOL    C3910029   0.596   8.023   6.513  0.4238  0.6447 -0.0117
   46MOL    C4010030   0.642   8.014   6.381 -0.3862  0.5948 -1.0049
   46MOL    O4110031   0.653   7.888   6.312  0.3187 -0.1592 -0.0538
   46MOL    H4210032   0.724   8.127   6.213 -1.3288  0.5816 -0.8661
   46MOL    H4310033   0.713   0.089   6.320  2.5412 -1.2854 -0.8802
   46MOL    H4410034   0.527   8.153   6.662  0.9294  1.7294  0.4895
   46MOL    H4510035   0.570   7.934   6.569  0.3721 -0.0525 -1.1330
   46MOL    C4610036   0.534   7.823   5.962 -0.0653  0.1048  0.1769
   46MOL    C4710037   0.613   7.867   6.071  0.1608 -0.2174 -0.2703
   46MOL    C4810038   0.576   7.857   6.209 -0.1610 -0.4205  0.2387
   46MOL    C4910039   0.448   7.803   6.234 -0.4059  0.3691  0.0012
   46MOL    C5010040   0.368   7.755   6.127  0.1636 -0.3397  0.8813
   46MOL    C5110041   0.410   7.758   5.994  0.1480 -0.1436 -0.0116
   46MOL    O5210042   0.341   7.698   5.888 -0.0210 -0.5239  0.5535
   46MOL    H5310043   0.566   7.836   5.860 -2.2163 -3.0215 -0.9739
   46MOL    H5410044   0.705   7.918   6.043  0.9295 -1.2536  0.3530
   46MOL    H5510045   0.416   7.796   6.336  0.6279 -0.8275  0.2544
   46MOL    H5610046   0.274   7.710   6.155 -0.4129  2.2910  3.3714
   46MOL    C5710047   8.229   7.715   5.937 -0.1504  0.2478 -0.0836
   46MOL    C5810048   0.109   7.748   5.926 -0.3905  0.3052  0.3988
   46MOL    C5910049   0.212   7.645   5.905 -0.0717  0.4651  0.4269
   46MOL    C6010050   0.179   7.506   5.911  0.2209  0.1970  0.0127
   46MOL    C6110051   0.042   7.471   5.944 -0.3549 -0.3612  0.0317
   46MOL    C6210052   8.197   7.576   5.952  0.7967  0.4793 -0.1374
   46MOL    O6310053   8.070   7.537   5.969 -0.3420 -0.3557  0.3399
   46MOL    H6410054   8.151   7.789   5.926  1.5345  1.7006 -2.8540
   46MOL    H6510055   0.141   7.850   5.907 -1.1610  0.7678  1.5592
   46MOL    H6610056   0.256   7.430   5.907  1.8827  1.8422  0.1083
   46MOL    H6710057   0.002   7.371   5.950  0.0541 -0.5724 -0.7361
   46MOL    C6810058   7.906   7.679   6.273 -0.3299 -0.1795  0.4368
   46MOL    C6910059   7.966   7.671   6.147  0.0210  0.8494  0.9253
   46MOL    C7010060   8.024   7.548   6.099 -0.5658 -0.5159  0.7573
   46MOL    C7110061   8.024   7.435   6.182 -0.0202 -0.0610 -0.5573
   46MOL    C7210062   7.956   7.438   6.310 -0.4238 -0.2488  0.2885
   46MOL    C7310063   7.905   7.563   6.360  0.1638 -0.2024 -0.2296
   46MOL    O7410064   7.849   7.559   6.485  0.2131 -0.1773 -0.2608
   46MOL    H7510065   7.867   7.767   6.322  0.5916  0.0942  0.6718
   46MOL    H7610066   7.962   7.758   6.083 -1.1552  0.9591  1.1413
   46MOL    H7710067   8.063   7.341   6.146  1.2833  0.5297 -0.7445
   46MOL    H7810068   7.953   7.348   6.369 -1.2636 -1.1984 -1.1978
   46MOL    C7910069   7.888   7.740   6.805 -0.2880 -0.2721 -0.3513
   46MOL    C8010070   7.832   7.689   6.682  0.4634 -0.0997 -0.2809
   46MOL    C8110071   7.911   7.634   6.586 -0.7773 -0.6431  0.1542
   46MOL    C8210072   8.055   7.627   6.605  0.2442  0.6943 -0.2812
   46MOL    C8310073   8.108   7.684   6.722  0.7053 -0.0169  0.5718
   46MOL    C8410074   8.030   7.738   6.827  0.3593  0.7843  0.5006
   46MOL    O8510075   8.083   7.792   6.938  0.4808 -0.2450 -0.5672
   46MOL    H8610076   7.821   7.780   6.880 -1.3957  0.2460 -1.6078
   46MOL    H8710077   7.725   7.697   6.674  0.2492 -1.9432  0.4344
   46MOL    H8810078   8.117   7.576   6.533 -0.3106  0.7276 -0.7888
   46MOL    H8910079   8.216   7.680   6.734  0.6765 -2.9365  0.1499
   46MOL    C9010080   0.193   7.803   6.944  0.1217 -0.2837 -0.0675
   46MOL    C9110081   0.063   7.766   6.980  0.5485 -0.9541  0.6026
   46MOL    C9210082   8.212   7.841   6.920  0.4761 -0.3339 -0.2863
   46MOL    C9310083   8.236   7.953   6.829 -0.1529 -0.2494 -0.2014
   46MOL    C9410084   0.117   7.984   6.795  0.5260 -0.1799 -0.6562
   46MOL    C9510085   0.220   7.901   6.846 -0.9396 -0.3598 -1.1277
   46MOL    O9610086   0.349   7.946   6.826 -0.1198  0.0284 -0.4480
   46MOL    H9710087   0.278   7.752   6.985 -0.3799 -1.5237 -0.5169
   46MOL    H9810088   0.032   7.683   7.041 -1.1439 -1.1813 -0.5306
   46MOL    H9910089   8.159   8.009   6.777  0.5721 -0.3378 -1.3967
   46MOL   H10010090   0.153   8.068   6.737 -0.0660 -1.1744 -2.4936
   46MOL   C10110091   0.452   0.004   6.994  0.3006 -0.7157 -0.0639
   46MOL   C10210092   0.366   8.162   6.927  0.0912 -0.0694 -0.0468
   46MOL   C10310093   0.405   8.025   6.920 -0.6410  0.1851  0.3294
   46MOL   C10410094   0.520   7.977   6.984 -0.4119  0.1441 -0.8806
   46MOL   C10510095   0.607   8.066   7.043  0.5221  0.1446 -0.0028
   46MOL   C10610096   0.574   8.207   7.045  0.3122  0.4281 -0.2999
   46MOL   O10710097   0.671   0.038   7.089 -0.5329  0.3055  0.8012
   46MOL   H10810098   0.426   0.109   6.989  0.5997 -0.5630  1.6309
   46MOL   H10910099   0.274   8.198   6.885  0.0300 -1.9306 -1.5622
   46MOL   H11010100   0.539   7.871   6.974 -2.4905 -0.5028  1.5198
   46MOL   H11110101   0.697   8.024   7.086 -0.3475 -1.3890  0.3728
   46MOL   C11210102   1.013   0.057   6.960 -0.2244 -0.0678  0.3905
   46MOL   C11310103   0.903   0.035   7.051 -0.3123 -0.2499  0.3351
   46MOL   C11410104   0.777   0.060   7.002  0.2905 -0.6705 -0.5246
   46MOL   C11510105   0.759   0.102   6.868  0.0632 -0.4771  0.9060
   46MOL   C11610106   0.869   0.111   6.776  0.1225 -0.4633  0.4286
   46MOL   C11710107   0.999   0.091   6.824  0.4866 -0.4352 -0.3358
   46MOL   O11810108   1.095   0.108   6.728 -0.1864 -0.4349  0.4877
   46MOL   H11910109   1.108   0.038   7.008 -1.5566  0.2772  3.3177
   46MOL   H12010110   0.927   8.243   7.146 -0.9524 -0.4446  0.4058
   46MOL   H12110111   0.664   0.133   6.829 -0.3586 -0.6489  1.7917
   46MOL   H12210112   0.861   0.136   6.671 -0.2822  1.2935  0.8714
   46MOL   C12310113   1.433   0.017   6.844 -0.3803 -0.0608 -0.6124
   46MOL   C12410114   1.298   0.007   6.816 -0.6545  0.4410 -0.4016
   46MOL   C12510115   1.223   0.115   6.766 -0.1721  0.5777  0.2464
   46MOL   C12610116   1.274   0.248   6.782  0.2272 -0.2700 -0.1714
   46MOL   C12710117   1.404   0.258   6.838  0.2972 -0.4080 -0.1399
   46MOL   C12810118   1.491   0.145   6.860  0.0971 -0.4708 -0.7034
   46MOL   O12910119   1.627   0.154   6.891 -0.8970 -0.1122  0.2498
   46MOL   H13010120   1.480   8.176   6.866 -1.6093 -0.4505  0.4415
   46MOL   H13110121   1.244   8.168   6.815  0.1115 -0.0253  0.1122
   46MOL   H13210122   1.205   0.330   6.767 -0.9998 -1.1226  0.7120
   46MOL   H13310123   1.439   0.355   6.869 -1.1277 -0.5909  2.1196
   46MOL   C13410124   1.770   0.484   6.818  0.3785  0.0957  0.2612
   46MOL   C13510125   1.684   0.373   6.810 -0.0357 -0.4978 -0.4747
   46MOL   C13610126   1.691   0.271   6.911 -0.1367 -0.7887 -0.4445
   46MOL   C13710127   1.768   0.298   7.027 -0.8984 -0.3379 -0.3124
   46MOL   C13810128   1.853   0.410   7.030  0.5805 -0.0763 -0.1605
   46MOL   C13910129   1.856   0.504   6.927 -0.4163  0.1311 -0.0376
   46MOL   O14010130   1.938   0.616   6.939  0.3925 -0.2263  0.1983
   46MOL   H14110131   1.763   0.553   6.736  0.2008  0.8014  0.8711
   46MOL   H14210132   1.628   0.357   6.719 -1.3201 -0.5684  0.3124
   46MOL   H14310133   1.775   0.229   7.110 -1.6577 -1.2583 -1.0032
   46MOL   H14410134   1.909   0.419   7.122 -3.0471  0.4097  2.1394
   46MOL   C14510135   2.167   0.668   6.657 -1.1809 -0.0369  0.2024
   46MOL   C14610136   2.104   0.607   6.765 -0.6390 -0.9824  0.0361
   46MOL   C14710137   1.992   0.663   6.822  0.2547  0.1277  0.2482
   46MOL   C14810138   1.938   0.773   6.763 -0.7284 -0.2962  0.1624
   46MOL   C14910139   1.993   0.834   6.651  0.3706 -0.4873  0.2986
   46MOL   C15010140   2.104   0.779   6.595  0.3565 -0.5605 -0.4885
   46MOL   O15110141   2.163   0.839   6.487 -0.2982 -0.3552  0.3641
   46MOL   H15210142   2.263   0.626   6.631 -1.2700  0.2737 -0.6500
   46MOL   H15310143   2.144   0.520   6.814 -2.9486 -2.6649 -1.0256
   46MOL   H15410144   1.848   0.814   6.806 -1.7382 -0.9807 -1.2429
   46MOL   H15510145   1.950   0.927   6.617 -0.7461 -1.2791 -0.4841
   46MOL   C15610146   1.933   0.894   6.207  0.0765 -0.3049 -0.3435
   46MOL   C15710147   1.995   0.914   6.330 -0.0856  0.3176  0.9716
   46MOL   C15810148   2.104   0.829   6.366 -0.3673  0.0348 -0.3653
   46MOL   C15910149   2.140   0.725   6.275 -0.3143 -0.1764  0.3943
   46MOL   C16010150   2.084   0.715   6.144  0.0174 -0.3380  0.5824
   46MOL   C16110151   1.976   0.800   6.114  0.0599 -0.5009 -0.0230
   46MOL   O16210152   1.920   0.789   5.988  0.3234 -0.2293 -0.2981
   46MOL   H16310153   1.841   0.950   6.189 -0.8981 -1.8128 -0.1287
   46MOL   H16410154   1.951   0.989   6.394 -0.8050  1.0729 -0.3918
   46MOL   H16510155   2.218   0.655   6.301 -0.3313 -0.6792 -0.8500
   46MOL   H16610156   2.121   0.633   6.085  3.3951  0.1426  1.9240
   46MOL   C16710157   1.548   0.777   5.998 -0.4062  0.3201 -0.9000
   46MOL   C16810158   1.679   0.828   5.989  0.1176 -0.1683 -0.3800
   46MOL   C16910159   1.789   0.738   5.998  0.3309 -0.5574 -0.2313
   46MOL   C17010160   1.767   0.596   6.000  0.1648 -0.2084 -0.3237
   46MOL   C17110161   1.637   0.552   6.009 -0.0373  0.3419 -0.1184
   46MOL   C17210162   1.528   0.638   6.013 -0.3125  0.1634  0.0939
   46MOL   O17310163   1.409   0.576   6.034 -0.1571 -0.3855 -0.3063
   46MOL   H17410164   1.466   0.847   6.008 -1.0347 -0.6471  0.8331
   46MOL   H17510165   1.692   0.933   5.970  1.5821 -0.2287  0.2383
   46MOL   H17610166   1.846   0.522   6.003 -0.6652 -1.4014 -4.0455
   46MOL   H17710167   1.624   0.447   6.031  0.4099  0.1595 -0.7159
   46MOL   C17810168   1.122   0.747   6.198 -0.4716 -0.0102  0.0473
   46MOL   C17910169   1.246   0.677   6.171  0.5187 -0.5480 -0.2377
   46MOL   C18010170   1.293   0.651   6.048  0.4987 -0.2053  0.3482
   46MOL   C18110171   1.217   0.695   5.940 -0.5080 -0.1500  0.5358
   46MOL   C18210172   1.097   0.765   5.964  0.1035  0.2926 -0.3376
   46MOL   C18310173   1.045   0.794   6.091  0.3261  0.1316 -0.2689
   46MOL   O18410174   0.941   0.884   6.114 -0.7014 -0.5018  0.0843
   46MOL   H18510175   1.091   0.762   6.300 -1.5123  0.7511 -0.3826
   46MOL   H18610176   1.317   0.661   6.252 -1.4158  2.2887  2.1251
   46MOL   H18710177   1.250   0.679   5.838 -0.8770  0.8393  0.2602
   46MOL   H18810178   1.045   0.808   5.880 -2.9860 -0.4908  1.1139
   46MOL   C18910179   0.584   0.795   6.145 -0.1268 -0.4766  0.7525
   46MOL   C19010180   0.725   0.797   6.169 -1.3428 -0.6852  0.4284
   46MOL   C19110181   0.813   0.848   6.076  0.2870  0.2125  0.1439
   46MOL   C19210182   0.768   0.874   5.942 -0.1577  0.1596  0.6520
   46MOL   C19310183   0.635   0.862   5.912 -0.3142 -0.3154  0.3950
   46MOL   C19410184   0.540   0.830   6.011  0.1799 -0.1164 -0.1637
   46MOL   O19510185   0.403   0.822   5.985 -0.5767 -0.4263 -0.0350
   46MOL   H19610186   0.509   0.777   6.221 -0.5233  0.7311  0.6587
   46MOL   H19710187   0.761   0.798   6.270 -0.2498 -0.8547  0.0469
   46MOL   H19810188   0.850   0.905   5.878  0.0695 -1.7122  0.0207
   46MOL   H19910189   0.589   0.893   5.819 -0.1425 -1.1851  0.0100
   46MOL   C20010190   0.096   0.968   6.114  0.6247  0.2071 -0.2779
   46MOL   C20110191   0.187   0.873   6.064 -0.3286 -0.2869 -0.4347
   46MOL   C20210192   0.320   0.919   6.042 -0.3442 -0.2888  0.0399
   46MOL   C20310193   0.360   1.045   6.072  0.4907 -0.2204  0.1290
   46MOL   C20410194   0.268   1.138   6.130  0.2080 -0.7152  0.6374
   46MOL   C20510195   0.134   1.094   6.156  0.1082  0.3552 -0.4809
   46MOL   O20610196   0.046   1.168   6.223  0.1356 -0.4058  0.9576
   46MOL   H20710197   8.248   0.939   6.137 -0.0825  1.3825 -1.8725
   46MOL   H20810198   0.149   0.783   6.017  0.1774 -0.9284  0.3652
   46MOL   H20910199   0.461   1.077   6.051  0.3458 -0.3270 -0.7681
   46MOL   H21010200   0.292   1.240   6.156 -2.5037 -0.9510  4.6219
   46MOL   C21110201   0.171   1.298   6.542 -0.9064 -0.8017  0.6238
   46MOL   C21210202   0.121   1.208   6.448 -0.1485  0.3093 -0.8346
   46MOL   C21310203   0.093   1.250   6.318  0.0160 -1.1212 -0.3916
   46MOL   C21410204   0.107   1.388   6.291  0.2470 -0.4188  0.6830
   46MOL   C21510205   0.144   1.482   6.391 -0.1589 -0.2699  0.3523
   46MOL   C21610206   0.177   1.438   6.520 -1.3835  0.1384  0.4946
   46MOL   O21710207   0.219   1.523   6.617 -0.1459  0.0237  0.0737
   46MOL   H21810208   0.187   1.258   6.641 -1.3528 -1.4437  0.4336
   46MOL   H21910209   0.092   1.107   6.474 -0.5079  0.7706  0.5794
   46MOL   H22010210   0.082   1.416   6.190 -0.9654 -0.1244  1.0556
   46MOL   H22110211   0.142   1.589   6.375 -1.3050 -0.2971  0.2644
   46MOL   H22210212   0.224   1.479   6.700 -1.4311 -3.2246 -1.5077
   47MOL     C110213   0.605   0.924   6.587  0.0714 -0.2793  0.6881
   47MOL     C210214   0.709   1.017   6.544  0.1831 -0.8860 -0.2963
   47MOL     C310215   0.685   1.107   6.431 -0.4921  0.8119 -0.2937
   47MOL     C410216   0.558   1.111   6.370 -0.2222  0.6463  0.6470
   47MOL     C510217   0.457   1.026   6.422 -0.3740 -0.8150  0.9519
   47MOL     C610218   0.477   0.936   6.532  0.4544 -0.0918  0.8177
   47MOL     O710219   0.374   0.859   6.580 -0.3443  0.8864 -0.7998
   47MOL     H810220   0.621   0.851   6.664 -1.3064 -0.9978  0.3045
   47MOL     H910221   0.810   1.014   6.583 -0.2345 -1.2545  0.7637
   47MOL    H1010222   0.548   1.182   6.289  2.7600 -0.6783 -0.9406
   47MOL    H1110223   0.359   1.030   6.375  0.4579 -1.6253 -0.8951
   47MOL    H1210224   0.768   1.166   6.395  0.9467 -1.3951 -0.6761
   47MOL    C1310225   0.206   0.676   6.315 -0.3876  0.2402  0.1682
   47MOL    C1410226   0.235   0.777   6.405  0.5481 -0.1764  0.5146
   47MOL    C1510227   0.338   0.761   6.499  0.2830  1.2937  0.3652
   47MOL    C1610228   0.406   0.636   6.515 -0.6923 -0.5413 -0.5805
   47MOL    C1710229   0.375   0.536   6.428 -0.5309 -0.3800 -0.8150
   47MOL    C1810230   0.282   0.557   6.326 -0.0790 -0.2225 -0.2813
   47MOL    O1910231   0.259   0.452   6.245 -0.8909  0.0076  0.3683
   47MOL    H2010232   0.133   0.698   6.238 -1.9353 -1.8009  1.0238
   47MOL    H2110233   0.179   0.869   6.394 -0.3100 -0.7779 -0.1858
   47MOL    H2210234   0.478   0.631   6.595 -0.6444  2.2252 -0.3937
   47MOL    H2310235   0.429   0.442   6.434 -1.7281 -0.9463  2.5622
   47MOL    C2410236   0.434   0.435   5.917 -0.6380  0.1709 -0.3148
   47MOL    C2510237   0.412   0.446   6.056 -0.0943  0.6658  0.6647
   47MOL    C2610238   0.287   0.474   6.108  0.0660  0.3469  0.1586
   47MOL    C2710239   0.176   0.497   6.024  0.0039 -0.6790  0.0573
   47MOL    C2810240   0.193   0.480   5.884  0.3182 -0.3409  0.0799
   47MOL    C2910241   0.321   0.452   5.833 -0.3066  0.0195 -0.1319
   47MOL    O3010242   0.338   0.437   5.700  0.0649  0.0426 -0.1879
   47MOL    H3110243   0.530   0.401   5.880 -1.4252 -0.6241 -1.6632
   47MOL    H3210244   0.498   0.419   6.115 -0.5002 -0.3086  0.8193
   47MOL    H3310245   0.083   0.517   6.074 -0.4169 -2.0098 -0.1702
   47MOL    H3410246   0.108   0.484   5.818 -0.9815 -3.9312  1.4204
   47MOL    C3510247   0.447   0.761   5.563  0.5999 -0.2947 -0.2208
   47MOL    C3610248   0.373   0.666   5.637 -0.8441 -0.1115  0.1903
   47MOL    C3710249   0.415   0.535   5.640  0.3439  0.2358 -0.0938
   47MOL    C3810250   0.535   0.497   5.574  0.5184 -0.8847 -0.2815
   47MOL    C3910251   0.607   0.591   5.499  0.6783 -0.5415 -0.2475
   47MOL    C4010252   0.560   0.727   5.488 -0.4834 -0.2655  0.1973
   47MOL    O4110253   0.623   0.819   5.416  0.2475  0.3804  0.0955
   47MOL    H4210254   0.407   0.861   5.557 -1.5487 -0.9217  2.4610
   47MOL    H4310255   0.286   0.692   5.697 -2.9834 -1.6753 -2.1448
   47MOL    H4410256   0.577   0.399   5.590  1.4366 -0.4971 -0.2790
   47MOL    H4510257   0.697   0.556   5.452 -0.2965 -1.3326 -1.5728
   47MOL    C4610258   0.679   0.680   5.074  0.0774 -0.8325  0.0794
   47MOL    C4710259   0.621   0.712   5.198 -0.1601 -0.4877  0.0179
   47MOL    C4810260   0.690   0.781   5.300 -0.4052  0.3051 -0.1105
   47MOL    C4910261   0.829   0.805   5.279 -0.6435 -1.2908  0.7344
   47MOL    C5010262   0.893   0.768   5.165 -0.8325 -0.3669  0.0786
   47MOL    C5110263   0.822   0.700   5.060  0.4192 -0.8072 -0.2604
   47MOL    O5210264   0.897   0.637   4.966  0.0445  0.6153  0.4415
   47MOL    H5310265   0.628   0.627   4.995 -0.0661 -2.6642  1.3779
   47MOL    H5410266   0.518   0.689   5.220 -0.1926 -1.0805 -0.7272
   47MOL    H5510267   0.885   0.850   5.360 -2.0232  0.1088  0.9662
   47MOL    H5610268   1.000   0.770   5.155 -0.9815  0.8655 -1.4378
   47MOL    C5710269   0.848   0.832   4.658  0.5610 -0.2120 -0.2941
   47MOL    C5810270   0.869   0.805   4.794 -0.0378 -0.0583 -0.3994
   47MOL    C5910271   0.877   0.672   4.834 -0.1402 -0.2743 -0.9760
   47MOL    C6010272   0.861   0.566   4.747  0.1093  0.4490 -0.2249
   47MOL    C6110273   0.855   0.594   4.611  0.5688  0.0857  0.2155
   47MOL    C6210274   0.841   0.725   4.563 -0.2844  0.3213  0.3133
   47MOL    O6310275   0.837   0.759   4.428  0.5028 -0.2744 -0.0334
   47MOL    H6410276   0.853   0.935   4.627 -0.2325 -0.6642 -1.9646
   47MOL    H6510277   0.884   0.888   4.862  0.8678  1.3082 -2.2130
   47MOL    H6610278   0.857   0.463   4.779 -0.5828  0.9927  1.5565
   47MOL    H6710279   0.850   0.505   4.550 -0.5331 -0.6762  1.4076
   47MOL    C6810280   1.037   0.639   4.153  0.4926  0.1184  0.2190
   47MOL    C6910281   0.933   0.657   4.241 -0.1488  0.2741  0.7691
   47MOL    C7010282   0.947   0.730   4.355  0.2422 -0.6107  0.2147
   47MOL    C7110283   1.071   0.787   4.390 -0.5809 -0.0390 -0.0512
   47MOL    C7210284   1.181   0.774   4.302 -0.1158  0.8808 -0.1129
   47MOL    C7310285   1.165   0.701   4.185  0.0716 -0.5581 -0.5313
   47MOL    O7410286   1.271   0.681   4.097  1.2938 -1.0361  0.6429
   47MOL    H7510287   1.025   0.583   4.062 -1.2959 -2.2848  1.8492
   47MOL    H7610288   0.838   0.607   4.231  1.1923 -2.3996  0.8661
   47MOL    H7710289   1.089   0.846   4.478  1.1615 -0.0649 -0.3716
   47MOL    H7810290   1.282   0.813   4.312  0.7370 -1.3697  0.4151
   47MOL    C7910291   1.564   0.566   4.291  0.3754 -1.0498  0.6773
   47MOL    C8010292   1.437   0.564   4.231  0.0960  0.1497 -0.1712
   47MOL    C8110293   1.397   0.658   4.136 -0.0205  0.1278  0.1327
   47MOL    C8210294   1.494   0.739   4.088 -0.4635  0.2028 -1.0636
   47MOL    C8310295   1.626   0.738   4.126  0.4255  0.1143 -0.6926
   47MOL    C8410296   1.667   0.643   4.225  0.3286 -0.5097  0.0069
   47MOL    O8510297   1.795   0.628   4.269  0.3305  0.1022  0.2275
   47MOL    H8610298   1.584   0.505   4.378  0.0404 -3.4370 -0.8528
   47MOL    H8710299   1.365   0.490   4.260 -0.5154 -0.1637 -2.3940
   47MOL    H8810300   1.471   0.800   4.002 -0.5367  0.7595 -0.6484
   47MOL    H8910301   1.697   0.804   4.078  2.9789 -1.0935  1.2898
   47MOL    C9010302   1.984   0.703   4.577  0.0262  0.5052 -0.7164
   47MOL    C9110303   1.940   0.642   4.460 -0.0269 -0.0518  0.2713
   47MOL    C9210304   1.830   0.689   4.385 -0.3444  0.2415 -1.3073
   47MOL    C9310305   1.763   0.800   4.429 -0.2807  0.1191 -0.3651
   47MOL    C9410306   1.789   0.852   4.559 -0.3457 -0.2800  0.1503
   47MOL    C9510307   1.902   0.803   4.626 -0.1628  0.7590  0.2014
   47MOL    O9610308   1.920   0.852   4.755  1.3915 -0.1639  0.8279
   47MOL    H9710309   2.078   0.683   4.626 -1.3618 -0.5519  1.6159
   47MOL    H9810310   1.984   0.553   4.418  0.4459  0.2931  0.0217
   47MOL    H9910311   1.691   0.853   4.368 -1.8498 -1.3247  0.1876
   47MOL   H10010312   1.732   0.933   4.602  1.0118  0.1684  1.1112
   47MOL   C10110313   1.942   1.202   4.839  0.4263 -1.0449  0.5443
   47MOL   C10210314   1.892   1.083   4.789  0.4057 -0.8895 -0.3015
   47MOL   C10310315   1.976   0.971   4.779  0.0239 -0.4033 -0.0682
   47MOL   C10410316   2.113   0.982   4.803  0.3868  0.1220  0.5072
   47MOL   C10510317   2.164   1.103   4.852 -0.1029 -0.6941 -0.3679
   47MOL   C10610318   2.079   1.217   4.869  0.6886 -0.0543 -0.6379
   47MOL   O10710319   2.119   1.343   4.915 -0.4928  0.0143  0.6542
   47MOL   H10810320   1.868   1.281   4.843  0.5820 -0.9096  0.7984
   47MOL   H10910321   1.787   1.073   4.765 -0.4088  1.5577  1.9377
   47MOL   H11010322   2.177   0.896   4.799  1.9693  1.3116 -0.4370
   47MOL   H11110323   2.270   1.107   4.872 -0.0798 -1.7234 -0.2563
   47MOL   C11210324   2.182   1.616   4.677  0.2478 -0.4376  0.1969
   47MOL   C11310325   2.118   1.529   4.768  0.4263  0.5986 -0.0344
   47MOL   C11410326   2.193   1.423   4.839  0.0173 -0.3706  0.3731
   47MOL   C11510327   2.332   1.410   4.812  0.2605 -0.2849  0.9345
   47MOL   C11610328   2.396   1.502   4.724 -0.3137 -0.2393 -0.2910
   47MOL   C11710329   2.321   1.604   4.658 -0.3027  0.2864  0.1823
   47MOL   O11810330   2.378   1.700   4.584 -0.0161 -0.2228  0.1411
   47MOL   H11910331   2.128   1.694   4.626 -0.9506 -0.3433  1.5991
   47MOL   H12010332   2.015   1.542   4.800  0.6406  1.1523  0.4349
   47MOL   H12110333   2.387   1.337   4.869 -0.7561  0.3300  2.7503
   47MOL   H12210334   2.503   1.488   4.729 -0.3925 -0.5042  1.0525
   47MOL   C12310335   2.665   1.677   4.352 -0.9341 -0.3381 -0.2112
   47MOL   C12410336   2.582   1.723   4.454 -0.3553  0.3735  0.2683
   47MOL   C12510337   2.459   1.654   4.481  0.8495 -0.2928 -0.4016
   47MOL   C12610338   2.417   1.561   4.393 -0.0887  0.3086  0.1409
   47MOL   C12710339   2.498   1.519   4.291  0.4966 -0.2884  0.5952
   47MOL   C12810340   2.627   1.575   4.266 -0.0726  0.8660  0.5531
   47MOL   O12910341   2.705   1.527   4.164 -0.1973  0.7268  0.2293
   47MOL   H13010342   2.763   1.714   4.323 -0.8141 -0.7122 -0.2808
   47MOL   H13110343   2.613   1.796   4.528  2.1566  1.1774 -1.4981
   47MOL   H13210344   2.320   1.513   4.392 -0.1340  0.3559 -3.0198
   47MOL   H13310345   2.455   1.442   4.228  1.6362  1.5900 -2.5915
   47MOL   C13410346   3.053   1.402   4.149 -0.4570  0.4499  0.1157
   47MOL   C13510347   2.930   1.462   4.110 -0.4527 -0.4462  0.6913
   47MOL   C13610348   2.820   1.462   4.201 -0.0585  0.3948  0.2957
   47MOL   C13710349   2.840   1.399   4.328 -0.0373  0.2312 -0.3696
   47MOL   C13810350   2.962   1.336   4.361  0.2307  0.1710  0.2697
   47MOL   C13910351   3.066   1.326   4.270  0.4755  0.2230  0.0667
   47MOL   O14010352   3.185   1.271   4.309  0.5232 -0.2733 -0.0662
   47MOL   H14110353   3.140   1.391   4.086 -0.7857  0.9780 -0.4402
   47MOL   H14210354   2.919   1.514   4.015 -1.4140 -2.9044 -0.5813
   47MOL   H14310355   2.760   1.397   4.401 -0.1408  0.2811 -0.4796
   47MOL   H14410356   2.967   1.292   4.460  2.9367 -2.7316 -1.0940
   47MOL   C14510357   3.225   0.921   4.408 -0.2478 -0.0889 -0.3158
   47MOL   C14610358   3.189   1.057   4.406  0.9907 -0.0299 -0.4425
   47MOL   C14710359   3.204   1.134   4.292  0.4241 -1.0180 -0.3458
   47MOL   C14810360   3.254   1.076   4.176 -0.1157  0.4726  0.2377
   47MOL   C14910361   3.285   0.938   4.175 -0.1006 -0.0554  0.4834
   47MOL   C15010362   3.275   0.861   4.294 -0.4739 -0.1369 -0.2084
   47MOL   O15110363   3.315   0.726   4.299 -0.0947  0.1834  0.3508
   47MOL   H15210364   3.218   0.872   4.504 -1.4402 -0.0703 -0.3954
   47MOL   H15310365   3.151   1.105   4.495 -0.6696 -0.6272 -0.8009
   47MOL   H15410366   3.271   1.138   4.089 -0.1394 -0.6514 -0.5682
   47MOL   H15510367   3.335   0.889   4.092  1.6210 -0.0317  1.4904
   47MOL   C15610368   3.638   0.769   4.481  0.4115 -0.5786  0.7570
   47MOL   C15710369   3.529   0.795   4.396 -0.4152 -0.1310  0.2429
   47MOL   C15810370   3.419   0.707   4.385  0.0605 -0.7980  0.3731
   47MOL   C15910371   3.428   0.582   4.457 -0.3613  0.2704 -0.5246
   47MOL   C16010372   3.543   0.557   4.538  0.1439  0.6421  0.0432
   47MOL   C16110373   3.644   0.651   4.552  0.6580 -0.1742  0.0518
   47MOL   O16210374   3.755   0.614   4.621 -0.5510 -0.2435  0.0578
   47MOL   H16310375   3.715   0.845   4.486 -2.8454  2.9164  0.1555
   47MOL   H16410376   3.528   0.891   4.347  2.0279 -1.2496 -2.0682
   47MOL   H16510377   3.341   0.517   4.452 -0.0697 -0.5274  3.2229
   47MOL   H16610378   3.566   0.465   4.588  1.4675  0.9266 -0.0093
   47MOL   C16710379   3.721   0.659   4.981  0.3654  0.4295 -0.0107
   47MOL   C16810380   3.702   0.609   4.855 -0.2192  0.7787 -0.5888
   47MOL   C16910381   3.773   0.661   4.749  0.3940 -0.7786 -0.1502
   47MOL   C17010382   3.858   0.772   4.765 -0.0574  0.1460 -0.3682
   47MOL   C17110383   3.884   0.825   4.893 -0.1458 -0.5702 -0.8128
   47MOL   C17210384   3.820   0.761   5.003 -0.1220  0.0764 -0.4808
   47MOL   O17310385   3.840   0.792   5.130  0.1021  0.2084 -0.7453
   47MOL   H17410386   3.671   0.606   5.062 -0.9521  0.5792 -0.7109
   47MOL   H17510387   3.633   0.526   4.847  1.0379 -0.3556  0.2517
   47MOL   H17610388   3.895   0.818   4.674 -0.4002 -0.7089 -0.9491
   47MOL   H17710389   3.957   0.902   4.912 -0.5218 -0.6685  1.1617
   47MOL   C17810390   4.185   0.736   5.226  0.4704  0.1843  0.7286
   47MOL   C17910391   4.053   0.712   5.199  0.2634  0.7861 -0.0042
   47MOL   C18010392   3.967   0.819   5.170 -0.6395 -0.0153  0.3605
   47MOL   C18110393   4.007   0.950   5.203  0.0722 -0.2799 -0.6288
   47MOL   C18210394   4.139   0.978   5.249 -0.4381 -0.7243  0.2398
   47MOL   C18310395   4.227   0.870   5.253  0.6384 -0.9399 -0.6877
   47MOL   O18410396   4.356   0.903   5.272  0.3966 -0.2516  0.6778
   47MOL   H18510397   4.257   0.656   5.229 -0.5560 -0.8212 -0.9541
   47MOL   H18610398   4.027   0.607   5.189 -0.7016  0.6396  3.4832
   47MOL   H18710399   3.940   1.032   5.183  1.1197  0.4536 -1.1790
   47MOL   H18810400   4.167   1.080   5.268  1.3451 -0.4909 -3.2425
   47MOL   C18910401   4.418   0.891   5.633 -0.2253 -0.1349  0.1189
   47MOL   C19010402   4.373   0.857   5.509  0.1571  0.4756  0.5057
   47MOL   C19110403   4.406   0.937   5.393 -0.5698  0.2966 -0.2043
   47MOL   C19210404   4.478   1.054   5.410  0.0817 -0.0130 -0.0849
   47MOL   C19310405   4.521   1.093   5.537 -0.3927  0.1683  0.2033
   47MOL   C19410406   4.500   1.007   5.646 -0.3741  0.3413  0.0083
   47MOL   O19510407   4.554   1.033   5.772 -0.3214 -0.0634  0.8839
   47MOL   H19610408   4.400   0.829   5.720 -1.3551  1.3719  0.9958
   47MOL   H19710409   4.312   0.769   5.491 -0.3701  0.9328  0.0221
   47MOL   H19810410   4.487   1.122   5.326  0.6461 -0.3226 -0.2765
   47MOL   H19910411   4.582   1.182   5.540  1.5662 -1.1409  0.1925
   47MOL   C20010412   4.814   0.841   5.949  0.1411 -0.1111  0.0994
   47MOL   C20110413   4.691   0.900   5.915 -0.1506 -0.0918 -0.5322
   47MOL   C20210414   4.672   0.964   5.789  0.5543 -0.8670 -0.6647
   47MOL   C20310415   4.782   0.972   5.703  0.0414  0.1171 -0.5661
   47MOL   C20410416   4.891   0.890   5.730  0.3593 -0.1649  0.1768
   47MOL   C20510417   4.905   0.818   5.844  0.7385  0.4141  0.3009
   47MOL   O20610418   5.016   0.734   5.857  0.0463 -0.3397 -0.1519
   47MOL   H20710419   4.827   0.792   6.044  0.0589  0.0748  0.2045
   47MOL   H20810420   4.613   0.910   5.989  0.6880 -1.4067  0.5476
   47MOL   H20910421   4.794   1.025   5.610  1.0330  0.2113 -0.4003
   47MOL   H21010422   4.964   0.874   5.653 -0.8450 -0.9706 -0.8097
   47MOL   C21110423   5.110   0.464   5.619 -0.9512 -0.0617  0.0970
   47MOL   C21210424   5.114   0.585   5.689  0.1438  0.3223 -0.1719
   47MOL   C21310425   5.016   0.615   5.790 -0.2454  0.6334  0.1988
   47MOL   C21410426   4.924   0.515   5.820 -0.6029  0.2558  0.6816
   47MOL   C21510427   4.922   0.394   5.752  0.3135 -0.0601  0.0798
   47MOL   C21610428   5.018   0.364   5.656  0.1429  0.1518  0.0611
   47MOL   O21710429   5.027   0.239   5.597 -0.0520  0.2045  0.7900
   47MOL   H21810430   5.185   0.459   5.541 -2.3268 -0.5369 -1.2087
   47MOL   H21910431   5.195   0.653   5.667  1.2721 -0.6100  0.9975
   47MOL   H22010432   4.860   0.523   5.907 -1.1380 -0.4086  0.3512
   47MOL   H22110433   4.848   0.320   5.777 -0.3948  0.8097  0.5748
   47MOL   H22210434   5.110   0.217   5.559 -0.7092 -0.8481 -0.0619
   48MOL     C110435   1.186   6.482   2.655 -0.0645 -0.0888  0.5186
   48MOL     C210436   1.297   6.503   2.747  0.1604  0.4648 -0.0228
   48MOL     C310437   1.408   6.422   2.734 -0.0167  0.7349 -0.0564
   48MOL     C410438   1.410   6.312   2.649 -0.3143  0.3360 -0.2995
   48MOL     C510439   1.304   6.293   2.554 -0.2694 -0.1026 -0.1044
   48MOL     C610440   1.189   6.383   2.559 -0.4913  0.9264  0.2221
   48MOL     O710441   1.088   6.371   2.476 -0.2147 -0.2954 -0.1823
   48MOL     H810442   1.101   6.547   2.667 -0.4043 -0.2165 -1.0640
   48MOL     H910443   1.303   6.572   2.829  0.8316  1.3027 -0.7781
   48MOL    H1010444   1.501   6.256   2.642 -0.5557 -0.4947  2.6046
   48MOL    H1110445   1.299   6.217   2.477 -2.2052 -0.0371 -0.0767
   48MOL    H1210446   1.490   6.440   2.802 -1.9201 -0.3000  2.6203
   48MOL    C1310447   0.934   6.071   2.627 -0.3588  0.6047 -0.4594
   48MOL    C1410448   1.004   6.188   2.619  0.5126  0.0927 -0.5947
   48MOL    C1510449   0.997   6.267   2.498 -0.3624 -0.5790  0.4093
   48MOL    C1610450   0.916   6.219   2.392  0.4961  0.0004  0.0034
   48MOL    C1710451   0.839   6.102   2.405  0.7367 -0.0087 -0.1778
   48MOL    C1810452   0.844   6.032   2.525  0.6978  0.4806 -0.2233
   48MOL    O1910453   0.773   5.912   2.536  0.1693 -0.1884 -0.1134
   48MOL    H2010454   0.933   6.012   2.717 -1.5082  2.0171  0.4712
   48MOL    H2110455   1.073   6.201   2.700  0.1454  1.2165 -0.4613
   48MOL    H2210456   0.930   6.257   2.292  1.6703 -0.9251 -0.1925
   48MOL    H2310457   0.774   6.066   2.328  0.0011 -0.1368  0.4952
   48MOL    C2410458   0.864   5.570   2.580  0.8757  0.0438 -0.4567
   48MOL    C2510459   0.800   5.694   2.596  0.0609 -0.7522 -0.0578
   48MOL    C2610460   0.834   5.796   2.507 -0.7710 -0.2892 -0.3294
   48MOL    C2710461   0.916   5.771   2.396  0.4565 -0.4237 -0.6979
   48MOL    C2810462   0.976   5.648   2.372  0.0664 -0.0482  0.2038
   48MOL    C2910463   0.949   5.548   2.466 -0.3352  0.2663  0.0956
   48MOL    O3010464   1.003   5.421   2.459 -0.0970 -0.3025  0.0236
   48MOL    H3110465   0.846   5.494   2.655 -1.9165  1.1529  0.0418
   48MOL    H3210466   0.729   5.712   2.675  1.2898  0.0281  0.8988
   48MOL    H3310467   0.937   5.845   2.320 -0.6189 -1.0550 -1.6160
   48MOL    H3410468   1.047   5.635   2.292  2.5927 -0.9449  2.5205
   48MOL    C3510469   1.091   5.164   2.215 -0.4493 -0.0188 -0.3663
   48MOL    C3610470   1.098   5.255   2.323  0.0011 -0.3251  0.2182
   48MOL    C3710471   1.000   5.350   2.342 -0.4560 -0.5853  0.1239
   48MOL    C3810472   0.884   5.350   2.255  0.6188  0.0095 -0.2857
   48MOL    C3910473   0.871   5.258   2.149 -0.2445  0.3737  0.1400
   48MOL    C4010474   0.981   5.168   2.131  0.4417  0.3204  0.2824
   48MOL    O4110475   0.989   5.091   2.019  0.6758  0.0914  0.4974
   48MOL    H4210476   1.170   5.095   2.187 -0.6798 -0.1376 -0.7216
   48MOL    H4310477   1.178   5.262   2.395  0.0801  0.6923  0.0427
   48MOL    H4410478   0.803   5.412   2.290  2.2685  1.6036  0.7993
   48MOL    H4510479   0.786   5.254   2.083  1.4563 -0.5926 -2.0679
   48MOL    C4610480   0.733   4.851   1.922 -0.4223  0.2440 -0.9867
   48MOL    C4710481   0.815   4.965   1.917 -0.6942 -0.1217  0.8201
   48MOL    C4810482   0.915   4.974   2.016  0.1688  0.0135 -0.6079
   48MOL    C4910483   0.936   4.871   2.106  0.1243  0.2903  0.2741
   48MOL    C5010484   0.845   4.763   2.115 -0.7477  1.2322 -0.0503
   48MOL    C5110485   0.744   4.752   2.022  0.1713 -0.5499  0.5406
   48MOL    O5210486   0.656   4.651   2.011  0.4077  0.3652 -0.1769
   48MOL    H5310487   0.662   4.842   1.841 -0.0491 -0.0676 -1.2775
   48MOL    H5410488   0.804   5.037   1.838  2.3508 -0.5616 -0.0837
   48MOL    H5510489   1.018   4.888   2.175  1.7627 -0.5385 -1.4335
   48MOL    H5610490   0.850   4.679   2.183  1.9136  1.0704 -0.3928
   48MOL    C5710491   0.607   4.294   1.924  0.2155  0.2562 -0.4159
   48MOL    C5810492   0.581   4.432   1.949  0.0207 -0.2625 -0.4357
   48MOL    C5910493   0.691   4.527   1.966 -0.4464 -0.3723  0.4793
   48MOL    C6010494   0.824   4.487   1.930  0.5765 -0.1479  0.1067
   48MOL    C6110495   0.845   4.354   1.887  0.7469 -0.0584  0.9754
   48MOL    C6210496   0.739   4.256   1.887 -0.4562 -0.4904 -0.3531
   48MOL    O6310497   0.769   4.130   1.838 -0.5971  0.0636  0.5118
   48MOL    H6410498   0.524   4.226   1.919  1.5582 -1.3300 -1.4213
   48MOL    H6510499   0.482   4.457   1.984 -0.3375  1.3724 -2.5246
   48MOL    H6610500   0.901   4.563   1.930  1.0746 -0.6356  1.6750
   48MOL    H6710501   0.942   4.315   1.859  1.2645  1.8565 -0.0029
   48MOL    C6810502   0.911   4.148   1.499  0.1771 -0.1965 -0.5614
   48MOL    C6910503   0.833   4.171   1.613 -0.2427  0.1628  0.0838
   48MOL    C7010504   0.860   4.121   1.737  0.2890  0.6011  0.3435
   48MOL    C7110505   0.975   4.039   1.748 -0.9034 -0.5094  0.4713
   48MOL    C7210506   1.064   4.021   1.637  0.1963 -1.2425  0.1847
   48MOL    C7310507   1.027   4.076   1.509  0.5517 -0.2203  0.7358
   48MOL    O7410508   1.115   4.043   1.408  1.1384 -0.0494 -0.4996
   48MOL    H7510509   0.878   4.186   1.403  1.6931  0.5931 -0.7906
   48MOL    H7610510   0.746   4.234   1.599 -1.2086 -1.2661 -0.4712
   48MOL    H7710511   0.996   3.988   1.841  2.8165  1.0740  0.5433
   48MOL    H7810512   1.155   3.964   1.653  1.2950  0.8282  1.5377
   48MOL    C7910513   1.096   4.066   1.034  0.1166 -0.0148  0.4565
   48MOL    C8010514   1.129   4.099   1.167  0.0936  0.6607 -0.8625
   48MOL    C8110515   1.071   4.026   1.276 -0.0471 -1.0504  0.1303
   48MOL    C8210516   0.978   3.928   1.241  0.2118 -0.0304  0.9211
   48MOL    C8310517   0.935   3.905   1.111  0.2909  0.4550 -0.3704
   48MOL    C8410518   0.992   3.972   1.004  1.1257 -0.4352  0.2134
   48MOL    O8510519   0.958   3.941   0.877  0.0933 -0.4919 -0.4872
   48MOL    H8610520   1.136   4.138   0.965  0.6990  0.0630  0.8676
   48MOL    H8710521   1.191   4.187   1.178  1.8298 -0.8864  2.5647
   48MOL    H8810522   0.922   3.867   1.310  1.5354 -1.6714  0.5890
   48MOL    H8910523   0.862   3.827   1.102  0.1323  0.6655 -0.8927
   48MOL    C9010524   0.941   4.208   0.610  0.1730  0.0091 -0.5804
   48MOL    C9110525   0.902   4.128   0.727 -0.2653 -0.0522 -1.0541
   48MOL    C9210526   0.989   4.026   0.779 -0.0423 -0.2185 -0.3242
   48MOL    C9310527   1.114   4.008   0.720  0.4108  0.2821 -0.6072
   48MOL    C9410528   1.153   4.087   0.612  0.5164  0.4327  0.4698
   48MOL    C9510529   1.067   4.184   0.550 -0.2265 -0.0295  0.5248
   48MOL    O9610530   1.111   4.254   0.436  0.5235  0.2081 -0.4856
   48MOL    H9710531   0.880   4.292   0.580  0.7091  0.2800 -0.9165
   48MOL    H9810532   0.806   4.152   0.770 -1.5064 -1.8270 -2.7097
   48MOL    H9910533   1.169   3.928   0.766  0.1253 -0.0795 -0.8905
   48MOL   H10010534   1.251   4.075   0.569  0.2006 -1.5755  0.2454
   48MOL   C10110535   0.959   4.136   0.116 -0.1858 -0.7454  0.2843
   48MOL   C10210536   0.984   4.209   0.234  0.4298  0.1498  0.1204
   48MOL   C10310537   1.088   4.181   0.321 -0.0996 -0.5762 -0.0926
   48MOL   C10410538   1.171   4.072   0.286  0.2164 -0.0514  0.1533
   48MOL   C10510539   1.148   3.997   0.164 -0.2963 -0.2550 -0.8648
   48MOL   C10610540   1.041   4.030   0.084  0.2734 -0.4528 -0.3339
   48MOL   O10710541   1.011   3.952   8.226  0.6130  0.4918  0.3222
   48MOL   H10810542   0.882   4.165   0.045 -0.3748  1.4095  1.3331
   48MOL   H10910543   0.919   4.295   0.238 -0.1525 -0.2415 -0.6560
   48MOL   H11010544   1.261   4.043   0.337  1.8229  1.4404 -1.7605
   48MOL   H11110545   1.218   3.921   0.132  0.4282 -1.0136  2.3016
   48MOL   C11210546   1.288   3.956   7.986  0.0155 -0.4763 -0.7771
   48MOL   C11310547   1.176   4.001   8.060  1.0343  0.1838  0.1212
   48MOL   C11410548   1.114   3.907   8.149  0.1423 -0.6621  0.4512
   48MOL   C11510549   1.165   3.777   8.154 -0.4697  0.1745 -0.2636
   48MOL   C11610550   1.273   3.731   8.077 -0.3169 -0.9551  0.1092
   48MOL   C11710551   1.337   3.823   7.987 -0.4598  0.2341  0.3521
   48MOL   O11810552   1.439   3.775   7.907  0.4115  0.4650 -0.2355
   48MOL   H11910553   1.339   4.032   7.927  0.1994  0.9677  1.1684
   48MOL   H12010554   1.153   4.105   8.078  0.1709 -0.1670  1.1174
   48MOL   H12110555   1.118   3.714   8.229 -1.0608  2.2911  1.2003
   48MOL   H12210556   1.321   3.634   8.084  0.1248 -0.6892  0.7924
   48MOL   C12310557   1.320   3.585   7.619  0.2033 -0.2301 -0.4237
   48MOL   C12410558   1.358   3.618   7.747  0.4708 -0.5986 -0.1992
   48MOL   C12510559   1.400   3.749   7.780  0.1695  0.2354  0.4224
   48MOL   C12610560   1.408   3.855   7.685  0.3005 -0.1982  0.6697
   48MOL   C12710561   1.372   3.817   7.549 -0.2639 -0.7012 -0.5480
   48MOL   C12810562   1.332   3.688   7.523 -0.0570 -0.2104 -0.1150
   48MOL   O12910563   1.307   3.640   7.395 -0.6117  0.1110  0.0225
   48MOL   H13010564   1.294   3.483   7.598  0.6878 -0.3242 -0.5806
   48MOL   H13110565   1.337   3.544   7.823 -1.4409  0.2274  0.1093
   48MOL   H13210566   1.434   3.956   7.715  2.5903 -0.8753  1.0748
   48MOL   H13310567   1.364   3.889   7.469  1.1436 -0.6556 -0.6638
   48MOL   C13410568   1.030   3.580   7.169  0.7908  0.3331  0.4357
   48MOL   C13510569   1.155   3.571   7.235 -0.0949  0.1936 -0.3492
   48MOL   C13610570   1.179   3.648   7.346  0.0999 -1.0302 -0.5392
   48MOL   C13710571   1.084   3.735   7.398  0.1136 -0.7555 -0.2212
   48MOL   C13810572   0.966   3.752   7.326 -0.0354  0.2294  0.3089
   48MOL   C13910573   0.939   3.671   7.215  0.1029 -0.2813 -0.0356
   48MOL   O14010574   0.819   3.695   7.155  0.1996  0.6316  0.2399
   48MOL   H14110575   1.006   3.525   7.078  1.8278  1.7803 -0.7357
   48MOL   H14210576   1.223   3.499   7.191 -1.4574 -0.8553 -0.7972
   48MOL   H14310577   1.091   3.794   7.488  0.0143 -0.0475 -0.6672
   48MOL   H14410578   0.899   3.828   7.362 -0.6417 -0.3186  0.3461
   48MOL   C14510579   0.757   4.029   7.019 -0.3384  0.6044 -0.4341
   48MOL   C14610580   0.778   3.927   7.116 -0.2225  0.8368  0.2544
   48MOL   C14710581   0.810   3.800   7.068 -0.2140 -0.1704  0.2929
   48MOL   C14810582   0.831   3.773   6.937 -0.2404 -0.3672 -0.2976
   48MOL   C14910583   0.791   3.870   6.837  0.5116  0.1829  0.0978
   48MOL   C15010584   0.757   3.998   6.884  0.1121  0.4875  0.6882
   48MOL   O15110585   0.717   4.090   6.797 -0.5093  0.2719  0.6135
   48MOL   H15210586   0.729   4.128   7.050  0.3616  1.5236 -2.6692
   48MOL   H15310587   0.782   3.940   7.223  1.5486 -1.0053  0.4430
   48MOL   H15410588   0.859   3.676   6.898  0.2231 -0.2151 -0.3414
   48MOL   H15510589   0.792   3.831   6.737 -1.4466 -1.3366  0.6386
   48MOL   C15610590   1.041   4.210   6.657  0.4461 -0.0983 -0.5043
   48MOL   C15710591   0.941   4.122   6.695 -0.6766  0.1645 -0.1653
   48MOL   C15810592   0.824   4.170   6.757 -0.0533 -0.1923  0.6613
   48MOL   C15910593   0.799   4.312   6.764  0.8582  0.3897 -0.4576
   48MOL   C16010594   0.901   4.398   6.726 -0.0993 -0.3084  0.1026
   48MOL   C16110595   1.022   4.348   6.678  0.5123  0.1823  0.2778
   48MOL   O16210596   1.130   4.426   6.640  0.0479  0.0622 -0.0251
   48MOL   H16310597   1.137   4.178   6.620  0.4305  0.2047 -0.8189
   48MOL   H16410598   0.957   4.017   6.679  1.2824  0.6165 -1.4559
   48MOL   H16510599   0.708   4.348   6.808  0.0319 -0.8560 -1.1192
   48MOL   H16610600   0.892   4.505   6.741  1.1733 -0.1348 -0.3283
   48MOL   C16710601   1.177   4.736   6.815 -0.2513 -0.8232  0.1850
   48MOL   C16810602   1.121   4.640   6.734 -0.1797 -0.2962  0.0885
   48MOL   C16910603   1.177   4.513   6.728 -0.5413  0.0330 -1.0724
   48MOL   C17010604   1.281   4.472   6.814 -0.1903 -0.0125  0.2684
   48MOL   C17110605   1.331   4.568   6.904  0.2211  0.7147  0.0430
   48MOL   C17210606   1.275   4.697   6.907  0.8075 -0.6671  0.5673
   48MOL   O17310607   1.308   4.783   7.004  0.2408 -0.4622 -0.0398
   48MOL   H17410608   1.141   4.838   6.816  1.1146 -0.3179 -1.0607
   48MOL   H17510609   1.044   4.676   6.667 -0.5929 -0.2573  0.5795
   48MOL   H17610610   1.328   4.375   6.812 -1.2539 -0.5201 -3.3310
   48MOL   H17710611   1.421   4.536   6.954 -0.1762  0.0439  0.3431
   48MOL   C17810612   1.468   5.115   7.034 -0.5845  0.2582  0.6716
   48MOL   C17910613   1.373   5.009   7.043 -0.3687  0.0260  0.1698
   48MOL   C18010614   1.399   4.885   6.985 -0.4529 -0.4733 -0.1637
   48MOL   C18110615   1.523   4.860   6.921  0.1743 -0.4856  0.2811
   48MOL   C18210616   1.615   4.964   6.913 -0.2187  0.0234  0.6389
   48MOL   C18310617   1.585   5.090   6.964 -0.3202 -0.5259 -0.2716
   48MOL   O18410618   1.676   5.194   6.957  0.3009  0.3260 -0.1157
   48MOL   H18510619   1.443   5.212   7.075 -2.9970 -0.1743  0.3324
   48MOL   H18610620   1.279   5.022   7.093 -0.7794 -0.1308 -0.5588
   48MOL   H18710621   1.548   4.759   6.891  0.8200 -0.1011 -0.4900
   48MOL   H18810622   1.708   4.956   6.858 -0.4225  3.4363 -0.2900
   48MOL   C18910623   1.596   5.408   6.668 -0.2722  0.5349 -0.0178
   48MOL   C19010624   1.568   5.321   6.774 -0.4449  0.5859 -0.0669
   48MOL   C19110625   1.676   5.267   6.845  0.2970  0.8014 -0.5030
   48MOL   C19210626   1.808   5.296   6.799  0.3353 -0.3108 -0.0685
   48MOL   C19310627   1.830   5.370   6.681 -0.1445 -0.1456 -0.9572
   48MOL   C19410628   1.724   5.431   6.620 -0.5477  0.1227 -0.0119
   48MOL   O19510629   1.749   5.502   6.507  0.4711  1.0868  0.0910
   48MOL   H19610630   1.509   5.447   6.617 -1.0224  0.6995  1.3669
   48MOL   H19710631   1.467   5.289   6.795 -1.0511 -0.1534 -3.8206
   48MOL   H19810632   1.893   5.259   6.853 -0.9979 -1.6286  1.1729
   48MOL   H19910633   1.931   5.385   6.647 -0.5064  1.1420 -1.5071
   48MOL   C20010634   2.027   5.736   6.456 -0.3618  0.3288 -0.2424
   48MOL   C20110635   1.960   5.615   6.468 -0.4347  0.1849  0.2583
   48MOL   C20210636   1.827   5.612   6.510  0.4688 -0.4776  0.0940
   48MOL   C20310637   1.758   5.730   6.528 -0.1041 -0.8176  0.1694
   48MOL   C20410638   1.829   5.851   6.525  0.3113 -0.1016  0.2882
   48MOL   C20510639   1.962   5.861   6.476 -0.2340 -1.0650  0.5202
   48MOL   O20610640   2.038   5.979   6.483  0.7459  0.1311 -0.2250
   48MOL   H20710641   2.132   5.740   6.434 -0.5150  0.9395 -0.8932
   48MOL   H20810642   2.005   5.523   6.435  1.1915  1.0323  0.0201
   48MOL   H20910643   1.651   5.722   6.542 -0.2698  1.2917  0.2677
   48MOL   H21010644   1.781   5.942   6.558  2.4214  1.2658 -0.2301
   48MOL   C21110645   2.397   5.939   6.449  0.4397  0.4832  0.0446
   48MOL   C21210646   2.265   5.954   6.506 -0.0823 -0.8750 -0.3148
   48MOL   C21310647   2.155   5.988   6.428 -0.0003 -0.4324 -0.1777
   48MOL   C21410648   2.175   6.018   6.289  0.0033  0.5041 -0.2459
   48MOL   C21510649   2.304   6.007   6.229  0.0508 -0.2369  0.0148
   48MOL   C21610650   2.411   5.963   6.306  0.0977 -0.5750 -0.7249
   48MOL   O21710651   2.535   5.943   6.251 -0.3282 -0.0236 -1.0168
   48MOL   H21810652   2.485   5.907   6.502 -0.1946  0.4280  1.0718
   48MOL   H21910653   2.255   5.926   6.610 -1.8515 -0.5766 -0.4009
   48MOL   H22010654   2.090   6.048   6.228 -1.3062  0.4673  1.5257
   48MOL   H22110655   2.315   6.015   6.121  0.2229 -0.9236 -0.0251
   48MOL   H22210656   2.588   5.915   6.324 -1.6969 -0.7323 -0.2844
   49MOL     C110657   4.883   4.784   5.942  0.0759  1.0967 -0.4099
   49MOL     C210658   4.993   4.836   6.016  0.4870  0.7809  0.2252
   49MOL     C310659   5.108   4.879   5.954 -0.2913  0.3469 -0.9857
   49MOL     C410660   5.123   4.860   5.816 -0.0455  0.9327  0.2142
   49MOL     C510661   5.012   4.799   5.742 -0.4713 -0.7809 -0.1236
   49MOL     C610662   4.894   4.763   5.808  0.5578 -0.0078  0.2038
   49MOL     O710663   4.790   4.697   5.742 -0.7935  0.7832  0.2058
   49MOL     H810664   4.792   4.757   5.992  0.6652 -0.3233 -0.0985
   49MOL     H910665   4.984   4.839   6.124 -1.8733 -0.9019  0.1057
   49MOL    H1010666   5.220   4.894   5.781  0.2938 -0.2729 -0.0383
   49MOL    H1110667   5.018   4.786   5.635  2.9560  1.7191 -0.3236
   49MOL    H1210668   5.182   4.933   6.012 -1.2935 -0.4583  1.0961
   49MOL    C1310669   4.609   4.961   5.560 -0.3483 -0.5628 -0.1333
   49MOL    C1410670   4.672   4.896   5.672 -0.5669  0.2397 -0.8849
   49MOL    C1510671   4.735   4.769   5.648  0.4803  0.0282  0.3887
   49MOL    C1610672   4.709   4.697   5.532  0.4014  1.1040  0.1382
   49MOL    C1710673   4.632   4.761   5.431  0.1178  0.4680  0.8661
   49MOL    C1810674   4.587   4.900   5.440 -0.3731  0.3243  0.6164
   49MOL    O1910675   4.510   4.965   5.349  0.0334  0.1007 -0.2424
   49MOL    H2010676   4.583   5.065   5.567  2.4136  0.0951  1.1661
   49MOL    H2110677   4.679   4.948   5.766  0.8434  0.5761 -1.1685
   49MOL    H2210678   4.740   4.595   5.514  1.7501  1.5952 -0.4668
   49MOL    H2310679   4.611   4.697   5.347 -0.8386  2.8886 -0.8110
   49MOL    C2410680   4.667   5.022   5.024  0.6707 -0.4733 -0.2757
   49MOL    C2510681   4.625   5.033   5.157 -0.0442 -0.4196  0.0015
   49MOL    C2610682   4.542   4.939   5.216  0.7435 -0.1268 -0.2047
   49MOL    C2710683   4.498   4.833   5.136  0.0162  0.3493  0.7242
   49MOL    C2810684   4.537   4.817   4.997 -0.0132  0.1675 -0.6922
   49MOL    C2910685   4.621   4.914   4.942 -0.6201  0.4238 -0.0100
   49MOL    O3010686   4.670   4.901   4.813 -0.6143  0.0685 -0.4635
   49MOL    H3110687   4.732   5.091   4.972  0.9446 -0.0931  0.5572
   49MOL    H3210688   4.646   5.119   5.219 -1.9065 -0.6950  1.0661
   49MOL    H3310689   4.435   4.750   5.164  0.9981 -0.5329  0.3455
   49MOL    H3410690   4.499   4.731   4.943 -1.9096  0.0681  0.7223
   49MOL    C3510691   4.423   5.034   4.582  0.8683 -0.4086 -0.1708
   49MOL    C3610692   4.494   4.945   4.665  0.4751  0.0693 -0.0810
   49MOL    C3710693   4.609   4.988   4.726  0.5496  0.1987 -0.4868
   49MOL    C3810694   4.654   5.117   4.709 -0.6531  0.2675 -0.3224
   49MOL    C3910695   4.593   5.201   4.618 -0.0332 -0.3085  0.3051
   49MOL    C4010696   4.477   5.160   4.553  0.4428 -0.4565  0.0166
   49MOL    O4110697   4.436   5.228   4.440 -0.7574  0.1998 -0.0801
   49MOL    H4210698   4.323   5.018   4.545 -0.2532 -0.8653  2.9307
   49MOL    H4310699   4.453   4.846   4.679  0.1415  0.3093  0.6626
   49MOL    H4410700   4.744   5.155   4.755  0.3409 -2.4644  0.1271
   49MOL    H4510701   4.630   5.300   4.596 -1.4529  0.2334  0.3290
   49MOL    C4610702   4.211   5.498   4.344  0.3160  0.2520 -0.1261
   49MOL    C4710703   4.303   5.394   4.342 -0.2510 -0.5890  0.1174
   49MOL    C4810704   4.347   5.328   4.453 -0.0550  0.5965  0.7467
   49MOL    C4910705   4.298   5.376   4.582 -0.1817 -0.1001  0.1971
   49MOL    C5010706   4.196   5.471   4.590  0.2596 -0.0756  0.2749
   49MOL    C5110707   4.150   5.537   4.469 -0.0757  0.3252 -0.4604
   49MOL    O5210708   4.073   5.653   4.477 -0.1397  0.4787 -0.0086
   49MOL    H5310709   4.178   5.562   4.263  0.7281  1.0889  0.3585
   49MOL    H5410710   4.345   5.352   4.252 -0.7847  0.0485 -0.4370
   49MOL    H5510711   4.329   5.337   4.677 -1.0482 -2.6241 -0.5254
   49MOL    H5610712   4.164   5.505   4.687  2.6618  2.5191  0.2363
   49MOL    C5710713   4.077   5.941   4.256 -0.1688 -0.2368  0.3607
   49MOL    C5810714   4.036   5.829   4.326  0.5210 -0.0371  0.8739
   49MOL    C5910715   4.115   5.768   4.418 -0.5861  0.4775  0.0260
   49MOL    C6010716   4.243   5.820   4.445  0.1528 -0.0944 -0.0689
   49MOL    C6110717   4.293   5.933   4.379 -0.4226 -0.1620 -0.1415
   49MOL    C6210718   4.208   5.993   4.281  0.1204  0.3204 -0.0685
   49MOL    O6310719   4.265   6.092   4.206 -0.0886 -0.1024 -0.3484
   49MOL    H6410720   4.014   5.991   4.184  0.9885 -2.6060 -2.3816
   49MOL    H6510721   3.936   5.794   4.306 -0.0202  1.8259  0.1539
   49MOL    H6610722   4.312   5.768   4.510 -0.4904 -0.1382  0.5892
   49MOL    H6710723   4.390   5.972   4.405 -0.3834 -0.7562  0.6316
   49MOL    C6810724   4.441   6.410   4.263 -0.2984 -0.7454 -0.4036
   49MOL    C6910725   4.404   6.283   4.213  0.3842 -0.2954 -0.0863
   49MOL    C7010726   4.299   6.211   4.265 -0.2438  0.5231  0.0336
   49MOL    C7110727   4.229   6.263   4.373 -0.6105 -0.5804 -0.4223
   49MOL    C7210728   4.249   6.398   4.409 -0.0314 -0.0698  0.1000
   49MOL    C7310729   4.362   6.472   4.356  0.2820  0.1501 -0.2905
   49MOL    O7410730   4.403   6.592   4.412 -0.0457  0.2267 -0.5268
   49MOL    H7510731   4.528   6.463   4.227 -1.4526  2.1119  0.8713
   49MOL    H7610732   4.458   6.230   4.136 -1.1087 -1.6225 -0.2504
   49MOL    H7710733   4.155   6.202   4.424  0.2198 -0.8713  0.4413
   49MOL    H7810734   4.178   6.436   4.482 -0.5222 -0.1330 -0.3427
   49MOL    C7910735   4.108   6.827   4.403 -0.7333  0.7064 -0.1223
   49MOL    C8010736   4.227   6.761   4.363 -0.4905  0.3858  0.0395
   49MOL    C8110737   4.295   6.666   4.451 -0.0825 -0.0433 -0.4331
   49MOL    C8210738   4.249   6.659   4.578  1.2775  0.0410 -0.5619
   49MOL    C8310739   4.132   6.725   4.620  0.0257 -0.0901 -0.3171
   49MOL    C8410740   4.059   6.810   4.531  0.2749 -0.6913 -0.0322
   49MOL    O8510741   3.930   6.850   4.553  0.1719  0.2569 -0.5454
   49MOL    H8610742   4.063   6.898   4.335 -0.0768  2.5614  1.3572
   49MOL    H8710743   4.276   6.784   4.270 -0.2546  1.4961  0.4242
   49MOL    H8810744   4.299   6.592   4.646  0.3168  0.2871  0.4118
   49MOL    H8910745   4.089   6.697   4.715  0.4424  0.3066 -0.0124
   49MOL    C9010746   3.767   6.887   4.877 -0.2579  0.2466  0.3316
   49MOL    C9110747   3.815   6.826   4.763  0.0183  0.2023 -0.6603
   49MOL    C9210748   3.895   6.904   4.675  0.7239  0.2973 -0.6957
   49MOL    C9310749   3.927   7.037   4.705 -0.0109  0.3368 -0.8383
   49MOL    C9410750   3.881   7.098   4.820  0.1254 -0.3503 -0.4487
   49MOL    C9510751   3.798   7.018   4.908  0.5583 -0.1183 -0.3759
   49MOL    O9610752   3.751   7.072   5.022  0.3819 -0.0770  1.0033
   49MOL    H9710753   3.711   6.834   4.953  0.3514 -2.3207 -0.9598
   49MOL    H9810754   3.800   6.723   4.735  0.4367  0.6488 -2.5731
   49MOL    H9910755   3.992   7.100   4.647 -1.6031  1.7958 -1.0760
   49MOL   H10010756   3.896   7.203   4.841 -0.0806 -0.5344  0.6807
   49MOL   C10110757   3.515   7.352   4.943  0.4071  0.2268 -0.1822
   49MOL   C10210758   3.601   7.244   4.925  0.3656  0.9520 -0.6916
   49MOL   C10310759   3.670   7.184   5.031  0.2004  0.2866  0.2287
   49MOL   C10410760   3.647   7.239   5.161 -0.1076 -0.4365  0.0743
   49MOL   C10510761   3.570   7.356   5.179 -0.7171  0.1050  0.0234
   49MOL   C10610762   3.502   7.413   5.073 -0.1607 -0.0353 -0.1163
   49MOL   O10710763   3.426   7.529   5.096  0.4149 -0.2048  0.1002
   49MOL   H10810764   3.472   7.400   4.857  0.0112  0.1451 -0.0295
   49MOL   H10910765   3.611   7.204   4.825 -0.5626  1.4188 -0.9727
   49MOL   H11010766   3.690   7.189   5.246 -1.6714  1.5177  2.0745
   49MOL   H11110767   3.561   7.400   5.277  1.8720  0.3504  0.1892
   49MOL   C11210768   3.629   7.792   4.941  0.5174  0.5033  0.3305
   49MOL   C11310769   3.592   7.669   5.004 -0.4221 -0.0715 -1.0649
   49MOL   C11410770   3.461   7.645   5.039  0.3725 -0.0081 -0.2051
   49MOL   C11510771   3.372   7.749   5.031 -0.0463  0.1382  0.4775
   49MOL   C11610772   3.397   7.861   4.954 -0.6692 -0.5054  0.8185
   49MOL   C11710773   3.527   7.886   4.911  0.4712 -0.6238  0.6535
   49MOL   O11810774   3.557   7.989   4.830 -0.2157 -0.3861 -0.4059
   49MOL   H11910775   3.732   7.808   4.911  0.5642 -1.0443 -0.3932
   49MOL   H12010776   3.668   7.596   5.025  0.4190  0.8406 -0.8821
   49MOL   H12110777   3.268   7.738   5.056 -0.0442  0.7028  0.7225
   49MOL   H12210778   3.323   7.936   4.932  1.3503  1.2555 -0.1119
   49MOL   C12310779   3.732   8.240   5.028 -0.0902 -0.5684 -0.4829
   49MOL   C12410780   3.686   8.113   4.990 -0.1870 -0.3996 -0.2915
   49MOL   C12510781   3.585   8.108   4.889 -0.7126  0.7645  0.1248
   49MOL   C12610782   3.533   8.232   4.839  0.0831  0.2740 -0.0405
   49MOL   C12710783   3.570   0.103   4.895  0.0518  0.1237  0.9486
   49MOL   C12810784   3.680   0.107   4.981 -0.9030 -0.0744  0.1860
   49MOL   O12910785   3.731   0.226   5.016  0.0212 -0.0733 -0.2041
   49MOL   H13010786   3.815   8.252   5.096 -0.4560 -0.3968 -0.0682
   49MOL   H13110787   3.739   8.027   5.027  0.9638  1.1356  1.7177
   49MOL   H13210788   3.467   8.218   4.754 -0.3050 -0.2237  0.3487
   49MOL   H13310789   3.541   0.190   4.839 -1.4072 -1.9878 -1.7274
   49MOL   C13410790   3.998   0.451   4.901  0.2654 -0.4296 -0.1062
   49MOL   C13510791   3.904   0.385   4.983  0.8879  0.3664  0.4285
   49MOL   C13610792   3.826   0.279   4.934  0.6513 -0.0596  0.4454
   49MOL   C13710793   3.835   0.246   4.795 -0.7060 -0.7557  1.0406
   49MOL   C13810794   3.933   0.305   4.714 -0.4079  0.0785  0.1470
   49MOL   C13910795   4.009   0.413   4.771 -0.1733  0.0290  0.8579
   49MOL   O14010796   4.086   0.470   4.672 -0.3181  0.1747  0.2418
   49MOL   H14110797   4.065   0.526   4.940  1.8635 -1.8656 -0.0629
   49MOL   H14210798   3.892   0.411   5.087 -1.2553 -0.9188  0.5190
   49MOL   H14310799   3.783   0.160   4.757  0.4315 -1.1232  0.3245
   49MOL   H14410800   3.945   0.265   4.614  0.5524  1.7106 -0.4136
   49MOL   C14510801   4.314   0.758   4.716  0.2048 -0.2346 -0.8341
   49MOL   C14610802   4.209   0.679   4.673 -0.4177  1.0097  1.0121
   49MOL   C14710803   4.196   0.540   4.705 -0.5578 -0.0223  0.9010
   49MOL   C14810804   4.298   0.481   4.782 -0.5009  0.2948  0.7237
   49MOL   C14910805   4.407   0.562   4.821 -0.0546 -0.0390  0.6029
   49MOL   C15010806   4.424   0.696   4.789  0.8107  0.0719  0.3777
   49MOL   O15110807   4.538   0.762   4.830 -0.0503 -0.3407 -0.5712
   49MOL   H15210808   4.313   0.865   4.700 -1.0219 -0.4178 -2.0308
   49MOL   H15310809   4.128   0.716   4.612  0.1003 -0.0266 -0.3348
   49MOL   H15410810   4.293   0.375   4.801 -0.8008 -0.2390 -2.0918
   49MOL   H15510811   4.482   0.506   4.874 -0.2586  0.8272  1.8151
   49MOL   C15610812   4.450   1.067   5.006 -0.2848  0.0402  0.0873
   49MOL   C15710813   4.452   0.931   4.965 -0.7152 -0.0692 -1.0579
   49MOL   C15810814   4.533   0.895   4.856 -1.2126 -0.0616 -0.0904
   49MOL   C15910815   4.586   0.996   4.772 -1.0201 -0.9121 -0.2868
   49MOL   C16010816   4.585   1.132   4.812 -0.0690 -0.4832 -0.7635
   49MOL   C16110817   4.504   1.167   4.928 -0.1262  0.0174 -0.0360
   49MOL   O16210818   4.485   1.295   4.971  0.0888 -0.1660  0.2088
   49MOL   H16310819   4.386   1.088   5.091 -1.4496 -0.3685 -0.6771
   49MOL   H16410820   4.416   0.843   5.015 -1.3299  1.1117  0.6418
   49MOL   H16510821   4.641   0.967   4.683 -1.2276  0.2312 -0.7866
   49MOL   H16610822   4.644   1.206   4.760 -1.5008  1.1651 -0.0988
   49MOL   C16710823   4.799   1.385   5.152  0.0680  0.7709 -0.7704
   49MOL   C16810824   4.672   1.325   5.128  0.0616  0.0113 -0.1473
   49MOL   C16910825   4.602   1.358   5.011  0.1837 -0.7622 -0.0559
   49MOL   C17010826   4.651   1.454   4.921  0.5165  0.0121 -0.1980
   49MOL   C17110827   4.781   1.498   4.939 -0.7395  0.1634  0.7376
   49MOL   C17210828   4.855   1.473   5.056 -0.1832  0.1618 -0.0382
   49MOL   O17310829   4.981   1.515   5.071 -0.2315 -0.3136  0.5227
   49MOL   H17410830   4.858   1.356   5.238  1.3729 -0.4429 -2.0388
   49MOL   H17510831   4.634   1.261   5.205 -0.2681  0.4965  0.0924
   49MOL   H17610832   4.588   1.469   4.834  0.1050  1.4093  0.3248
   49MOL   H17710833   4.844   1.550   4.867  0.7320  0.9539  2.5463
   49MOL   C17810834   5.085   1.859   4.981  0.5489 -0.4294  0.3260
   49MOL   C17910835   5.066   1.718   4.972 -0.4468  0.3968  0.2169
   49MOL   C18010836   5.005   1.653   5.083 -0.4556  0.3652  0.3233
   49MOL   C18110837   4.957   1.727   5.191 -0.7975 -0.0035  0.2198
   49MOL   C18210838   4.954   1.869   5.181 -0.0215 -0.8805 -0.3412
   49MOL   C18310839   5.022   1.940   5.074  0.2907  0.2330  0.7059
   49MOL   O18410840   5.025   2.079   5.065 -0.2080  0.9633  0.7764
   49MOL   H18510841   5.135   1.913   4.902 -0.7911 -0.8511 -0.8340
   49MOL   H18610842   5.101   1.664   4.885 -0.6336  0.2213  0.2497
   49MOL   H18710843   4.911   1.678   5.276 -0.6428  0.4953  0.5953
   49MOL   H18810844   4.903   1.921   5.261 -0.6687 -0.6092 -0.9297
   49MOL   C18910845   4.703   2.242   5.025 -0.2158  0.5805  0.9115
   49MOL   C19010846   4.819   2.163   4.996 -0.3637 -0.5425 -0.1264
   49MOL   C19110847   4.917   2.146   5.097  0.2938  0.1555  0.5648
   49MOL   C19210848   4.900   2.200   5.223  0.3037 -0.5150  0.8161
   49MOL   C19310849   4.792   2.284   5.250  0.7650 -0.4624  0.3387
   49MOL   C19410850   4.684   2.299   5.157 -0.9707 -0.2473  0.2715
   49MOL   O19510851   4.574   2.372   5.195 -0.0699 -0.5014  0.0403
   49MOL   H19610852   4.637   2.254   4.940  2.6651 -0.2798 -1.5334
   49MOL   H19710853   4.823   2.129   4.894 -0.0717  1.0235 -0.6470
   49MOL   H19810854   4.968   2.185   5.305 -0.4358  0.5092  1.6174
   49MOL   H19910855   4.777   2.322   5.350  0.1522 -0.8710  0.4076
   49MOL   C20010856   4.263   2.184   5.131  0.2941  0.7694 -0.4146
   49MOL   C20110857   4.397   2.212   5.158 -0.8647 -0.1991 -0.3425
   49MOL   C20210858   4.450   2.337   5.143 -0.6143 -0.6054  0.9410
   49MOL   C20310859   4.365   2.442   5.100 -0.0100  0.5039 -0.1233
   49MOL   C20410860   4.230   2.413   5.077  0.4194 -0.2701  0.4723
   49MOL   C20510861   4.180   2.286   5.091  0.1440  0.1442 -0.3483
   49MOL   O20610862   4.054   2.262   5.040  0.1873  0.6800  0.4034
   49MOL   H20710863   4.216   2.087   5.141 -2.0304  1.9912  0.8916
   49MOL   H20810864   4.462   2.131   5.189 -1.3688 -0.7198 -0.6286
   49MOL   H20910865   4.395   2.544   5.086  0.5217  0.7159  2.3078
   49MOL   H21010866   4.168   2.493   5.039  0.8087 -0.0969  0.2040
   49MOL   C21110867   4.043   2.013   4.776 -0.1719  0.1425  0.2985
   49MOL   C21210868   4.046   2.070   4.900  0.7448  0.1585 -0.1323
   49MOL   C21310869   4.049   2.210   4.908  0.4321 -0.1913 -0.6081
   49MOL   C21410870   4.045   2.291   4.793 -0.0636 -0.0838 -0.1577
   49MOL   C21510871   4.024   2.231   4.670  0.1641  0.3550 -0.0940
   49MOL   C21610872   4.023   2.090   4.659  0.2781  0.8075  0.2290
   49MOL   O21710873   4.016   2.021   4.541  0.2721  0.0897 -0.1318
   49MOL   H21810874   4.043   1.906   4.763 -0.8361  0.3572 -1.7553
   49MOL   H21910875   4.047   2.016   4.993  2.5856  2.1455  1.0593
   49MOL   H22010876   4.043   2.399   4.796 -0.2471 -0.1145  2.2400
   49MOL   H22110877   4.016   2.298   4.585  0.8580 -1.3278 -1.5151
   49MOL   H22210878   3.981   2.062   4.464  1.7943 -0.5657 -1.1867
   50MOL     C110879   2.978   4.011   5.638 -0.0523 -0.2748 -0.5028
   50MOL     C210880   3.055   3.902   5.581 -0.4836  0.1947 -0.3946
   50MOL     C310881   3.142   3.835   5.666 -0.2727  0.2809 -0.3002
   50MOL     C410882   3.134   3.862   5.811  0.0104  0.5663  0.1055
   50MOL     C510883   3.042   3.959   5.859 -0.4907  0.1840 -0.1935
   50MOL     C610884   2.969   4.036   5.772  0.1906 -0.0091  0.9140
   50MOL     O710885   2.897   4.150   5.806 -0.0989  0.3298  0.2837
   50MOL     H810886   2.908   4.065   5.577 -1.5196 -0.6187  0.8706
   50MOL     H910887   3.052   3.889   5.474  0.9011 -0.0705 -0.4143
   50MOL    H1010888   3.198   3.817   5.887 -0.0069 -0.8801 -0.7233
   50MOL    H1110889   3.034   3.978   5.965  0.2139  1.6806 -0.4005
   50MOL    H1210890   3.219   3.767   5.630  1.1251  0.5970  1.9855
   50MOL    C1310891   3.179   4.397   5.807  0.7164  0.4463  0.8498
   50MOL    C1410892   3.116   4.268   5.799  0.2895 -0.7616  0.4340
   50MOL    C1510893   2.975   4.264   5.816  0.0915 -0.1394 -0.0574
   50MOL    C1610894   2.900   4.378   5.836 -1.0674  0.0143  0.4011
   50MOL    C1710895   2.962   4.500   5.836 -0.0625 -0.0419 -0.2219
   50MOL    C1810896   3.104   4.510   5.824  0.1323 -1.1761 -1.1248
   50MOL    O1910897   3.159   4.633   5.844  0.1271 -0.0318 -0.0378
   50MOL    H2010898   3.287   4.406   5.799  0.9492 -1.3089  1.8873
   50MOL    H2110899   3.173   4.179   5.775  2.6859  1.0848 -0.9811
   50MOL    H2210900   2.795   4.380   5.860 -1.0323 -0.6512  0.6253
   50MOL    H2310901   2.904   4.589   5.854  0.1684 -0.0128  0.3878
   50MOL    C2410902   3.279   4.770   5.523  0.1914  0.2339 -0.3266
   50MOL    C2510903   3.200   4.706   5.620  0.1314  0.0700 -0.2687
   50MOL    C2610904   3.252   4.678   5.749  0.2408 -0.0825  0.6120
   50MOL    C2710905   3.388   4.699   5.781 -0.1376  0.1411  0.5302
   50MOL    C2810906   3.467   4.757   5.679 -0.7958 -0.1146  0.2944
   50MOL    C2910907   3.414   4.788   5.551 -0.0254 -0.9285  0.2500
   50MOL    O3010908   3.503   4.821   5.451  0.5869 -0.0505  0.4111
   50MOL    H3110909   3.240   4.775   5.423 -0.2264 -1.1326 -0.2386
   50MOL    H3210910   3.097   4.685   5.598 -0.1225  1.5003 -0.4960
   50MOL    H3310911   3.420   4.675   5.881  2.0556 -3.3653 -0.9201
   50MOL    H3410912   3.571   4.780   5.700 -1.1855  1.7801  0.2096
   50MOL    C3510913   3.355   4.963   5.148  0.2371  0.2136 -0.4737
   50MOL    C3610914   3.395   4.872   5.242 -0.6933  0.1326 -0.4254
   50MOL    C3710915   3.458   4.913   5.361  0.3998  0.0888 -0.1927
   50MOL    C3810916   3.475   5.050   5.390 -0.2146 -0.8131  0.3579
   50MOL    C3910917   3.441   5.145   5.294  0.8079 -0.1153 -0.1132
   50MOL    C4010918   3.384   5.097   5.169 -0.3486  0.7199  0.5996
   50MOL    O4110919   3.345   5.189   5.077 -0.6141 -0.1087  0.2552
   50MOL    H4210920   3.316   4.935   5.051  0.4555  1.9304 -1.0847
   50MOL    H4310921   3.367   4.768   5.233 -0.3323 -0.0645  0.5917
   50MOL    H4410922   3.520   5.067   5.487 -0.4778 -0.9293  0.5004
   50MOL    H4510923   3.449   5.249   5.321  2.1219 -0.0648 -0.6566
   50MOL    C4610924   3.616   5.269   4.854 -0.0884 -0.5773 -0.0282
   50MOL    C4710925   3.533   5.257   4.965 -0.4312  0.5559 -0.1937
   50MOL    C4810926   3.419   5.187   4.965 -0.0468  0.9624  0.5220
   50MOL    C4910927   3.371   5.123   4.848 -0.0476 -0.2495  0.6673
   50MOL    C5010928   3.463   5.122   4.733  0.1637  0.2938 -0.5134
   50MOL    C5110929   3.583   5.194   4.745  0.2830  0.0791  0.3020
   50MOL    O5210930   3.677   5.192   4.646  0.0877  0.7466  0.5148
   50MOL    H5310931   3.694   5.342   4.845  0.7518 -1.1538  2.3884
   50MOL    H5410932   3.566   5.307   5.055  0.7181 -1.7018  0.7017
   50MOL    H5510933   3.268   5.090   4.841 -0.1604  0.4805 -1.6853
   50MOL    H5610934   3.445   5.065   4.643  1.6963 -0.4399 -0.3656
   50MOL    C5710935   4.039   5.107   4.643  0.1315  0.2344 -0.4070
   50MOL    C5810936   3.922   5.176   4.622 -0.0116 -0.2569 -0.3395
   50MOL    C5910937   3.795   5.124   4.667  0.1489  0.4676 -0.2592
   50MOL    C6010938   3.796   5.005   4.738  0.5932  0.4055  0.0391
   50MOL    C6110939   3.911   4.933   4.760  0.4911 -0.8022  0.2144
   50MOL    C6210940   4.037   4.978   4.711  0.7228  0.2763 -0.2009
   50MOL    O6310941   4.155   4.921   4.743 -0.0376  0.7681 -0.2487
   50MOL    H6410942   4.129   5.154   4.605 -1.4933  1.4436 -2.8897
   50MOL    H6510943   3.929   5.272   4.573  0.8865 -0.4443 -0.5843
   50MOL    H6610944   3.708   4.958   4.779 -0.0767  2.8556  1.4761
   50MOL    H6710945   3.905   4.838   4.809 -1.4706 -0.7059  0.1958
   50MOL    C6810946   4.159   4.680   5.012  0.4505  0.0679  0.4474
   50MOL    C6910947   4.154   4.801   4.941  0.3225 -0.8696  0.5571
   50MOL    C7010948   4.143   4.799   4.803  0.2906  0.1162 -0.6761
   50MOL    C7110949   4.129   4.673   4.732  0.0282  0.2268 -0.3796
   50MOL    C7210950   4.127   4.554   4.802 -0.2238 -0.0365  0.4187
   50MOL    C7310951   4.138   4.561   4.945 -0.2419 -0.0359  0.8828
   50MOL    O7410952   4.144   4.457   5.031 -0.1166 -0.0528 -0.2858
   50MOL    H7510953   4.167   4.670   5.119  0.0325 -1.3928  0.3428
   50MOL    H7610954   4.148   4.897   4.990  1.8432 -1.1218  1.2753
   50MOL    H7710955   4.137   4.663   4.625 -2.6696 -3.1613 -0.3344
   50MOL    H7810956   4.103   4.460   4.756  0.9575 -0.6358  1.0286
   50MOL    C7910957   3.844   4.394   5.230  0.4537  0.0568 -0.0656
   50MOL    C8010958   3.975   4.431   5.198 -1.1514 -0.0250 -0.2843
   50MOL    C8110959   4.020   4.411   5.065 -0.3475  0.5953  0.8845
   50MOL    C8210960   3.940   4.338   4.971 -0.4079  0.2481  0.3429
   50MOL    C8310961   3.810   4.298   5.007  0.0464  0.1463 -0.1709
   50MOL    C8410962   3.762   4.323   5.142 -0.4189 -0.0251  0.0612
   50MOL    O8510963   3.632   4.295   5.176  0.4187 -0.5614 -0.3560
   50MOL    H8610964   3.802   4.413   5.327 -1.7434 -1.3692 -0.6945
   50MOL    H8710965   4.025   4.485   5.276 -1.6314  0.2148 -0.1395
   50MOL    H8810966   3.977   4.309   4.874 -0.5711 -0.2080  0.4149
   50MOL    H8910967   3.744   4.247   4.939 -1.2710 -1.9580  2.6097
   50MOL    C9010968   3.507   3.972   5.044  0.0645 -0.2171  0.2559
   50MOL    C9110969   3.533   4.111   5.048  0.8690 -0.6805 -0.4299
   50MOL    C9210970   3.585   4.164   5.168 -0.1523 -0.2770 -0.1684
   50MOL    C9310971   3.569   4.089   5.286  0.0852 -0.5478  0.4292
   50MOL    C9410972   3.521   3.959   5.283  0.1114  0.7527 -0.4840
   50MOL    C9510973   3.497   3.895   5.161 -0.6624 -0.4989 -0.0170
   50MOL    O9610974   3.457   3.765   5.161  0.1437  0.6221 -0.1358
   50MOL    H9710975   3.483   3.926   4.949  0.6316  0.7987 -0.4005
   50MOL    H9810976   3.539   4.164   4.954 -0.7823 -0.6332 -0.5289
   50MOL    H9910977   3.589   4.140   5.379  1.7582 -0.5402  0.0666
   50MOL   H10010978   3.516   3.907   5.377 -2.0925 -1.0194 -1.5232
   50MOL   C10110979   3.136   3.650   5.032  0.1049  0.0234 -0.2868
   50MOL   C10210980   3.271   3.688   5.037 -0.3367  0.2169 -0.4090
   50MOL   C10310981   3.327   3.743   5.151  0.1014 -0.3063 -0.6407
   50MOL   C10410982   3.243   3.768   5.262  0.0368  0.7261 -0.2073
   50MOL   C10510983   3.111   3.724   5.262 -0.5729 -0.5555  0.1700
   50MOL   C10610984   3.050   3.671   5.146 -0.1486  0.0941 -0.2129
   50MOL   O10710985   2.913   3.656   5.140  0.1058  0.0813 -0.3361
   50MOL   H10810986   3.101   3.606   4.940  3.7113  0.1787 -1.8018
   50MOL   H10910987   3.341   3.671   4.957 -0.1195  1.2037 -0.4311
   50MOL   H11010988   3.285   3.796   5.358 -0.2148 -0.0576  0.1404
   50MOL   H11110989   3.051   3.729   5.352 -1.7893  2.1487 -0.7212
   50MOL   C11210990   2.835   3.341   4.945  0.1993 -0.0235  0.0143
   50MOL   C11310991   2.880   3.428   5.051  0.1771 -0.3575 -0.0202
   50MOL   C11410992   2.862   3.569   5.043  0.1348 -0.5032 -0.0008
   50MOL   C11510993   2.787   3.618   4.932 -0.1088  0.0571 -0.2669
   50MOL   C11610994   2.731   3.537   4.832 -0.2398  0.1044  0.0504
   50MOL   C11710995   2.761   3.398   4.841 -0.1690  0.6530  0.6176
   50MOL   O11810996   2.724   3.312   4.743  0.2530  0.0408  0.0227
   50MOL   H11910997   2.858   3.236   4.951 -1.5975 -0.3584  1.4201
   50MOL   H12010998   2.939   3.404   5.138  2.3261 -0.5606 -1.4930
   50MOL   H12110999   2.755   3.721   4.930 -2.4546 -0.6186  0.7161
   50MOL   H12211000   2.674   3.574   4.748  0.5005  0.6154 -0.2429
   50MOL   C12311001   2.984   3.202   4.497  0.4794 -0.8109  0.5583
   50MOL   C12411002   2.908   3.216   4.615  0.2413  0.0645 -0.0109
   50MOL   C12511003   2.793   3.295   4.623  0.3450 -0.7027 -0.2744
   50MOL   C12611004   2.762   3.384   4.516 -0.2143  0.3249  0.1121
   50MOL   C12711005   2.829   3.356   4.396 -0.8775 -0.1173  0.0941
   50MOL   C12811006   2.940   3.269   4.388 -0.0547 -0.1961 -0.5449
   50MOL   O12911007   3.004   3.260   4.263  0.3808 -0.6095 -0.4744
   50MOL   H13011008   3.069   3.135   4.502  0.0598 -1.5448 -1.5381
   50MOL   H13111009   2.947   3.169   4.704 -1.9414  1.6826  1.8638
   50MOL   H13211010   2.674   3.446   4.514 -1.2102 -1.0726 -0.5174
   50MOL   H13311011   2.799   3.406   4.305 -2.8459 -1.0001  0.2409
   50MOL   C13411012   3.317   3.319   4.080  0.1307 -0.3022 -0.7530
   50MOL   C13511013   3.187   3.283   4.112  0.5042  0.4113  0.5426
   50MOL   C13611014   3.146   3.278   4.243  0.1131  0.2499  0.0176
   50MOL   C13711015   3.235   3.318   4.345 -0.0710 -0.5034 -0.2805
   50MOL   C13811016   3.371   3.341   4.316  0.0021 -0.1385  0.3156
   50MOL   C13911017   3.414   3.352   4.178  0.2196  0.5552  0.2708
   50MOL   O14011018   3.544   3.384   4.147 -0.4838  0.0905 -0.2717
   50MOL   H14111019   3.345   3.321   3.975  0.4379 -1.7623 -0.7036
   50MOL   H14211020   3.121   3.276   4.027  0.2486 -4.2793  1.0252
   50MOL   H14311021   3.201   3.316   4.447  0.7015 -1.1234 -0.0321
   50MOL   H14411022   3.440   3.358   4.397 -0.1674 -0.3757  0.5115
   50MOL   C14511023   3.641   3.734   4.217  0.2764  0.0314 -1.1034
   50MOL   C14611024   3.590   3.619   4.144 -0.5777 -0.5895  0.4629
   50MOL   C14711025   3.590   3.494   4.205 -0.5453 -0.2080 -0.4614
   50MOL   C14811026   3.644   3.484   4.335  0.3630 -0.1388 -0.6911
   50MOL   C14911027   3.694   3.596   4.407  0.2890 -0.3493 -0.0035
   50MOL   C15011028   3.688   3.719   4.343 -1.2749  0.2479 -0.2534
   50MOL   O15111029   3.754   3.828   4.403  0.4221 -0.1825 -0.2946
   50MOL   H15211030   3.656   3.829   4.168  0.1423 -0.2503 -1.7033
   50MOL   H15311031   3.556   3.629   4.042  1.3337  0.2696 -0.1257
   50MOL   H15411032   3.646   3.385   4.379  2.2836  0.0344 -0.3619
   50MOL   H15511033   3.745   3.586   4.502 -0.4127  1.7301  0.6114
   50MOL   C15611034   4.062   4.030   4.323  0.2792  0.4236  0.1460
   50MOL   C15711035   3.932   3.993   4.377 -0.7383 -0.1187  0.6547
   50MOL   C15811036   3.884   3.861   4.362  0.1320 -0.1658  0.2503
   50MOL   C15911037   3.973   3.763   4.310  0.0961 -0.2766  0.0434
   50MOL   C16011038   4.103   3.798   4.269  0.1209  0.0298 -0.7508
   50MOL   C16111039   4.148   3.927   4.266  0.6697 -0.1375 -0.7635
   50MOL   O16211040   4.272   3.958   4.220 -0.3358  0.5901  0.4227
   50MOL   H16311041   4.102   4.128   4.341  0.5701  0.3853 -0.2860
   50MOL   H16411042   3.869   4.069   4.421 -1.5583 -1.3314  1.6286
   50MOL   H16511043   3.935   3.663   4.296 -1.5872  0.3920 -0.2722
   50MOL   H16611044   4.169   3.717   4.239 -1.5096 -1.4287 -0.4694
   50MOL   C16711045   4.278   4.213   3.960 -0.1159 -0.0117  0.1353
   50MOL   C16811046   4.263   4.156   4.084  0.7821 -0.3919 -0.3502
   50MOL   C16911047   4.289   4.023   4.101  0.2286  0.6464 -0.5074
   50MOL   C17011048   4.311   3.935   3.990  0.0659 -0.3341  0.3322
   50MOL   C17111049   4.314   3.996   3.863  0.2827  0.4054  0.5201
   50MOL   C17211050   4.300   4.133   3.845 -0.7632  0.2120 -0.4956
   50MOL   O17311051   4.287   4.189   3.726 -0.1713  0.7909  0.4666
   50MOL   H17411052   4.270   4.320   3.951  2.3433  0.1105 -0.8704
   50MOL   H17511053   4.240   4.218   4.170  0.0243 -0.1138 -0.7459
   50MOL   H17611054   4.320   3.830   4.010  0.6936 -0.7749 -2.0618
   50MOL   H17711055   4.310   3.939   3.772 -3.0525  2.3241 -0.6072
   50MOL   C17811056   4.613   4.267   3.571  0.3326  0.1052  0.2683
   50MOL   C17911057   4.503   4.267   3.656 -0.0545 -0.1336  0.0961
   50MOL   C18011058   4.392   4.182   3.638  0.1225  0.6460 -0.1025
   50MOL   C18111059   4.385   4.099   3.527 -0.4745 -0.3044 -0.3368
   50MOL   C18211060   4.482   4.111   3.428 -0.4354 -0.0967  0.2237
   50MOL   C18311061   4.606   4.189   3.449 -0.1016  0.2726 -0.1170
   50MOL   O18411062   4.699   4.208   3.352  0.0843  0.0245 -0.3739
   50MOL   H18511063   4.705   4.322   3.585  1.2173 -0.5793 -2.4643
   50MOL   H18611064   4.511   4.334   3.740  0.2254 -0.9608  0.7467
   50MOL   H18711065   4.304   4.029   3.509 -2.0481  1.7982 -1.6697
   50MOL   H18811066   4.470   4.050   3.340  1.1919 -0.9383  0.5617
   50MOL   C18911067   4.672   4.089   3.001  0.0053 -0.2008  0.1596
   50MOL   C19011068   4.697   4.087   3.139 -0.3778 -0.4033 -0.0278
   50MOL   C19111069   4.661   4.201   3.218  0.1122 -0.0806 -0.2994
   50MOL   C19211070   4.579   4.305   3.163 -0.4321 -0.0976 -0.6009
   50MOL   C19311071   4.540   4.302   3.031 -0.6994  0.4350  0.7584
   50MOL   C19411072   4.582   4.191   2.950  0.1257 -0.3697  1.3774
   50MOL   O19511073   4.545   4.175   2.814  0.4133 -0.2715  0.1874
   50MOL   H19611074   4.705   4.006   2.941 -0.0881 -1.0840  1.3191
   50MOL   H19711075   4.756   4.012   3.191  0.3878  0.1013 -0.1641
   50MOL   H19811076   4.565   4.389   3.230  1.5273 -0.1810 -0.0581
   50MOL   H19911077   4.483   4.385   2.993 -0.2955  0.7733  0.8812
   50MOL   C20011078   4.178   4.184   2.781 -0.7157 -0.0019  0.5000
   50MOL   C20111079   4.313   4.223   2.786  0.4311 -0.0825  0.0428
   50MOL   C20211080   4.415   4.132   2.791 -0.0245 -0.6326  0.7415
   50MOL   C20311081   4.386   3.996   2.762 -0.0435  0.3995 -0.4309
   50MOL   C20411082   4.251   3.956   2.759 -0.1011 -0.7624  0.3972
   50MOL   C20511083   4.148   4.046   2.768 -0.0057 -0.3391  0.5414
   50MOL   O20611084   4.018   4.001   2.774  0.3421 -0.0175 -0.1695
   50MOL   H20711085   4.103   4.258   2.804  0.9391  1.7995  0.2222
   50MOL   H20811086   4.340   4.327   2.800 -0.5072  0.5705 -2.6818
   50MOL   H20911087   4.468   3.927   2.770 -0.6858 -0.1000  2.2135
   50MOL   H21011088   4.228   3.851   2.748  2.5545 -1.2198 -1.4809
   50MOL   C21111089   3.746   4.240   2.842  0.5535 -0.1647  0.1168
   50MOL   C21211090   3.841   4.161   2.776 -0.0434 -0.6571  0.4327
   50MOL   C21311091   3.931   4.079   2.848 -0.9491 -0.5890 -0.6256
   50MOL   C21411092   3.920   4.066   2.990  0.1662 -0.5233 -0.6745
   50MOL   C21511093   3.818   4.141   3.055 -0.6790 -0.1677 -0.6257
   50MOL   C21611094   3.738   4.237   2.983  0.2254  0.3218 -0.2221
   50MOL   O21711095   3.643   4.307   3.056  0.0464 -0.3411  0.3204
   50MOL   H21811096   3.679   4.299   2.782 -0.9340 -0.7121  1.1784
   50MOL   H21911097   3.849   4.171   2.669  0.7431  0.9659  0.6311
   50MOL   H22011098   3.960   3.983   3.047  0.0727 -0.6398 -0.7790
   50MOL   H22111099   3.803   4.135   3.162 -1.0764 -0.7824 -0.7113
   50MOL   H22211100   3.667   4.332   3.144  1.8251 -0.0948 -0.2109
   51MOL     C111101   7.956   3.585   0.346 -0.2600  0.1444  0.1774
   51MOL     C211102   7.921   3.718   0.354 -0.5469 -0.5919  0.1844
   51MOL     C311103   7.910   3.775   0.483  0.4183  0.2494  0.2641
   51MOL     C411104   7.902   3.697   0.601 -0.2657  0.3677 -0.2208
   51MOL     C511105   7.939   3.563   0.591 -0.0344 -0.1998  0.0987
   51MOL     C611106   7.968   3.508   0.464  0.2054  0.5910  0.0681
   51MOL     O711107   7.980   3.367   0.458  0.2738 -0.4520  0.0284
   51MOL     H811108   7.966   3.538   0.249  1.4198 -0.7858  0.7815
   51MOL     H911109   7.914   3.777   0.264  0.8812  1.6549  1.4931
   51MOL    H1011110   7.870   3.740   0.694  0.2301  0.2677 -0.0012
   51MOL    H1111111   7.937   3.496   0.676 -1.7477  1.4596  1.4224
   51MOL    H1211112   7.882   3.879   0.493  0.1340  0.1313  0.6861
   51MOL    C1311113   0.043   3.273   0.628 -0.0770  0.0441  0.4806
   51MOL    C1411114   8.196   3.360   0.580 -0.7444 -0.5219  0.6832
   51MOL    C1511115   8.079   3.298   0.528 -0.2822  0.0421  0.4482
   51MOL    C1611116   8.053   3.159   0.539 -0.1866 -0.1883 -0.0435
   51MOL    C1711117   8.148   3.073   0.595 -0.3761 -0.3425  0.3211
   51MOL    C1811118   0.019   3.130   0.637  1.1805 -0.4677 -0.2152
   51MOL    O1911119   0.119   3.056   0.697 -0.1381 -0.4901  0.6788
   51MOL    H2011120   0.139   3.316   0.652 -0.1841  2.4170 -3.0201
   51MOL    H2111121   8.212   3.466   0.571  0.6202 -0.8284 -0.7869
   51MOL    H2211122   7.958   3.124   0.502 -0.9776 -0.5835  2.2419
   51MOL    H2311123   8.128   2.967   0.599 -3.3303  0.2104  1.8141
   51MOL    C2411124   0.236   2.726   0.592 -0.3284  0.1408 -0.1904
   51MOL    C2511125   0.224   2.866   0.607 -0.1791  0.2544  0.4143
   51MOL    C2611126   0.126   2.921   0.688  0.3778  0.5671  0.2582
   51MOL    C2711127   0.038   2.834   0.756 -0.1770  0.4353 -0.0895
   51MOL    C2811128   0.042   2.696   0.733  0.1180  0.8595  0.3473
   51MOL    C2911129   0.147   2.637   0.656  0.8974  0.6137 -0.3678
   51MOL    O3011130   0.154   2.499   0.650  0.1248  0.2233 -0.2427
   51MOL    H3111131   0.325   2.686   0.545  0.8296  0.0715  1.9900
   51MOL    H3211132   0.295   2.932   0.561  0.4383 -1.0780 -0.5631
   51MOL    H3311133   8.216   2.868   0.825 -0.2019  1.6211 -0.6854
   51MOL    H3411134   8.221   2.634   0.779 -1.6846  2.7590 -0.0162
   51MOL    C3511135   0.087   2.263   0.926  0.2324 -0.1151  0.5712
   51MOL    C3611136   0.102   2.319   0.801 -0.5202 -0.0590 -0.2870
   51MOL    C3711137   0.163   2.442   0.780 -0.4641  0.1868  1.0186
   51MOL    C3811138   0.235   2.499   0.885  0.1878 -0.2918 -0.6012
   51MOL    C3911139   0.228   2.447   1.012  0.9358 -0.1087 -0.2273
   51MOL    C4011140   0.157   2.326   1.034  0.7763  0.0493 -0.3388
   51MOL    O4111141   0.164   2.259   1.152  0.2290 -0.2640  0.0045
   51MOL    H4211142   0.015   2.188   0.956  0.5213  0.1557  1.9679
   51MOL    H4311143   0.046   2.272   0.721 -0.8737 -1.7391  0.9027
   51MOL    H4411144   0.299   2.586   0.873 -2.5249  1.6294 -1.7662
   51MOL    H4511145   0.280   2.488   1.097 -0.4998 -2.2973  1.7860
   51MOL    C4611146   8.218   2.233   1.471  0.2175 -0.1251 -0.1463
   51MOL    C4711147   0.056   2.201   1.362  0.1603  0.1184 -1.3491
   51MOL    C4811148   0.055   2.273   1.236 -0.0930  0.1513  0.2610
   51MOL    C4911149   8.198   2.361   1.214 -0.2552  0.4145 -0.0292
   51MOL    C5011150   8.108   2.386   1.321  0.0199  0.4256 -0.4458
   51MOL    C5111151   8.110   2.321   1.450 -0.6759 -0.1527 -0.2549
   51MOL    O5211152   8.009   2.340   1.541  0.3445 -0.0386  0.1341
   51MOL    H5311153   8.226   2.180   1.565 -0.7667  1.0862  0.6282
   51MOL    H5411154   0.138   2.132   1.377  0.4091  0.3641 -1.5730
   51MOL    H5511155   8.183   2.423   1.126  0.5669 -0.8354 -1.0728
   51MOL    H5611156   8.020   2.445   1.299  0.0231 -0.0518 -1.8289
   51MOL    C5711157   7.851   2.674   1.565 -0.0478  0.2575 -0.0885
   51MOL    C5811158   7.879   2.544   1.522 -0.6764  0.2435 -0.2073
   51MOL    C5911159   7.984   2.469   1.579 -0.2701  0.1274 -0.6354
   51MOL    C6011160   8.054   2.526   1.691 -0.7252 -0.3843 -0.2447
   51MOL    C6111161   8.017   2.652   1.743 -0.4730  0.1561  0.0727
   51MOL    C6211162   7.921   2.732   1.676 -0.1689  0.5531  0.0380
   51MOL    O6311163   7.901   2.859   1.724  0.3220  0.1277  0.3787
   51MOL    H6411164   7.766   2.729   1.527 -0.4505 -1.5137 -1.8519
   51MOL    H6511165   7.816   2.513   1.439  0.5978 -0.1673 -1.0390
   51MOL    H6611166   8.131   2.478   1.750  1.0829  2.4536 -0.2039
   51MOL    H6711167   8.075   2.694   1.823  1.6160 -0.2461 -1.2011
   51MOL    C6811168   7.604   3.076   1.811 -0.2714  0.1121 -0.6677
   51MOL    C6911169   7.734   3.034   1.764 -0.3287 -0.3608 -0.3678
   51MOL    C7011170   7.776   2.895   1.767 -0.3473 -0.0452 -0.0164
   51MOL    C7111171   7.685   2.808   1.826  0.2356 -0.3733 -0.1608
   51MOL    C7211172   7.553   2.847   1.864 -0.3071  1.0441 -0.2024
   51MOL    C7311173   7.511   2.977   1.856 -0.0381  0.0159  0.4165
   51MOL    O7411174   7.382   3.009   1.898 -0.4357  0.2525  0.1044
   51MOL    H7511175   7.580   3.181   1.808  0.1504  0.3120  2.2362
   51MOL    H7611176   7.797   3.112   1.724 -1.7833 -0.1250 -2.2433
   51MOL    H7711177   7.718   2.707   1.847  1.2190  0.2873  1.5446
   51MOL    H7811178   7.485   2.768   1.895  0.2639  0.3445 -0.6992
   51MOL    C7911179   7.130   3.220   1.737  0.1909 -0.7060 -0.1071
   51MOL    C8011180   7.217   3.166   1.836  0.6761  0.0416 -0.9775
   51MOL    C8111181   7.299   3.056   1.804  0.4186  0.0132 -0.2497
   51MOL    C8211182   7.291   2.996   1.680  0.4444 -0.3720  0.0186
   51MOL    C8311183   7.199   3.043   1.583 -0.1296 -0.3996  0.2593
   51MOL    C8411184   7.120   3.155   1.615  0.6179  0.1420  0.2508
   51MOL    O8511185   7.035   3.212   1.523  0.0857  0.4414 -0.3056
   51MOL    H8611186   7.073   3.310   1.758 -0.2258 -0.6772 -1.3204
   51MOL    H8711187   7.228   3.213   1.933 -0.0005 -0.2726 -0.7511
   51MOL    H8811188   7.360   2.918   1.650 -0.0510 -0.0697 -2.0042
   51MOL    H8911189   7.175   2.992   1.491  3.1863  0.8464 -1.3800
   51MOL    C9011190   7.102   3.191   1.155 -0.4064 -0.3145  0.0041
   51MOL    C9111191   7.057   3.151   1.281 -0.0169 -0.9433  0.4237
   51MOL    C9211192   7.087   3.230   1.396  0.1267  0.5975 -0.5302
   51MOL    C9311193   7.170   3.343   1.378 -0.2866  0.5085  0.0937
   51MOL    C9411194   7.213   3.381   1.249 -0.1929 -0.7189 -0.2644
   51MOL    C9511195   7.187   3.302   1.134 -0.1992  0.8357  0.1039
   51MOL    O9611196   7.229   3.346   1.012  0.0274 -0.0090 -0.3840
   51MOL    H9711197   7.076   3.125   1.074 -2.9874  0.6959 -0.0250
   51MOL    H9811198   6.987   3.070   1.292  0.7229 -1.6183  0.1372
   51MOL    H9911199   7.198   3.406   1.461  0.4481  1.4182 -0.8270
   51MOL   H10011200   7.272   3.471   1.238  0.3874 -0.9644  0.7792
   51MOL   C10111201   7.145   3.221   0.676 -0.3008 -0.0400  0.2068
   51MOL   C10211202   7.149   3.302   0.788  0.0041  0.0138 -0.0245
   51MOL   C10311203   7.226   3.262   0.897  0.6151  0.1545 -0.2502
   51MOL   C10411204   7.328   3.167   0.874 -0.2434  0.1837 -0.3749
   51MOL   C10511205   7.326   3.087   0.759 -0.4808 -0.1396 -0.4512
   51MOL   C10611206   7.234   3.113   0.656  0.2495  0.2220  0.2110
   51MOL   O10711207   7.231   3.042   0.540  0.4565  0.2020 -0.1092
   51MOL   H10811208   7.077   3.248   0.596 -0.0902 -1.0924 -0.3297
   51MOL   H10911209   7.075   3.379   0.797 -0.9187 -1.0298  1.6603
   51MOL   H11011210   7.404   3.145   0.947 -0.0952 -0.7458 -0.8100
   51MOL   H11111211   7.404   3.013   0.748  0.7493  0.6213  2.4546
   51MOL   C11211212   7.201   3.288   0.279 -0.3198 -0.0378  0.6357
   51MOL   C11311213   7.252   3.218   0.388  0.2893 -0.2825  0.2250
   51MOL   C11411214   7.200   3.096   0.418  1.0757  0.3615  0.1742
   51MOL   C11511215   7.095   3.030   0.350 -0.1556  0.1024  0.5781
   51MOL   C11611216   7.041   3.100   0.236 -0.2496 -0.0380  0.4690
   51MOL   C11711217   7.097   3.229   0.197 -0.4045 -0.0459  0.0936
   51MOL   O11811218   7.051   3.286   0.085  0.1196  0.5164  0.1213
   51MOL   H11911219   7.256   3.364   0.226  0.5722 -3.1258 -3.0678
   51MOL   H12011220   7.333   3.263   0.444 -1.0385  0.3511  1.6894
   51MOL   H12111221   7.052   2.937   0.383  0.8349 -0.3140  0.7331
   51MOL   H12211222   6.956   3.061   0.183 -0.6332  0.1680  0.9305
   51MOL   C12311223   6.858   3.583   0.198 -0.3607 -0.2049  0.0720
   51MOL   C12411224   6.901   3.453   0.184 -0.4171 -0.8130 -0.6597
   51MOL   C12511225   7.008   3.414   0.100 -0.8081  0.2872  0.0587
   51MOL   C12611226   7.068   3.513   0.024 -0.2507 -0.5426 -0.0817
   51MOL   C12711227   7.018   3.642   0.028  0.2404 -0.7146 -0.3786
   51MOL   C12811228   6.917   3.680   0.116  0.4178  0.2800  0.7777
   51MOL   O12911229   6.873   3.807   0.124 -0.1404  0.6793 -0.2436
   51MOL   H13011230   6.779   3.608   0.268  1.0339 -1.3556  2.1071
   51MOL   H13111231   6.854   3.366   0.227  0.8770 -0.8727  0.6478
   51MOL   H13211232   7.153   3.492   8.215 -0.3028 -2.9579  0.6174
   51MOL   H13311233   7.073   3.720   8.231  1.9990 -1.1238  0.8587
   51MOL   C13411234   7.056   4.124   0.187  0.2531  0.0383 -0.4339
   51MOL   C13511235   6.971   4.028   0.130  0.1252 -0.3512  0.4954
   51MOL   C13611236   6.955   3.902   0.185 -0.2877  0.3376  0.7109
   51MOL   C13711237   7.020   3.875   0.313 -1.1506  0.2132 -0.6605
   51MOL   C13811238   7.104   3.972   0.375 -0.1258  0.5458  0.2292
   51MOL   C13911239   7.122   4.099   0.309 -0.3586 -0.1037  0.2659
   51MOL   O14011240   7.203   4.196   0.365  0.1401 -0.8419  0.1546
   51MOL   H14111241   7.077   4.223   0.150 -0.2098  1.3168  2.5500
   51MOL   H14211242   6.918   4.052   0.038  0.0375 -0.2255  0.5787
   51MOL   H14311243   7.005   3.779   0.360  0.5576  0.2121 -0.0751
   51MOL   H14411244   7.148   3.949   0.471  1.3821  1.1236 -0.3117
   51MOL   C14511245   7.540   4.054   0.396  0.2734 -0.2901  1.3635
   51MOL   C14611246   7.402   4.062   0.372 -0.4210  0.7888  0.2916
   51MOL   C14711247   7.337   4.184   0.376 -0.1828  0.5343 -0.4812
   51MOL   C14811248   7.413   4.293   0.417  0.0841  0.1676  0.3447
   51MOL   C14911249   7.549   4.282   0.431 -0.0562 -0.5042  0.0863
   51MOL   C15011250   7.618   4.161   0.419  0.0729 -0.7044 -0.0462
   51MOL   O15111251   7.754   4.154   0.434  0.2265  0.1303 -0.1888
   51MOL   H15211252   7.586   3.959   0.378 -0.4038  0.0548 -2.4964
   51MOL   H15311253   7.348   3.972   0.346  1.0916 -0.1469  0.3209
   51MOL   H15411254   7.368   4.391   0.428  0.6869  0.5535 -0.5620
   51MOL   H15511255   7.612   4.364   0.464 -0.6776  0.5894 -1.4109
   51MOL   C15611256   7.957   4.253   0.719  0.4891 -0.5734  0.4839
   51MOL   C15711257   7.903   4.243   0.593 -0.0304  0.3528  0.8549
   51MOL   C15811258   7.801   4.156   0.561  0.0814  0.7681 -0.1235
   51MOL   C15911259   7.745   4.075   0.663 -0.5468 -0.1617  0.1602
   51MOL   C16011260   7.803   4.079   0.792  0.2005  0.2646 -0.1042
   51MOL   C16111261   7.910   4.163   0.821  0.1422 -0.1579 -0.4013
   51MOL   O16211262   7.966   4.148   0.947 -0.3846  0.0811 -0.5881
   51MOL   H16311263   8.044   4.317   0.729  0.3568 -0.0784 -1.3428
   51MOL   H16411264   7.934   4.315   0.519 -1.4485  1.1193  0.9835
   51MOL   H16511265   7.665   4.007   0.638 -1.1542  0.7703 -0.4604
   51MOL   H16611266   7.777   4.001   0.862  1.3750  0.0928  0.1527
   51MOL   C16711267   0.037   3.998   0.873 -0.2513  0.9504 -0.1246
   51MOL   C16811268   8.153   4.010   0.878  0.9702  0.0650  0.5701
   51MOL   C16911269   8.101   4.123   0.943  0.0354 -0.0417 -0.2289
   51MOL   C17011270   8.184   4.227   1.000  0.1133  0.0601  0.4189
   51MOL   C17111271   0.076   4.212   0.985  0.6280  0.1321  0.2610
   51MOL   C17211272   0.124   4.094   0.922 -0.7946 -0.1913 -0.2740
   51MOL   O17311273   0.257   4.065   0.917  0.0104 -0.2682 -0.4467
   51MOL   H17411274   0.079   3.912   0.822 -1.3541  1.0138 -1.1863
   51MOL   H17511275   8.080   3.938   0.844 -0.0606  0.6074  1.6356
   51MOL   H17611276   8.151   4.314   1.055  1.0666  0.5492  0.2169
   51MOL   H17711277   0.130   4.292   1.033 -0.5639  0.4034  1.1889
   51MOL   C17811278   0.429   3.948   1.234 -0.5298  1.0226 -0.4498
   51MOL   C17911279   0.348   3.948   1.118 -0.6217  0.1574 -0.2051
   51MOL   C18011280   0.338   4.065   1.031 -0.0668 -0.1773  0.2344
   51MOL   C18111281   0.418   4.173   1.064 -0.1439 -0.9847 -0.1102
   51MOL   C18211282   0.496   4.178   1.182  0.2164 -0.2910 -0.0863
   51MOL   C18311283   0.504   4.065   1.266 -0.7808  0.4834  0.1701
   51MOL   O18411284   0.578   4.081   1.383 -0.1367  0.0409  0.1797
   51MOL   H18511285   0.430   3.866   1.304 -0.7513  1.9236  0.6220
   51MOL   H18611286   0.278   3.868   1.098  1.6465 -1.9421 -0.0311
   51MOL   H18711287   0.389   4.263   1.013  1.1809 -0.0662  0.7442
   51MOL   H18811288   0.562   4.256   1.217  0.9409 -1.6456  1.6439
   51MOL   C18911289   0.606   3.821   1.651  0.2459  0.7477  0.0054
   51MOL   C19011290   0.630   3.890   1.530 -0.2077 -0.4617  0.2063
   51MOL   C19111291   0.553   4.003   1.490  0.5480 -0.0822 -0.0890
   51MOL   C19211292   0.457   4.049   1.578  0.0527  0.0573 -0.5308
   51MOL   C19311293   0.434   3.981   1.702  0.7195 -0.0359 -0.6045
   51MOL   C19411294   0.505   3.867   1.740  0.0094  0.2604 -0.2498
   51MOL   O19511295   0.478   3.801   1.860  0.2980 -0.1980 -0.4134
   51MOL   H19611296   0.666   3.739   1.686 -0.1232  0.7656  0.6899
   51MOL   H19711297   0.701   3.843   1.464  1.1865  1.2503  0.4434
   51MOL   H19811298   0.400   4.139   1.560  1.5692  1.3078  0.7761
   51MOL   H19911299   0.355   4.017   1.766  1.5387 -1.9057  1.5268
   51MOL   C20011300   0.149   3.631   1.877  0.0596  0.7333  0.3918
   51MOL   C20111301   0.255   3.722   1.901 -0.9404  0.0309  0.1203
   51MOL   C20211302   0.389   3.692   1.861 -0.4542  0.1330 -0.3005
   51MOL   C20311303   0.418   3.556   1.825  0.2152  0.3202 -0.5922
   51MOL   C20411304   0.322   3.459   1.801  0.3060  0.1454  0.1436
   51MOL   C20511305   0.188   3.499   1.830 -0.2550 -0.3958  1.0415
   51MOL   O20611306   0.090   3.409   1.800  0.4752  0.0490  0.1709
   51MOL   H20711307   0.044   3.651   1.890 -0.2601 -0.2924 -0.5170
   51MOL   H20811308   0.239   3.826   1.925 -0.0675  0.9005 -2.8314
   51MOL   H20911309   0.521   3.538   1.798  0.7206  1.2492  0.6680
   51MOL   H21011310   0.359   3.367   1.759 -1.6268 -0.0303 -1.2222
   51MOL   C21111311   0.064   3.183   2.085 -1.0015 -0.2368  0.3173
   51MOL   C21211312   0.054   3.298   2.006  0.0539 -0.2928  0.8509
   51MOL   C21311313   0.085   3.297   1.867 -0.0513  0.7982  0.0488
   51MOL   C21411314   0.106   3.171   1.802 -0.7568 -0.5342 -0.1354
   51MOL   C21511315   0.103   3.054   1.877  0.8243 -0.2281 -0.5116
   51MOL   C21611316   0.087   3.060   2.016 -0.4653  0.7888  0.0034
   51MOL   O21711317   0.098   2.942   2.088 -0.2120 -0.0261  0.3383
   51MOL   H21811318   0.053   3.184   2.193  1.9036 -2.9500  0.7564
   51MOL   H21911319   0.030   3.393   2.052 -2.3013 -0.4101 -0.0634
   51MOL   H22011320   0.135   3.175   1.698 -1.4793  0.4374 -0.3195
   51MOL   H22111321   0.131   2.958   1.835 -2.4397 -2.1445  1.5257
   51MOL   H22211322   0.105   2.867   2.031 -2.2133  0.3154 -0.3901
   52MOL     C111323   4.478   2.268   3.798 -0.4601  0.7638  0.2368
   52MOL     C211324   4.450   2.354   3.908  0.0171  0.1136  0.2743
   52MOL     C311325   4.478   2.305   4.040  0.3062 -0.1872 -0.1544
   52MOL     C411326   4.536   2.176   4.057 -0.1083  0.3214  0.2143
   52MOL     C511327   4.573   2.099   3.947  0.3955 -0.8227  0.4556
   52MOL     C611328   4.546   2.144   3.815  0.4280 -0.5929  0.0490
   52MOL     O711329   4.581   2.068   3.703  0.6770 -0.5499  0.2301
   52MOL     H811330   4.456   2.286   3.694  1.2439 -0.8953 -0.4367
   52MOL     H911331   4.411   2.454   3.895 -1.6430 -0.4897  0.4974
   52MOL    H1011332   4.556   2.151   4.160 -0.5613  3.1355  1.0171
   52MOL    H1111333   4.629   2.008   3.962 -0.1521 -1.4846 -1.3487
   52MOL    H1211334   4.458   2.371   4.123  0.4214  0.2495 -0.4719
   52MOL    C1311335   4.692   1.723   3.785  0.5833 -0.1447 -0.1135
   52MOL    C1411336   4.692   1.864   3.768  0.1365 -0.0795 -0.2739
   52MOL    C1511337   4.580   1.933   3.717  0.1208 -0.4974 -0.0471
   52MOL    C1611338   4.471   1.857   3.671 -0.0757  0.1629  0.2107
   52MOL    C1711339   4.477   1.720   3.668  0.4587 -0.4196  0.1920
   52MOL    C1811340   4.584   1.652   3.731  0.1534  1.0144 -0.4726
   52MOL    O1911341   4.581   1.509   3.744  0.5170  0.2252  0.1875
   52MOL    H2011342   4.766   1.662   3.834  0.6058 -1.2983 -1.5412
   52MOL    H2111343   4.783   1.916   3.797  1.3802 -0.8448 -2.6531
   52MOL    H2211344   4.383   1.903   3.628 -1.8851 -1.6043  1.9426
   52MOL    H2311345   4.399   1.661   3.624  1.5041  0.8889 -3.6571
   52MOL    C2411346   4.350   1.417   4.009  0.1903 -0.4654 -0.1288
   52MOL    C2511347   4.397   1.489   3.900  0.4144 -0.2660 -0.0616
   52MOL    C2611348   4.529   1.460   3.857 -0.7780  0.4668 -0.5285
   52MOL    C2711349   4.612   1.359   3.924  0.1560  0.8720 -0.4071
   52MOL    C2811350   4.555   1.300   4.038 -0.0592  0.0156 -0.1135
   52MOL    C2911351   4.425   1.322   4.082 -0.4859  0.3859 -0.7124
   52MOL    O3011352   4.370   1.245   4.187 -0.0974  0.7507 -0.0392
   52MOL    H3111353   4.254   1.457   4.040  0.8602  0.1245  1.2336
   52MOL    H3211354   4.334   1.560   3.847  1.8391  3.1671  2.6549
   52MOL    H3311355   4.701   1.323   3.874  0.1198 -0.4404  0.4535
   52MOL    H3411356   4.606   1.223   4.094  1.4338  1.1393  0.1275
   52MOL    C3511357   4.037   1.348   4.299  0.0199 -0.9186  0.3005
   52MOL    C3611358   4.181   1.338   4.296 -0.0458 -0.1271 -0.2561
   52MOL    C3711359   4.237   1.246   4.208 -0.1515  0.4025 -0.0729
   52MOL    C3811360   4.154   1.149   4.137 -0.1292  0.5871  0.3699
   52MOL    C3911361   4.011   1.170   4.137 -0.1171 -0.0602 -0.2324
   52MOL    C4011362   3.953   1.264   4.221 -0.0581 -0.4681  0.2371
   52MOL    O4111363   3.823   1.303   4.206 -0.1483  0.3438  0.2521
   52MOL    H4211364   3.992   1.430   4.353  0.6531 -0.7669  0.6112
   52MOL    H4311365   4.240   1.407   4.356  0.4388 -1.0877  0.4003
   52MOL    H4411366   4.205   1.067   4.089 -3.6751 -3.2022  2.7527
   52MOL    H4511367   3.944   1.111   4.077 -0.2222  0.6622 -0.8421
   52MOL    C4611368   3.610   1.185   4.486  1.0479 -0.5936 -0.1935
   52MOL    C4711369   3.695   1.182   4.376 -1.0988  0.4954  0.7955
   52MOL    C4811370   3.738   1.302   4.312 -0.4027  0.7803  0.5011
   52MOL    C4911371   3.694   1.421   4.362  0.0487 -0.1757 -0.0821
   52MOL    C5011372   3.612   1.429   4.475  0.1608  0.1966 -1.3888
   52MOL    C5111373   3.577   1.311   4.544 -0.1553  0.4964  0.0008
   52MOL    O5211374   3.516   1.314   4.661 -0.9450 -0.1755  0.4981
   52MOL    H5311375   3.586   1.094   4.539 -1.7624  0.8415  1.0684
   52MOL    H5411376   3.726   1.087   4.336 -0.2164  1.0738  0.0904
   52MOL    H5511377   3.732   1.513   4.321 -0.0105  0.0779  0.4390
   52MOL    H5611378   3.592   1.533   4.499  1.3287 -0.1485  1.2635
   52MOL    C5711379   3.269   1.539   4.821  0.6893  0.5587  0.4179
   52MOL    C5811380   3.375   1.449   4.802 -0.1435 -1.2618 -0.6400
   52MOL    C5911381   3.405   1.394   4.676  0.0441  0.3573  0.3329
   52MOL    C6011382   3.321   1.420   4.570  0.4074  0.3473 -0.4976
   52MOL    C6111383   3.211   1.507   4.588 -0.3403  0.6567  0.0142
   52MOL    C6211384   3.186   1.571   4.713  1.0126  0.6704  0.1812
   52MOL    O6311385   3.091   1.674   4.727 -0.2847 -0.2008  0.4001
   52MOL    H6411386   3.250   1.570   4.923 -1.0408  0.4707  0.1417
   52MOL    H6511387   3.436   1.422   4.887 -0.1368  0.3307 -0.1249
   52MOL    H6611388   3.342   1.372   4.476  1.0015  0.3692 -0.3790
   52MOL    H6711389   3.155   1.519   4.497  1.8952 -1.2276 -1.6842
   52MOL    C6811390   3.090   1.862   5.047  0.9759  0.0959 -0.5027
   52MOL    C6911391   3.064   1.763   4.950 -0.5317  0.4065 -0.1843
   52MOL    C7011392   3.114   1.776   4.819  0.5292 -0.3757 -0.1355
   52MOL    C7111393   3.177   1.892   4.778  0.4403 -0.1301 -0.3532
   52MOL    C7211394   3.196   2.002   4.875 -0.0747 -0.4706  0.0329
   52MOL    C7311395   3.153   1.982   5.008  0.4275  0.2802  0.2835
   52MOL    O7411396   3.167   2.079   5.097 -0.1018  0.2526 -0.1294
   52MOL    H7511397   3.056   1.843   5.148  0.1823 -0.1043 -0.8032
   52MOL    H7611398   3.016   1.671   4.979 -0.1918  0.4377  0.4840
   52MOL    H7711399   3.206   1.899   4.675  0.0993 -0.5187 -0.4805
   52MOL    H7811400   3.237   2.098   4.847  0.5272 -0.6637  0.2321
   52MOL    C7911401   3.170   2.036   5.463 -0.3355  0.4185 -0.3758
   52MOL    C8011402   3.121   2.048   5.330  0.7965  0.2178 -0.0956
   52MOL    C8111403   3.212   2.057   5.224  0.5021  0.1356 -0.0163
   52MOL    C8211404   3.350   2.055   5.250  0.2275  0.1388 -0.1223
   52MOL    C8311405   3.394   2.051   5.382 -0.0811 -0.0937  0.0825
   52MOL    C8411406   3.308   2.045   5.492  0.3129 -0.5333  0.4382
   52MOL    O8511407   3.353   2.040   5.621 -0.0360  0.3095  0.1194
   52MOL    H8611408   3.101   2.016   5.544 -2.8049  0.9632 -2.2657
   52MOL    H8711409   3.016   2.037   5.308  1.6080 -2.5840 -3.1056
   52MOL    H8811410   3.429   2.052   5.176 -0.1019 -0.6688 -0.4511
   52MOL    H8911411   3.501   2.048   5.399  0.1562  0.6416 -1.2522
   52MOL    C9011412   3.338   2.378   5.777 -0.8047  0.5298  0.6656
   52MOL    C9111413   3.381   2.269   5.693  0.0573 -0.0307  0.2827
   52MOL    C9211414   3.315   2.144   5.700  0.3580 -0.1889  0.0470
   52MOL    C9311415   3.214   2.124   5.796 -0.2387  0.0810  0.6809
   52MOL    C9411416   3.183   2.224   5.884  0.4719 -0.3022  0.3142
   52MOL    C9511417   3.237   2.351   5.875  0.2759  0.5332  0.1195
   52MOL    O9611418   3.210   2.449   5.963 -0.1331  0.4896 -0.2172
   52MOL    H9711419   3.386   2.475   5.774 -0.6235  0.4263  0.2291
   52MOL    H9811420   3.457   2.293   5.620 -1.0297  0.9475 -0.5379
   52MOL    H9911421   3.170   2.026   5.792 -2.0681  0.8252  1.7127
   52MOL   H10011422   3.121   2.201   5.969  1.0952  0.0046  0.8542
   52MOL   C10111423   2.958   2.682   5.825 -0.2894  0.6846 -0.1680
   52MOL   C10211424   3.027   2.563   5.858  0.3439  0.1113 -0.2882
   52MOL   C10311425   3.151   2.564   5.914 -0.3270  0.4427 -0.3544
   52MOL   C10411426   3.226   2.683   5.912 -0.3916 -0.2939  0.8678
   52MOL   C10511427   3.170   2.796   5.857  0.4769 -0.0071  0.9954
   52MOL   C10611428   3.033   2.802   5.820  0.9227 -0.4191  0.3158
   52MOL   O10711429   2.966   2.914   5.772  0.2263 -0.6562 -0.6979
   52MOL   H10811430   2.854   2.687   5.798 -0.2704  0.7106 -0.2375
   52MOL   H10911431   2.969   2.472   5.854 -0.0833  0.4591 -2.8169
   52MOL   H11011432   3.326   2.697   5.952 -0.5235 -1.6864  1.7282
   52MOL   H11111433   3.219   2.892   5.849 -1.0195  0.7545  0.7785
   52MOL   C11211434   3.141   3.081   5.498 -0.3649  0.3503  0.1458
   52MOL   C11311435   3.079   2.975   5.572 -0.7973 -0.5462  0.3555
   52MOL   C11411436   3.033   3.006   5.697  0.1477 -1.9391  0.7148
   52MOL   C11511437   3.041   3.141   5.744  0.8507 -0.2557  0.3862
   52MOL   C11611438   3.113   3.235   5.678 -0.1138 -0.0077 -0.4603
   52MOL   C11711439   3.172   3.202   5.556 -0.2318  0.3533  0.1298
   52MOL   O11811440   3.234   3.296   5.479  0.1877 -0.5298 -0.0591
   52MOL   H11911441   3.167   3.052   5.398 -0.6463  1.4356 -0.2514
   52MOL   H12011442   3.050   2.877   5.536 -1.9001 -0.1716  0.1864
   52MOL   H12111443   2.998   3.164   5.841  2.8080 -2.0118  1.7319
   52MOL   H12211444   3.134   3.326   5.732  0.9334  0.3445 -1.4470
   52MOL   C12311445   3.461   3.576   5.588  0.0806 -0.4739 -0.5531
   52MOL   C12411446   3.355   3.505   5.524  0.3733 -0.1867 -1.0080
   52MOL   C12511447   3.339   3.366   5.542 -0.3119  0.4241  0.1923
   52MOL   C12611448   3.434   3.302   5.623  0.3171  0.0476 -0.0074
   52MOL   C12711449   3.537   3.372   5.688  0.0666  0.2291 -0.1340
   52MOL   C12811450   3.555   3.507   5.671 -0.3502  0.2795  0.1545
   52MOL   O12911451   3.666   3.568   5.723 -0.3610  0.2251  0.5450
   52MOL   H13011452   3.481   3.682   5.580 -2.1729 -0.0542 -0.9495
   52MOL   H13111453   3.282   3.557   5.463 -0.7785 -3.0698 -2.1490
   52MOL   H13211454   3.437   3.195   5.639 -0.1928 -0.3820 -2.5800
   52MOL   H13311455   3.607   3.313   5.745  0.4360 -0.6476 -1.4528
   52MOL   C13411456   3.720   3.876   5.916 -0.0590 -0.0958 -0.5950
   52MOL   C13511457   3.742   3.774   5.823 -0.1121 -0.1065 -0.2316
   52MOL   C13611458   3.646   3.670   5.813 -0.1758 -0.3964 -0.5941
   52MOL   C13711459   3.534   3.666   5.902 -0.2928 -0.2119 -0.0789
   52MOL   C13811460   3.515   3.766   5.999  0.4872 -0.2248  0.9523
   52MOL   C13911461   3.607   3.883   5.999  0.1315  0.1653 -0.1669
   52MOL   O14011462   3.603   3.975   6.101 -0.1877  0.0662  0.1001
   52MOL   H14111463   3.796   3.951   5.926  0.7519 -1.0903  0.9891
   52MOL   H14211464   3.816   3.776   5.745 -0.4011 -0.8968 -0.5374
   52MOL   H14311465   3.468   3.581   5.895 -2.4628  1.3208  1.1747
   52MOL   H14411466   3.436   3.764   6.073 -1.1550 -1.4005 -0.7953
   52MOL   C14511467   3.599   3.795   6.428  0.2780 -1.0111 -0.6139
   52MOL   C14611468   3.619   3.821   6.293 -0.1101  0.9749  0.3531
   52MOL   C14711469   3.582   3.941   6.232  0.2504 -0.2581  0.6934
   52MOL   C14811470   3.522   4.036   6.314  0.2616  0.5980 -0.1181
   52MOL   C14911471   3.499   4.009   6.449  0.0919  0.3892  0.0220
   52MOL   C15011472   3.533   3.890   6.504 -0.3899 -0.2220 -0.1292
   52MOL   O15111473   3.495   3.855   6.636 -0.6373 -0.1256  0.0382
   52MOL   H15211474   3.634   3.704   6.475  0.5118 -0.2142  0.7820
   52MOL   H15311475   3.668   3.744   6.235 -0.9399 -0.9409  2.1532
   52MOL   H15411476   3.493   4.130   6.269  0.0725  1.6190  2.0384
   52MOL   H15511477   3.471   4.080   6.525  2.3921  0.7139  0.6011
   52MOL   C15611478   3.270   3.611   6.805 -0.1060  1.3213  0.6172
   52MOL   C15711479   3.384   3.691   6.773 -0.0202 -0.3340 -0.0155
   52MOL   C15811480   3.384   3.772   6.659  0.0304 -0.7005  0.1571
   52MOL   C15911481   3.274   3.766   6.569 -0.4583  0.5811 -0.6097
   52MOL   C16011482   3.168   3.672   6.595  0.0884  0.2661 -0.4820
   52MOL   C16111483   3.164   3.597   6.718 -0.0867 -1.2809 -0.3155
   52MOL   O16211484   3.059   3.534   6.778  0.3331  0.1042  0.2041
   52MOL   H16311485   3.257   3.558   6.898  0.4988 -1.5878 -0.8908
   52MOL   H16411486   3.462   3.700   6.848  0.8713  1.3460 -1.1135
   52MOL   H16511487   3.279   3.822   6.476 -0.9310  2.2385  0.3428
   52MOL   H16611488   3.091   3.665   6.520 -1.7979  0.1301  1.4293
   52MOL   C16711489   2.773   3.462   6.553 -0.1615 -0.1428 -0.1671
   52MOL   C16811490   2.854   3.539   6.644 -0.1667 -0.3241 -0.2778
   52MOL   C16911491   2.963   3.473   6.705 -0.2204  0.0162 -0.0650
   52MOL   C17011492   2.985   3.338   6.685  0.2301  0.5956 -0.1487
   52MOL   C17111493   2.895   3.267   6.607  0.2783  0.7875  0.3651
   52MOL   C17211494   2.792   3.324   6.533 -0.6340  0.4134  0.3179
   52MOL   O17311495   2.718   3.241   6.445 -0.2382 -0.3312  0.1576
   52MOL   H17411496   2.703   3.521   6.496 -1.5651 -1.8085 -0.2042
   52MOL   H17511497   2.844   3.645   6.662  0.2681 -0.1239 -1.2059
   52MOL   H17611498   3.054   3.278   6.743 -0.4242  1.6665  1.7632
   52MOL   H17711499   2.912   3.160   6.601  0.1993  0.7878  0.1409
   52MOL   C17811500   2.397   3.114   6.554  0.2367 -0.5073 -0.4512
   52MOL   C17911501   2.490   3.206   6.511 -0.4338  0.3778 -0.2079
   52MOL   C18011502   2.622   3.159   6.488 -0.1427  0.0405 -0.1789
   52MOL   C18111503   2.662   3.023   6.499 -0.6395  0.1902 -0.3260
   52MOL   C18211504   2.561   2.939   6.552 -0.3702 -0.0723  1.3874
   52MOL   C18311505   2.431   2.980   6.586  0.4861 -0.1767  0.3138
   52MOL   O18411506   2.334   2.897   6.638  0.2762  0.7071 -0.2124
   52MOL   H18511507   2.295   3.151   6.562  1.0720  1.8643 -0.4396
   52MOL   H18611508   2.481   3.313   6.496  2.1196  0.4462 -1.4652
   52MOL   H18711509   2.761   2.984   6.482 -1.2943 -0.9702 -1.5603
   52MOL   H18811510   2.589   2.839   6.584 -1.2383 -0.7049  0.2174
   52MOL   C18911511   2.096   2.854   6.356 -0.6794 -0.5717  0.1384
   52MOL   C19011512   2.210   2.887   6.428  0.0653  0.2585 -0.6185
   52MOL   C19111513   2.213   2.890   6.569  0.2077 -0.7530  0.1685
   52MOL   C19211514   2.092   2.868   6.647  0.1156 -0.3969 -0.7911
   52MOL   C19311515   1.976   2.829   6.570  0.2635 -0.0995 -0.2494
   52MOL   C19411516   1.982   2.824   6.429  0.1872  0.0137  0.4967
   52MOL   O19511517   1.866   2.790   6.363 -0.0899 -0.5274  0.2244
   52MOL   H19611518   2.090   2.853   6.248  0.3552 -0.4286  0.0727
   52MOL   H19711519   2.300   2.904   6.371  0.9087 -0.7450  0.4054
   52MOL   H19811520   2.103   2.853   6.753  0.1691 -2.2001 -1.0221
   52MOL   H19911521   1.893   2.780   6.619  0.4107  0.4815  0.5852
   52MOL   C20011522   1.739   2.444   6.381 -0.3112  0.4698 -0.1217
   52MOL   C20111523   1.763   2.584   6.404  0.1156  0.0813 -0.1911
   52MOL   C20211524   1.851   2.657   6.326 -0.4457 -0.1469  0.0656
   52MOL   C20311525   1.895   2.599   6.208  0.9317 -0.0338 -0.2886
   52MOL   C20411526   1.868   2.466   6.178  0.4916  0.2349 -0.0145
   52MOL   C20511527   1.794   2.386   6.266 -0.0399  0.3207  0.1733
   52MOL   O20611528   1.760   2.256   6.238  0.3096 -0.4501 -0.8309
   52MOL   H20711529   1.676   2.386   6.446  0.9322 -0.0341  0.6583
   52MOL   H20811530   1.721   2.638   6.488 -1.2049  0.9198 -1.3776
   52MOL   H20911531   1.949   2.661   6.137  1.4549 -1.4529 -1.1559
   52MOL   H21011532   1.895   2.418   6.085  0.7428  0.8799 -0.2773
   52MOL   C21111533   2.085   2.071   6.240  0.0364  0.0250  0.0811
   52MOL   C21211534   1.988   2.165   6.268 -0.4148  0.6258  0.1563
   52MOL   C21311535   1.865   2.169   6.206 -0.8106  0.7162 -0.1816
   52MOL   C21411536   1.838   2.059   6.121 -0.5144  0.2261  0.1760
   52MOL   C21511537   1.929   1.960   6.087 -0.6273  0.3307  0.3585
   52MOL   C21611538   2.062   1.971   6.142  0.0140 -0.0282  0.1202
   52MOL   O21711539   2.161   1.880   6.109  0.0974  0.0268  0.1162
   52MOL   H21811540   2.187   2.074   6.276 -0.4444  1.6870  1.3728
   52MOL   H21911541   1.992   2.241   6.345 -0.5776  0.3779  0.4154
   52MOL   H22011542   1.741   2.041   6.077 -0.6226  1.1645  0.0337
   52MOL   H22111543   1.909   1.884   6.013 -1.6518  0.4253  0.5352
   52MOL   H22211544   2.220   1.859   6.179  2.2691  0.0386 -1.6647
   53MOL     C111545   7.927   0.765   1.301 -0.3492 -0.2142 -0.0332
   53MOL     C211546   7.923   0.657   1.387 -0.4744 -0.2194  0.3849
   53MOL     C311547   7.869   0.531   1.353  1.4508 -0.5129 -0.0888
   53MOL     C411548   7.819   0.514   1.225  0.4752 -0.1018 -0.0619
   53MOL     C511549   7.826   0.617   1.134  0.8189  0.4520  0.0121
   53MOL     C611550   7.881   0.749   1.170  0.4424  0.6146  0.1760
   53MOL     O711551   7.870   0.860   1.092 -0.6926 -0.0998  0.4089
   53MOL     H811552   7.964   0.864   1.322  1.3978 -0.9570  0.5053
   53MOL     H911553   7.962   0.673   1.486 -0.2948  1.9092 -0.0160
   53MOL    H1011554   7.783   0.419   1.190 -3.1064  0.8512  0.8527
   53MOL    H1111555   7.792   0.598   1.033  0.6385  0.0971  0.1385
   53MOL    H1211556   7.872   0.453   1.428  1.6294  1.8359  2.4206
   53MOL    C1311557   7.915   0.787   0.730 -0.4660  0.0927 -0.1489
   53MOL    C1411558   7.947   0.798   0.868 -0.0796 -0.0657  0.2746
   53MOL    C1511559   7.848   0.849   0.956  0.3664  0.4436 -0.3566
   53MOL    C1611560   7.722   0.882   0.913  0.0963 -0.5767 -0.2704
   53MOL    C1711561   7.697   0.875   0.772 -0.6736  1.0806  0.5098
   53MOL    C1811562   7.796   0.837   0.679  1.1144 -0.6636  0.0045
   53MOL    O1911563   7.773   0.840   0.544  0.2846  0.6389 -0.0101
   53MOL    H2011564   7.984   0.744   0.660  0.3706  2.3088 -0.7234
   53MOL    H2111565   8.043   0.767   0.906 -0.1144 -0.6316 -0.0856
   53MOL    H2211566   7.643   0.900   0.984 -0.7948 -0.7338 -1.2168
   53MOL    H2311567   7.600   0.908   0.736 -0.9307  0.3229  0.4890
   53MOL    C2411568   7.841   0.542   0.347  0.2804 -0.7303  0.7761
   53MOL    C2511569   7.862   0.651   0.433  0.1764  0.3228  0.2563
   53MOL    C2611570   7.754   0.723   0.476 -0.1044  0.3576 -0.7245
   53MOL    C2711571   7.619   0.681   0.456  0.1327 -0.1564 -0.4017
   53MOL    C2811572   7.603   0.566   0.385 -0.4405  0.2038 -0.4041
   53MOL    C2911573   7.709   0.499   0.321 -0.7083 -0.3710 -0.1257
   53MOL    O3011574   7.684   0.391   0.234 -0.6362  0.0376  0.3022
   53MOL    H3111575   7.928   0.490   0.311  0.7101 -0.6339  1.6782
   53MOL    H3211576   7.967   0.676   0.445  0.7198 -0.5716 -2.3527
   53MOL    H3311577   7.534   0.735   0.496  0.6057 -0.0988  0.5431
   53MOL    H3411578   7.503   0.528   0.370 -1.1113  2.1077 -0.8591
   53MOL    C3511579   7.368   0.319   0.070  0.0792 -0.3503 -0.0725
   53MOL    C3611580   7.461   0.331   0.173 -0.3715  0.5332  0.2760
   53MOL    C3711581   7.585   0.387   0.137 -0.7071  0.8831 -0.7096
   53MOL    C3811582   7.613   0.441   0.013 -0.1635  0.1091  0.1880
   53MOL    C3911583   7.513   0.440   8.171 -0.5471  0.0902  0.4195
   53MOL    C4011584   7.391   0.370   8.198  0.0294  0.1008 -0.1975
   53MOL    O4111585   7.287   0.370   8.104 -0.4706 -0.0594 -0.3836
   53MOL    H4211586   7.272   0.273   0.084 -0.2202  0.5064  0.7463
   53MOL    H4311587   7.438   0.287   0.269  0.0236 -0.9653 -0.2988
   53MOL    H4411588   7.708   0.489   8.244  0.3081  0.0473  1.9474
   53MOL    H4511589   7.528   0.492   8.077 -0.4194 -1.7895 -0.6288
   53MOL    C4611590   7.223   0.640   7.857  0.1579  0.8553  0.2503
   53MOL    C4711591   7.228   0.576   7.982  0.2059 -0.3349  0.1482
   53MOL    C4811592   7.299   0.454   7.992 -0.9879  0.0195  0.4796
   53MOL    C4911593   7.368   0.402   7.882 -0.0403  0.0118 -0.7760
   53MOL    C5011594   7.376   0.472   7.763 -0.0218 -0.3209  0.0498
   53MOL    C5111595   7.303   0.589   7.746 -0.5504  0.6173  1.1218
   53MOL    O5211596   7.300   0.651   7.621  0.1948 -0.1998  0.1262
   53MOL    H5311597   7.168   0.733   7.850 -0.5642  0.4430  0.4164
   53MOL    H5411598   7.173   0.609   8.069 -0.4431  1.1439 -0.8098
   53MOL    H5511599   7.415   0.305   7.895 -2.5264 -1.1127  0.2926
   53MOL    H5611600   7.430   0.425   7.682 -1.2214 -1.8546  0.1175
   53MOL    C5711601   7.367   1.012   7.613  0.3269  0.5288 -0.2278
   53MOL    C5811602   7.311   0.887   7.657  0.9020  0.0547  0.2849
   53MOL    C5911603   7.368   0.768   7.612 -0.0574 -0.2901 -0.2348
   53MOL    C6011604   7.496   0.764   7.551  0.4990  1.2456 -0.3504
   53MOL    C6111605   7.557   0.891   7.522 -0.1690 -0.1729 -0.3738
   53MOL    C6211606   7.483   1.011   7.539 -0.4488 -0.5800 -0.6136
   53MOL    O6311607   7.526   1.136   7.484  0.0694  0.3762 -0.2889
   53MOL    H6411608   7.316   1.105   7.630  1.4865  0.7846  2.0082
   53MOL    H6511609   7.211   0.889   7.698  0.1388 -1.0076 -1.4564
   53MOL    H6611610   7.533   0.669   7.517 -0.1988  1.0291 -0.5148
   53MOL    H6711611   7.657   0.897   7.481 -0.4973  1.9418 -0.9252
   53MOL    C6811612   7.707   1.355   7.708 -0.0354  0.0192  0.3183
   53MOL    C6911613   7.604   1.285   7.653 -0.3579 -0.2353  0.8308
   53MOL    C7011614   7.627   1.190   7.555  0.3787  0.3251  1.1784
   53MOL    C7111615   7.761   1.148   7.529 -0.2452 -0.3300  0.1453
   53MOL    C7211616   7.874   1.215   7.582 -0.1358  0.0627  0.9689
   53MOL    C7311617   7.839   1.324   7.676 -0.9806  0.8107 -0.2461
   53MOL    O7411618   7.942   1.395   7.732  0.2201  0.4871  0.7368
   53MOL    H7511619   7.684   1.427   7.785 -0.0973 -0.0956  0.4074
   53MOL    H7611620   7.501   1.302   7.682 -0.1518 -0.3943  1.6654
   53MOL    H7711621   7.777   1.070   7.455 -1.3183 -0.1428 -0.2832
   53MOL    H7811622   7.973   1.190   7.549  0.2804  0.6928  1.7200
   53MOL    C7911623   8.014   1.484   8.076  0.5207 -0.1084  0.4384
   53MOL    C8011624   7.972   1.495   7.940 -1.1401 -0.3910 -0.0846
   53MOL    C8111625   7.968   1.379   7.862 -0.2832  0.2536 -0.2084
   53MOL    C8211626   8.000   1.257   7.918  0.2591 -0.0028  0.5667
   53MOL    C8311627   8.049   1.254   8.049 -0.1133 -0.4237 -0.3402
   53MOL    C8411628   8.046   1.361   8.137 -0.1820 -0.2740 -0.5417
   53MOL    O8511629   8.078   1.341   0.013 -0.1613 -0.5844  0.0382
   53MOL    H8611630   8.013   1.571   8.140 -0.8182  0.7205 -0.7024
   53MOL    H8711631   7.952   1.594   7.902 -0.7915 -0.2508  0.0923
   53MOL    H8811632   7.998   1.177   7.845 -1.0075  1.8875 -1.5130
   53MOL    H8911633   8.080   1.152   8.068  0.8181 -0.2765 -1.0688
   53MOL    C9011634   7.945   1.548   0.286  0.1912  1.4826  0.0283
   53MOL    C9111635   7.967   1.450   0.192  0.6601  0.7285 -0.4046
   53MOL    C9211636   8.078   1.442   0.104 -0.3556  0.3614 -0.0975
   53MOL    C9311637   8.198   1.518   0.138  0.2114  0.3846 -0.0695
   53MOL    C9411638   8.184   1.617   0.239 -0.1345  0.0337 -0.2277
   53MOL    C9511639   8.057   1.631   0.315  0.3070  0.1238 -0.2171
   53MOL    O9611640   8.055   1.720   0.411 -0.2473 -0.3183  0.0698
   53MOL    H9711641   7.863   1.532   0.354  0.1163  1.3434 -0.0941
   53MOL    H9811642   7.896   1.370   0.178 -1.4758  2.4420  0.3628
   53MOL    H9911643   0.032   1.488   0.085  0.5551  1.6551 -0.2329
   53MOL   H10011644   0.019   1.673   0.264  0.8137 -0.7136 -1.8007
   53MOL   C10111645   8.208   1.568   0.717 -0.5215 -0.2411  0.1170
   53MOL   C10211646   8.162   1.584   0.586  0.1625 -0.4162  0.3512
   53MOL   C10311647   8.095   1.702   0.545  0.7121  0.4126  0.0175
   53MOL   C10411648   8.071   1.806   0.635 -0.1331 -0.4418 -0.2654
   53MOL   C10511649   8.115   1.793   0.768  0.0406  0.3451  0.7398
   53MOL   C10611650   8.178   1.672   0.811 -0.5016 -0.9806  0.4631
   53MOL   O10711651   8.210   1.652   0.942 -0.9912 -0.3505 -0.0446
   53MOL   H10811652   8.247   1.473   0.750 -1.1139 -0.9453 -1.1546
   53MOL   H10911653   8.185   1.503   0.518  2.2260  1.5886 -1.4554
   53MOL   H11011654   8.013   1.888   0.597 -0.1623 -0.8053 -1.0037
   53MOL   H11111655   8.090   1.876   0.832  1.4635  0.5637  1.0440
   53MOL   C11211656   8.028   1.652   1.263  0.4725  0.0713 -0.0859
   53MOL   C11311657   8.132   1.671   1.165 -0.8529  0.8170 -0.4748
   53MOL   C11411658   8.115   1.621   1.033 -0.3855  0.0383 -0.7553
   53MOL   C11511659   7.995   1.555   1.001 -0.1676 -0.9377  1.2070
   53MOL   C11611660   7.902   1.534   1.099  1.1459  0.2899  0.3118
   53MOL   C11711661   7.909   1.586   1.228  0.0584 -0.5901  0.7289
   53MOL   O11811662   7.802   1.582   1.311  0.5300  0.4781 -0.5169
   53MOL   H11911663   8.041   1.698   1.360  0.0422 -0.2870  0.1449
   53MOL   H12011664   8.227   1.719   1.182  0.1497 -1.0181 -0.7531
   53MOL   H12111665   7.990   1.512   0.902  2.1183  0.6823  0.3526
   53MOL   H12211666   7.805   1.494   1.072  0.4665  0.1920  2.7794
   53MOL   C12311667   7.758   1.493   1.672  0.3055 -0.5866  0.3206
   53MOL   C12411668   7.785   1.568   1.556 -0.6275 -0.3981  0.7598
   53MOL   C12511669   7.808   1.505   1.428 -0.6369 -0.4677 -0.4130
   53MOL   C12611670   7.806   1.364   1.424 -0.2882  0.4287  0.1887
   53MOL   C12711671   7.794   1.291   1.547  0.2752 -0.2844 -0.4562
   53MOL   C12811672   7.768   1.356   1.673 -0.2621 -0.5059 -0.3974
   53MOL   O12911673   7.746   1.278   1.787  0.5713  0.6373  0.3878
   53MOL   H13011674   7.730   1.546   1.761 -0.5821  0.9385 -0.8392
   53MOL   H13111675   7.776   1.675   1.561  1.4553 -0.1293 -0.5003
   53MOL   H13211676   7.834   1.325   1.328 -0.9336  2.6595 -0.9235
   53MOL   H13311677   7.781   1.185   1.534  0.7594 -0.2763 -0.9999
   53MOL   C13411678   7.950   1.070   2.002  0.3333 -0.7862 -0.8519
   53MOL   C13511679   7.846   1.124   1.928 -0.0772 -0.1457 -0.2943
   53MOL   C13611680   7.850   1.248   1.870  0.4766  0.2264 -0.4376
   53MOL   C13711681   7.962   1.335   1.891 -0.1702 -0.6840 -0.2219
   53MOL   C13811682   8.068   1.287   1.976  0.3013 -0.4548  0.2451
   53MOL   C13911683   8.063   1.154   2.029 -0.0813  0.4400 -0.0599
   53MOL   O14011684   8.165   1.108   2.114 -0.2025  0.6217  0.5551
   53MOL   H14111685   7.943   0.970   2.043 -0.0341 -0.2925  0.3272
   53MOL   H14211686   7.768   1.052   1.905 -0.8548  0.2609  1.0015
   53MOL   H14311687   7.968   1.431   1.842 -0.3247  0.1103  1.2720
   53MOL   H14411688   8.144   1.359   2.004 -0.2309  0.8603 -1.5689
   53MOL   C14511689   0.093   0.837   1.945 -0.6319 -0.0805 -0.6258
   53MOL   C14611690   0.039   0.967   1.967 -0.8574  0.6712  0.4106
   53MOL   C14711691   8.221   0.986   2.084  0.2265  0.8753  1.0278
   53MOL   C14811692   8.191   0.879   2.172 -0.4918  0.5635  0.5917
   53MOL   C14911693   8.250   0.752   2.149  0.5863  0.0406 -0.1791
   53MOL   C15011694   0.065   0.728   2.029  0.4090  0.1503 -0.2963
   53MOL   O15111695   0.103   0.602   2.003  0.2252 -0.3319 -0.4136
   53MOL   H15211696   0.156   0.825   1.858  0.7216 -0.1747  0.3481
   53MOL   H15311697   0.062   1.043   1.894  0.7384  2.1083  2.3249
   53MOL   H15411698   8.126   0.897   2.256  0.0725 -0.2908  1.2152
   53MOL   H15511699   8.232   0.672   2.219 -0.9471  1.2404  0.8283
   53MOL   C15611700   0.385   0.471   1.820 -0.5455 -0.1321  0.3089
   53MOL   C15711701   0.256   0.496   1.859  0.1948 -0.1429  0.2592
   53MOL   C15811702   0.233   0.577   1.973  0.0582  0.4920  0.2390
   53MOL   C15911703   0.336   0.622   2.052  0.2446 -0.3747  0.3798
   53MOL   C16011704   0.469   0.591   2.018  0.4136 -0.0208 -0.0620
   53MOL   C16111705   0.492   0.524   1.895  0.4293 -0.5279 -0.1551
   53MOL   O16211706   0.622   0.489   1.867  0.5523 -0.1379 -0.5999
   53MOL   H16311707   0.403   0.425   1.724  1.7994  0.4523  0.4397
   53MOL   H16411708   0.171   0.468   1.798 -0.8326 -0.9154  1.9972
   53MOL   H16511709   0.320   0.701   2.124  0.5729 -2.7552  3.1693
   53MOL   H16611710   0.559   0.622   2.069 -0.3177 -0.9885  1.8637
   53MOL   C16711711   0.926   0.326   1.984  0.4004  0.3477 -1.4110
   53MOL   C16811712   0.842   0.421   1.926  0.6615  0.5005 -0.2408
   53MOL   C16911713   0.699   0.403   1.936 -0.7586  0.9791 -0.1685
   53MOL   C17011714   0.646   0.292   2.006  0.5571  0.3401 -0.5039
   53MOL   C17111715   0.731   0.203   2.075 -0.3604 -0.1170  0.1157
   53MOL   C17211716   0.871   0.223   2.064 -0.1787 -0.4743 -0.4616
   53MOL   O17311717   0.961   0.135   2.127  0.8639  0.5856  0.8354
   53MOL   H17411718   1.032   0.342   1.977  0.5215  0.0056 -0.4226
   53MOL   H17511719   0.876   0.504   1.865  0.8444  2.2392  2.1749
   53MOL   H17611720   0.538   0.282   2.013  0.4159  1.2542 -1.2274
   53MOL   H17711721   0.694   0.118   2.131 -1.2411 -0.9245 -1.6615
   53MOL   C17811722   1.022   8.138   1.856  0.7145 -0.0949 -0.1910
   53MOL   C17911723   0.962   8.245   1.938 -0.2174 -0.8843  0.3889
   53MOL   C18011724   1.025   0.040   2.049 -0.2754 -0.0412 -1.0593
   53MOL   C18111725   1.153   8.247   2.085  0.9153  0.2804  0.0710
   53MOL   C18211726   1.206   8.144   2.017 -0.4438 -0.4340 -0.1171
   53MOL   C18311727   1.142   8.081   1.905 -0.1167 -0.5693  0.2809
   53MOL   O18411728   1.192   7.976   1.829 -0.0939  0.6324 -0.9037
   53MOL   H18511729   0.975   8.099   1.767  0.8968  1.5105 -0.9881
   53MOL   H18611730   0.867   0.025   1.899 -0.3133 -0.6068  0.8559
   53MOL   H18711731   1.207   0.036   2.168 -1.6680  0.0469  1.9519
   53MOL   H18811732   1.296   8.096   2.053 -1.2179 -2.3139 -0.6582
   53MOL   C18911733   1.271   7.643   1.968  0.8339 -0.4200  0.6234
   53MOL   C19011734   1.287   7.778   1.935  0.0689 -0.5195 -0.1539
   53MOL   C19111735   1.173   7.847   1.878  0.2987 -0.7209 -0.3138
   53MOL   C19211736   1.053   7.789   1.855 -0.3596  0.7960  0.0851
   53MOL   C19311737   1.047   7.649   1.877 -0.2977  0.0509 -0.0481
   53MOL   C19411738   1.151   7.578   1.932  0.3464 -0.2322 -0.0619
   53MOL   O19511739   1.134   7.449   1.967 -0.0175 -0.3953 -0.2239
   53MOL   H19611740   1.349   7.583   2.014  0.4696 -2.2692 -1.1009
   53MOL   H19711741   1.377   7.835   1.953  0.3512 -1.6951  2.2524
   53MOL   H19811742   0.974   7.828   1.792 -2.8030 -1.5854  1.5497
   53MOL   H19911743   0.949   7.606   1.859 -0.0308 -0.9333  0.8359
   53MOL   C20011744   1.177   7.262   1.650 -0.3287 -0.1263  0.3609
   53MOL   C20111745   1.184   7.367   1.744  0.0562 -0.7187 -0.5764
   53MOL   C20211746   1.125   7.349   1.871  0.4774  0.1603 -0.2364
   53MOL   C20311747   1.052   7.229   1.902  0.4055 -0.7272 -0.6980
   53MOL   C20411748   1.055   7.124   1.809  0.8691 -0.1827  0.5482
   53MOL   C20511749   1.109   7.144   1.677 -0.3878  0.8171  0.2602
   53MOL   O20611750   1.113   7.041   1.585 -0.8272  0.5553 -0.0311
   53MOL   H20711751   1.226   7.278   1.555  0.1819 -0.7208  0.5215
   53MOL   H20811752   1.229   7.462   1.718  0.8540 -1.7886 -3.3519
   53MOL   H20911753   1.024   7.218   2.005 -1.6867 -2.7383 -1.4575
   53MOL   H21011754   1.015   7.030   1.844 -2.7496  0.2375 -2.1041
   53MOL   C21111755   0.849   7.024   1.327  0.5797  0.1340 -0.0404
   53MOL   C21211756   0.945   7.074   1.413 -0.7192  0.1835  0.0285
   53MOL   C21311757   0.996   7.001   1.523 -0.3513 -0.4195 -0.3367
   53MOL   C21411758   0.936   6.875   1.555  0.5540  0.1849  0.2349
   53MOL   C21511759   0.831   6.826   1.474 -0.1243  0.7928  0.5973
   53MOL   C21611760   0.791   6.898   1.359 -0.0802  0.1657  0.1453
   53MOL   O21711761   0.698   6.850   1.275  0.1967 -0.4971  0.4377
   53MOL   H21811762   0.823   7.084   1.241 -1.8710 -1.1732 -0.2627
   53MOL   H21911763   0.991   7.165   1.379 -1.9381  1.1537  0.9228
   53MOL   H22011764   0.952   6.814   1.642  0.0263 -0.0914  0.1445
   53MOL   H22111765   0.780   6.734   1.496  0.6012  0.3699  0.5100
   53MOL   H22211766   0.687   6.759   1.300  2.3236 -0.3537  2.0824
   54MOL     C111767   0.306   5.285   6.832  0.1027 -0.3591  0.0016
   54MOL     C211768   0.201   5.322   6.920 -0.0748  0.3292 -0.4805
   54MOL     C311769   0.208   5.447   6.990 -0.1919 -0.0566  0.5857
   54MOL     C411770   0.314   5.535   6.967 -0.3778 -0.0156  0.3907
   54MOL     C511771   0.423   5.493   6.883  0.4425  0.0912 -0.0961
   54MOL     C611772   0.416   5.370   6.817  0.2429 -0.6464  0.1044
   54MOL     O711773   0.521   5.321   6.741 -0.3994 -0.5074  0.3233
   54MOL     H811774   0.307   5.188   6.784 -0.2997 -0.0864 -0.5610
   54MOL     H911775   0.112   5.261   6.929  0.1615  0.1841  0.9513
   54MOL    H1011776   0.321   5.628   7.021 -1.8801  0.2000  0.2469
   54MOL    H1111777   0.518   5.545   6.880 -0.0360  1.2480  2.6798
   54MOL    H1211778   0.124   5.472   7.052 -0.0378  2.0109 -0.0182
   54MOL    C1311779   0.752   5.493   6.509 -0.1742  0.3676 -0.5051
   54MOL    C1411780   0.700   5.408   6.609 -0.8184  0.3973  0.1655
   54MOL    C1511781   0.566   5.392   6.631 -1.0562 -0.4579  0.0999
   54MOL    C1611782   0.476   5.452   6.537  0.0135  0.2041  0.3693
   54MOL    C1711783   0.522   5.535   6.433 -0.1011 -0.0008 -0.0650
   54MOL    C1811784   0.663   5.563   6.421  0.2662  0.0056  0.3864
   54MOL    O1911785   0.706   5.650   6.325 -0.2606 -0.2332  0.4037
   54MOL    H2011786   0.857   5.486   6.485  0.1435  2.1708  0.2864
   54MOL    H2111787   0.764   5.350   6.674 -0.0676 -0.2097 -1.0926
   54MOL    H2211788   0.372   5.456   6.565 -0.0253  0.0463  0.2434
   54MOL    H2311789   0.452   5.596   6.378 -0.8165 -1.1919 -0.5094
   54MOL    C2411790   0.699   5.996   6.440 -0.1495 -0.4940  0.0582
   54MOL    C2511791   0.713   5.855   6.431  0.7031  0.0753 -0.0014
   54MOL    C2611792   0.665   5.778   6.328  0.5460  0.9933  0.0797
   54MOL    C2711793   0.562   5.839   6.247  0.3958  1.3663  0.3490
   54MOL    C2811794   0.528   5.972   6.266  0.1611 -0.0199  0.0638
   54MOL    C2911795   0.606   6.056   6.352  0.0954  0.2236 -0.1711
   54MOL    O3011796   0.576   6.192   6.370 -0.3524  0.0336 -0.3171
   54MOL    H3111797   0.753   6.050   6.516 -0.1857 -0.6695  0.2094
   54MOL    H3211798   0.779   5.804   6.500  0.1195 -0.0704  0.4549
   54MOL    H3311799   0.507   5.787   6.170  2.4894 -1.5147  0.6953
   54MOL    H3411800   0.441   6.012   6.216 -0.6604 -1.5815  0.2256
   54MOL    C3511801   0.326   6.409   6.222 -0.4413  0.4823 -0.0294
   54MOL    C3611802   0.450   6.351   6.243  0.2748  0.8803  0.0714
   54MOL    C3711803   0.456   6.238   6.324 -0.3156  0.4594 -0.0696
   54MOL    C3811804   0.335   6.185   6.382 -0.0318 -0.0312  0.3418
   54MOL    C3911805   0.212   6.239   6.352 -0.0726 -0.2299  0.1085
   54MOL    C4011806   0.208   6.353   6.277  0.6897 -0.2049  0.2395
   54MOL    O4111807   0.093   6.423   6.256  0.5088  0.3107 -0.1399
   54MOL    H4211808   0.326   6.487   6.148  2.1202  0.1735 -0.4052
   54MOL    H4311809   0.539   6.402   6.210  2.5052 -1.2711  2.4896
   54MOL    H4411810   0.335   6.094   6.440  0.3129  0.9939  1.9708
   54MOL    H4511811   0.118   6.206   6.395 -0.2367 -1.5082 -1.1965
   54MOL    C4611812   8.254   6.320   5.911  0.2405  0.3944  0.6677
   54MOL    C4711813   0.079   6.353   6.026  0.3925 -0.4988  0.4050
   54MOL    C4811814   0.017   6.390   6.147  0.6424  0.1716  0.2570
   54MOL    C4911815   8.128   6.381   6.152  0.5590  1.1988 -0.4242
   54MOL    C5011816   8.048   6.339   6.041 -0.4299 -0.1571  0.0536
   54MOL    C5111817   8.114   6.309   5.920 -0.1425 -0.6866 -0.0281
   54MOL    O5211818   8.040   6.260   5.816  0.4682 -0.3738 -0.0950
   54MOL    H5311819   0.033   6.293   5.812 -0.2766  1.4814  0.1960
   54MOL    H5411820   0.184   6.341   6.009  0.1906  0.2885 -1.4546
   54MOL    H5511821   8.091   6.412   6.248  0.2437 -0.6752  0.0831
   54MOL    H5611822   7.941   6.336   6.055 -0.1863  0.1441  2.2865
   54MOL    C5711823   7.828   6.542   5.715  0.0164  0.2122  0.7171
   54MOL    C5811824   7.911   6.465   5.800 -0.0588 -0.0095  1.0102
   54MOL    C5911825   7.949   6.336   5.760  0.0623  0.0522  0.0359
   54MOL    C6011826   7.889   6.282   5.648  0.0303  0.0111  0.1055
   54MOL    C6111827   7.796   6.355   5.571  0.4102 -0.1378  0.0663
   54MOL    C6211828   7.763   6.490   5.603 -0.4899 -0.0719  0.9001
   54MOL    O6311829   7.686   6.575   5.524  0.6729  0.2489 -0.2124
   54MOL    H6411830   7.814   6.646   5.740 -1.2056 -0.1988  1.7877
   54MOL    H6511831   7.952   6.517   5.885  1.1041 -0.0134  0.4567
   54MOL    H6611832   7.903   6.180   5.616 -1.1897 -0.3144  0.5955
   54MOL    H6711833   7.737   6.302   5.497 -1.2715  0.7501  0.7235
   54MOL    C6811834   7.905   6.633   5.227 -0.2033 -0.3446 -0.6580
   54MOL    C6911835   7.867   6.625   5.366  0.6859  0.1576 -0.9681
   54MOL    C7011836   7.733   6.598   5.396 -0.7255 -0.0851 -0.4641
   54MOL    C7111837   7.640   6.590   5.290  0.1441  0.5519 -0.2616
   54MOL    C7211838   7.680   6.591   5.153 -0.3432 -0.2297  0.0483
   54MOL    C7311839   7.815   6.611   5.126  0.3531  0.2122 -0.3063
   54MOL    O7411840   7.860   6.611   4.996  0.4051 -0.6652  0.0428
   54MOL    H7511841   8.005   6.665   5.205  0.3325 -1.0988  0.5843
   54MOL    H7611842   7.935   6.626   5.449 -0.9300 -0.3371  0.3921
   54MOL    H7711843   7.535   6.566   5.300  0.4537 -1.3140 -1.3697
   54MOL    H7811844   7.604   6.589   5.076 -0.6844 -0.4979  0.3907
   54MOL    C7911845   7.694   6.864   4.790 -0.1569 -0.1522 -0.7787
   54MOL    C8011846   7.740   6.794   4.902  0.1514 -0.1578  0.0321
   54MOL    C8111847   7.791   6.666   4.892  0.0487 -0.2973  0.7167
   54MOL    C8211848   7.803   6.606   4.763  0.7336  0.5384 -0.3284
   54MOL    C8311849   7.754   6.676   4.649  0.4241 -0.8654 -0.2477
   54MOL    C8411850   7.698   6.801   4.664 -0.5979  0.2095  0.2518
   54MOL    O8511851   7.643   6.868   4.557 -0.4164 -0.2046 -0.7797
   54MOL    H8611852   7.646   6.961   4.792 -1.8727 -0.9884  1.2763
   54MOL    H8711853   7.729   6.841   4.999 -0.8922  0.1487 -0.2351
   54MOL    H8811854   7.844   6.507   4.747 -2.4274 -0.6244 -1.8613
   54MOL    H8911855   7.760   6.621   4.556 -1.0727 -3.2932  1.0292
   54MOL    C9011856   7.331   6.728   4.426 -0.1543  0.0259 -0.7068
   54MOL    C9111857   7.467   6.739   4.458  0.9374 -0.0650  0.3421
   54MOL    C9211858   7.512   6.848   4.538  1.0380 -0.5145  1.2534
   54MOL    C9311859   7.427   6.940   4.590  1.0338  0.5355  0.2124
   54MOL    C9411860   7.291   6.931   4.559  0.0538  0.0174 -0.0904
   54MOL    C9511861   7.242   6.821   4.482 -0.1212 -0.3574 -0.0562
   54MOL    O9611862   7.105   6.821   4.455  0.1865 -0.0855 -0.1342
   54MOL    H9711863   7.294   6.646   4.367 -0.8682  0.2226 -0.5340
   54MOL    H9811864   7.531   6.659   4.426  3.5737  1.8297  0.7375
   54MOL    H9911865   7.468   7.012   4.659  0.7743 -0.6100  1.5748
   54MOL   H10011866   7.224   7.012   4.585  0.3846  0.2421  0.0532
   54MOL   C10111867   6.973   6.814   4.108 -0.1174  0.2730  0.3157
   54MOL   C10211868   7.019   6.858   4.233 -0.4051 -0.3410 -0.5132
   54MOL   C10311869   7.053   6.772   4.339  0.8667 -0.0352  0.2104
   54MOL   C10411870   7.015   6.635   4.318  0.7144 -0.2403 -0.0163
   54MOL   C10511871   6.955   6.590   4.200 -0.3721  0.2652  0.2985
   54MOL   C10611872   6.941   6.681   4.092 -0.1978  0.2821  0.5603
   54MOL   O10711873   6.899   6.636   3.971 -0.5201  0.2212  0.4399
   54MOL   H10811874   6.949   6.872   4.020  2.1887  1.4841  0.4439
   54MOL   H10911875   7.031   6.965   4.241  0.7010 -0.5503  0.9448
   54MOL   H11011876   7.038   6.565   4.396  1.0555 -1.7913 -1.4808
   54MOL   H11111877   6.925   6.488   4.181 -0.0810 -0.1301  1.8649
   54MOL   C11211878   7.040   6.395   3.735 -0.0994  0.2699  0.4928
   54MOL   C11311879   6.946   6.463   3.814 -0.7444  0.5486  0.4109
   54MOL   C11411880   6.990   6.571   3.885 -0.6980 -0.6471  0.2117
   54MOL   C11511881   7.120   6.619   3.877 -0.7401  0.0275 -0.7899
   54MOL   C11611882   7.219   6.540   3.813 -0.4210  0.2920  0.4112
   54MOL   C11711883   7.176   6.430   3.735  0.4207 -0.0570 -0.3142
   54MOL   O11811884   7.271   6.352   3.673  0.0281  0.0194 -0.7528
   54MOL   H11911885   7.014   6.300   3.690  1.6206  1.2338 -2.6334
   54MOL   H12011886   6.843   6.435   3.825 -0.1172 -1.3233  1.7848
   54MOL   H12111887   7.155   6.699   3.940  0.6362 -0.2725 -1.1474
   54MOL   H12211888   7.324   6.564   3.825 -1.0854  3.0676  1.0466
   54MOL   C12311889   7.590   6.188   3.745  0.0498  0.0976  0.0492
   54MOL   C12411890   7.489   6.263   3.683 -0.1213  0.5270 -0.3269
   54MOL   C12511891   7.362   6.280   3.744 -0.0623 -0.2846 -0.0379
   54MOL   C12611892   7.331   6.196   3.855 -0.9217 -0.4424  0.7645
   54MOL   C12711893   7.430   6.109   3.910 -0.4309 -0.6463 -0.1442
   54MOL   C12811894   7.559   6.113   3.858 -0.8429  0.3194  0.1543
   54MOL   O12911895   7.653   6.030   3.928  0.3888 -0.3480  0.2884
   54MOL   H13011896   7.688   6.181   3.700 -0.8365 -0.3013 -1.8511
   54MOL   H13111897   7.510   6.297   3.583  2.3713 -2.3044 -0.8329
   54MOL   H13211898   7.232   6.186   3.898 -0.4956 -0.7302  1.6800
   54MOL   H13311899   7.415   6.047   3.998  0.5679 -0.2282  0.3234
   54MOL   C13411900   7.879   6.097   4.208 -0.1457  0.2526  0.3602
   54MOL   C13511901   7.769   6.056   4.132  0.4892  0.3086 -0.2106
   54MOL   C13611902   7.759   6.079   3.993  0.0317 -0.3262 -0.3045
   54MOL   C13711903   7.868   6.132   3.930 -0.5537 -0.3643  0.2849
   54MOL   C13811904   7.984   6.170   3.997  0.0413  0.5102  0.4687
   54MOL   C13911905   7.990   6.156   4.139 -0.3784  0.6070  0.1396
   54MOL   O14011906   8.113   6.179   4.201 -0.7335 -1.0276 -0.1517
   54MOL   H14111907   7.881   6.085   4.316 -0.3322 -1.3571  0.2076
   54MOL   H14211908   7.695   5.999   4.186  1.3687  0.5341  1.2773
   54MOL   H14311909   7.874   6.150   3.823  1.4138 -0.6516  0.3204
   54MOL   H14411910   8.075   6.196   3.945 -1.2439 -0.7468 -2.5423
   54MOL   C14511911   0.018   5.951   4.446 -0.3828  0.0035 -0.2296
   54MOL   C14611912   8.213   6.066   4.391  0.8094 -0.0443 -0.6727
   54MOL   C14711913   8.176   6.069   4.252  0.3740  0.0351 -1.4273
   54MOL   C14811914   8.203   5.956   4.173 -0.8244  0.2340  0.4894
   54MOL   C14911915   0.020   5.845   4.228  0.1338 -0.5174 -0.6091
   54MOL   C15011916   0.050   5.840   4.366  0.3811  0.4057 -0.7373
   54MOL   O15111917   0.105   5.729   4.425 -0.1562 -0.1871  0.2796
   54MOL   H15211918   0.051   5.952   4.549 -1.0921  1.4649 -0.0030
   54MOL   H15311919   8.186   6.150   4.453  0.4126 -0.7682  0.1533
   54MOL   H15411920   8.154   5.959   4.076 -1.5653  0.1217  0.8581
   54MOL   H15511921   0.036   5.756   4.170  0.8443  0.2676 -1.6362
   54MOL   C15611922   8.196   5.510   4.668  0.0052  0.0931 -0.0449
   54MOL   C15711923   0.034   5.603   4.609  0.2492 -0.3739  0.4793
   54MOL   C15811924   0.024   5.632   4.472 -0.3732  0.2750  0.5135
   54MOL   C15911925   8.187   5.570   4.383  1.2623  0.2154  0.8930
   54MOL   C16011926   8.106   5.470   4.442 -0.2574  1.3942 -1.1616
   54MOL   C16111927   8.106   5.440   4.581  0.2057 -0.0170 -0.8107
   54MOL   O16211928   8.026   5.346   4.640 -0.1133 -0.7384  0.3356
   54MOL   H16311929   8.188   5.506   4.775  0.1608  0.8139 -0.0044
   54MOL   H16411930   0.100   5.660   4.672 -0.6526 -0.2716  1.3584
   54MOL   H16511931   8.181   5.594   4.277 -2.0854  1.8176  1.3554
   54MOL   H16611932   8.027   5.421   4.387  1.4789  0.5643 -2.9767
   54MOL   C16711933   7.679   5.451   4.544 -0.7102 -0.0818 -0.0878
   54MOL   C16811934   7.815   5.455   4.586 -0.5604 -0.2086  0.1655
   54MOL   C16911935   7.889   5.339   4.622  0.5281  0.0974  0.4762
   54MOL   C17011936   7.824   5.219   4.642  0.0311 -0.1358  0.4135
   54MOL   C17111937   7.683   5.214   4.611 -0.0627  0.2468 -0.7447
   54MOL   C17211938   7.610   5.327   4.571  0.1675 -0.4354 -0.1794
   54MOL   O17311939   7.475   5.312   4.537 -0.3956 -0.3042 -0.3422
   54MOL   H17411940   7.630   5.528   4.487 -0.0345  0.3715 -0.0566
   54MOL   H17511941   7.859   5.550   4.560 -0.7175 -0.5171 -1.2960
   54MOL   H17611942   7.884   5.136   4.675 -1.8660 -1.8186 -0.2816
   54MOL   H17711943   7.629   5.123   4.631 -1.6938  1.3868  0.1950
   54MOL   C17811944   7.221   5.539   4.395 -0.6478  0.4056 -0.3365
   54MOL   C17911945   7.303   5.427   4.410  1.4925 -0.2945 -0.1285
   54MOL   C18011946   7.391   5.424   4.523 -0.7480  0.5939  0.2574
   54MOL   C18111947   7.383   5.519   4.629 -0.2589 -0.4779 -0.7621
   54MOL   C18211948   7.307   5.638   4.600  0.0220 -0.0865 -0.0666
   54MOL   C18311949   7.221   5.645   4.487 -0.9238 -0.0031  0.3284
   54MOL   O18411950   7.143   5.750   4.457 -0.3864  0.5140 -0.1702
   54MOL   H18511951   7.145   5.545   4.318 -0.7028  2.5437 -0.1550
   54MOL   H18611952   7.292   5.344   4.341 -3.4164  0.5012 -0.5160
   54MOL   H18711953   7.446   5.510   4.716 -0.4796  0.6732 -0.4773
   54MOL   H18811954   7.299   5.709   4.681  3.4349  0.4893 -0.1370
   54MOL   C18911955   7.272   6.037   4.271 -0.3595 -0.3647 -0.2375
   54MOL   C19011956   7.226   5.906   4.294  0.1609 -0.2923 -1.0851
   54MOL   C19111957   7.194   5.872   4.428  0.4568 -0.5858  0.1732
   54MOL   C19211958   7.198   5.974   4.528  0.1152  0.9938 -0.1645
   54MOL   C19311959   7.227   6.110   4.497 -0.1348 -0.1816 -0.5013
   54MOL   C19411960   7.270   6.140   4.370 -0.6406 -0.1734 -0.9136
   54MOL   O19511961   7.296   6.271   4.364  0.0932 -0.3710 -0.3730
   54MOL   H19611962   7.301   6.069   4.172 -0.3591 -1.4313 -0.5910
   54MOL   H19711963   7.201   5.839   4.213  0.1370 -1.2289 -0.3142
   54MOL   H19811964   7.172   5.949   4.630  0.8013 -2.1374 -0.6825
   54MOL   H19911965   7.225   6.187   4.573 -3.5032  0.4998 -1.1856
   54MOL   C20011966   7.654   6.334   4.302 -0.1641 -0.1874 -0.1334
   54MOL   C20111967   7.534   6.285   4.360  0.2987 -0.4882  0.2736
   54MOL   C20211968   7.412   6.311   4.301  0.2957 -0.2324  0.3579
   54MOL   C20311969   7.404   6.386   4.187  0.2203  0.0034 -0.4945
   54MOL   C20411970   7.519   6.423   4.119 -0.3320 -0.0441  0.2219
   54MOL   C20511971   7.646   6.397   4.173 -0.0467 -0.1008  0.4209
   54MOL   O20611972   7.760   6.438   4.113  0.5648  0.1109 -0.1883
   54MOL   H20711973   7.746   6.327   4.359  1.0773  0.3643 -2.0130
   54MOL   H20811974   7.550   6.236   4.456 -1.2830 -0.2134  0.6878
   54MOL   H20911975   7.310   6.404   4.137 -0.6860  0.7607  1.4227
   54MOL   H21011976   7.511   6.480   4.027 -0.3614 -0.4953 -0.0582
   54MOL   C21111977   8.077   6.595   4.226  0.1455  0.4543  0.5449
   54MOL   C21211978   7.985   6.512   4.163  0.0333 -0.0071 -0.1530
   54MOL   C21311979   7.845   6.525   4.181  0.1023 -0.4007 -0.0134
   54MOL   C21411980   7.797   6.630   4.261  0.3842 -0.2998 -0.2503
   54MOL   C21511981   7.895   6.712   4.323 -0.3395  0.0951 -0.3945
   54MOL   C21611982   8.030   6.699   4.310  0.1768 -0.6095 -0.5477
   54MOL   O21711983   8.112   6.780   4.382  0.5213 -0.6254  0.5012
   54MOL   H21811984   8.183   6.576   4.215  0.0067 -0.4397  0.7705
   54MOL   H21911985   8.034   6.434   4.105  0.2797 -0.7307  1.0043
   54MOL   H22011986   7.692   6.650   4.272  0.7498  1.7180 -0.3480
   54MOL   H22111987   7.859   6.793   4.384 -1.0422 -0.5554  0.0742
   54MOL   H22211988   8.073   6.866   4.389  2.1652 -0.0244  3.0556
   55MOL     C111989   4.903   0.025   4.231 -0.1548 -0.3967  0.2230
   55MOL     C211990   4.875   8.170   4.145 -0.0279 -0.2488 -0.6839
   55MOL     C311991   4.820   8.192   4.017  0.0283 -0.1164 -0.3572
   55MOL     C411992   4.791   0.068   3.976  0.1574 -0.4630 -0.4829
   55MOL     C511993   4.815   0.176   4.059  1.0285  0.7962  0.1783
   55MOL     C611994   4.865   0.155   4.188  0.7095  0.7260 -1.0810
   55MOL     O711995   4.885   0.267   4.270  0.2413 -0.5634 -0.4247
   55MOL     H811996   4.945   0.010   4.330  0.7371  2.9554  0.3880
   55MOL     H911997   4.913   8.074   4.178  1.9014  0.7676  0.1880
   55MOL    H1011998   4.751   0.080   3.877  1.9012  2.0658 -0.9503
   55MOL    H1111999   4.790   0.275   4.023 -0.5418 -0.0156 -1.0596
   55MOL    H1212000   4.801   8.112   3.948  1.3554  0.2956 -1.2213
   55MOL    C1312001   5.214   0.300   4.433 -0.4092  0.1864 -0.0983
   55MOL    C1412002   5.119   0.290   4.327  0.3066  0.4197 -0.1508
   55MOL    C1512003   4.985   0.266   4.363 -0.8437  0.3454 -0.3554
   55MOL    C1612004   4.953   0.232   4.493  0.0914 -0.1212  0.5172
   55MOL    C1712005   5.044   0.257   4.596  0.4542 -0.4219 -0.5235
   55MOL    C1812006   5.172   0.292   4.564 -0.1877  0.7159  0.5555
   55MOL    O1912007   5.272   0.319   4.660  0.1354 -0.4811 -0.6169
   55MOL    H2012008   5.318   0.325   4.416  0.1952 -3.1428 -1.8702
   55MOL    H2112009   5.144   0.309   4.223 -0.5538  1.8540 -0.0968
   55MOL    H2212010   4.850   0.214   4.521  0.2615 -1.3124  0.3871
   55MOL    H2312011   5.017   0.253   4.701 -2.6457  0.5749 -1.2223
   55MOL    C2412012   5.546   0.064   4.652 -0.5611 -0.1474 -0.4690
   55MOL    C2512013   5.413   0.117   4.656 -0.1222 -0.2582 -0.0399
   55MOL    C2612014   5.393   0.260   4.663  0.4655 -0.1327  0.7047
   55MOL    C2712015   5.503   0.345   4.674 -0.9401 -0.0499 -0.2941
   55MOL    C2812016   5.634   0.294   4.659 -0.2474  0.4513 -0.1123
   55MOL    C2912017   5.655   0.152   4.653  0.2889  0.1065  0.4293
   55MOL    O3012018   5.781   0.107   4.645 -0.3737  0.0915  0.0764
   55MOL    H3112019   5.566   8.212   4.651 -2.0401 -0.4476  0.7685
   55MOL    H3212020   5.324   0.056   4.658 -0.8928  0.7074 -2.3203
   55MOL    H3312021   5.488   0.450   4.689  0.0729  0.0785 -0.1542
   55MOL    H3412022   5.716   0.363   4.671  0.8816 -1.1717  1.9730
   55MOL    C3512023   5.901   8.016   4.573  0.5055 -0.3307  0.1620
   55MOL    C3612024   5.865   8.135   4.637 -0.7905 -0.5398  0.0253
   55MOL    C3712025   5.813   8.251   4.572 -0.0642  0.1338 -0.2049
   55MOL    C3812026   5.805   8.244   4.433 -0.3848  0.9516 -0.7034
   55MOL    C3912027   5.842   8.125   4.367 -0.1098  0.6148  0.2175
   55MOL    C4012028   5.895   8.016   4.434 -0.7122 -0.1883 -0.5631
   55MOL    O4112029   5.951   7.913   4.355  0.0626 -0.9326 -0.1012
   55MOL    H4212030   5.934   7.929   4.629  1.0403 -1.0311 -1.2093
   55MOL    H4312031   5.868   8.121   4.744  1.1072 -1.4204 -0.1100
   55MOL    H4412032   5.771   0.072   4.371 -0.3248  2.0590  0.6813
   55MOL    H4512033   5.848   8.116   4.259 -0.1994  0.8320  0.1945
   55MOL    C4612034   6.025   7.564   4.424  0.9402  0.1140  0.8772
   55MOL    C4712035   6.039   7.692   4.367 -0.3791 -0.7427 -0.3371
   55MOL    C4812036   5.932   7.784   4.388  0.2887  1.0362  0.1132
   55MOL    C4912037   5.809   7.748   4.457 -0.4503 -0.2410  0.2782
   55MOL    C5012038   5.810   7.621   4.521  1.2132  0.0490  0.7688
   55MOL    C5112039   5.915   7.531   4.497  0.1578  0.3002  0.2044
   55MOL    O5212040   5.905   7.399   4.538 -0.3271 -0.5850  0.2069
   55MOL    H5312041   6.095   7.482   4.424 -0.2295 -0.9250 -0.5054
   55MOL    H5412042   6.123   7.724   4.307  1.3567 -0.0765  2.3381
   55MOL    H5512043   5.727   7.818   4.465  0.5104  0.6206  3.2354
   55MOL    H5612044   5.728   7.573   4.573  0.7581 -0.9046 -0.8210
   55MOL    C5712045   5.809   7.202   4.240 -0.4155  0.3286  0.1455
   55MOL    C5812046   5.875   7.294   4.323 -0.2150  0.2813 -0.1209
   55MOL    C5912047   5.834   7.313   4.453 -0.3520  0.4566 -0.1955
   55MOL    C6012048   5.734   7.230   4.505  0.2123 -0.0545 -0.6368
   55MOL    C6112049   5.677   7.132   4.422 -0.2274 -0.3419 -0.2423
   55MOL    C6212050   5.704   7.120   4.286 -0.4372 -0.3749 -0.2749
   55MOL    O6312051   5.636   7.029   4.218 -0.0024  0.3423  0.4163
   55MOL    H6412052   5.835   7.199   4.135  0.2402 -0.6115  0.3255
   55MOL    H6512053   5.953   7.353   4.278 -0.0181 -0.2520 -0.4850
   55MOL    H6612054   5.691   7.238   4.604 -0.4805 -1.6098 -0.8081
   55MOL    H6712055   5.605   7.062   4.460 -1.7718  0.8658 -0.8716
   55MOL    C6812056   5.375   7.213   4.025  0.4118 -0.5638  0.1838
   55MOL    C6912057   5.451   7.157   4.132  0.4260 -0.0955  0.4855
   55MOL    C7012058   5.569   7.085   4.110 -0.1912  0.7302  0.7998
   55MOL    C7112059   5.618   7.079   3.978  0.3030 -0.1281 -0.4002
   55MOL    C7212060   5.541   7.122   3.871 -0.7180  0.7656  0.2052
   55MOL    C7312061   5.419   7.196   3.892 -0.2534  0.3964  0.2776
   55MOL    O7412062   5.342   7.243   3.781  0.5963  0.3241 -0.3920
   55MOL    H7512063   5.281   7.258   4.051  0.4193 -0.9341  0.8581
   55MOL    H7612064   5.412   7.163   4.233  2.4991  4.3205  1.1110
   55MOL    H7712065   5.710   7.026   3.962  1.2996  2.2690 -3.1351
   55MOL    H7812066   5.564   7.091   3.770  0.1138  1.2366  0.2430
   55MOL    C7912067   5.504   7.540   3.628  0.5675 -0.0928  0.5733
   55MOL    C8012068   5.483   7.405   3.665  0.0848  0.3290  0.4281
   55MOL    C8112069   5.367   7.370   3.738  0.0150 -0.7251 -0.0393
   55MOL    C8212070   5.275   7.471   3.762  0.5262 -0.0048 -0.0018
   55MOL    C8312071   5.288   7.600   3.712  0.3055 -0.0333 -0.4915
   55MOL    C8412072   5.408   7.639   3.642 -0.3320 -0.3716  1.0053
   55MOL    O8512073   5.414   7.770   3.599  0.3712 -0.5076  0.0894
   55MOL    H8612074   5.598   7.565   3.580  1.1053  2.7338  2.8990
   55MOL    H8712075   5.563   7.335   3.644  0.2433  0.0669  1.8548
   55MOL    H8812076   5.188   7.441   3.819  0.1046  0.5307 -0.3656
   55MOL    H8912077   5.204   7.667   3.726 -0.8565 -0.3567 -5.1671
   55MOL    C9012078   5.705   7.837   3.389  0.1556 -0.4615 -0.3431
   55MOL    C9112079   5.580   7.792   3.432 -0.1663  0.3651 -0.2725
   55MOL    C9212080   5.535   7.818   3.563  0.1289  0.1090 -0.7382
   55MOL    C9312081   5.619   7.887   3.653  0.5203 -0.1279 -0.3104
   55MOL    C9412082   5.742   7.949   3.606  0.5722  0.3717 -0.1168
   55MOL    C9512083   5.786   7.924   3.470  0.2193  0.1093 -0.1890
   55MOL    O9612084   5.901   7.975   3.413  0.0093  0.2571  0.3281
   55MOL    H9712085   5.736   7.805   3.291  0.9514  1.0373 -0.5901
   55MOL    H9812086   5.526   7.724   3.368  0.0186 -1.3402  1.3615
   55MOL    H9912087   5.583   7.887   3.755 -2.4768 -0.9394 -1.3251
   55MOL   H10012088   5.787   8.009   3.684  0.4310  0.6113 -0.2197
   55MOL   C10112089   5.873   0.087   3.406 -0.3630 -0.1853 -0.9206
   55MOL   C10212090   5.846   8.204   3.380  0.3806  0.2259  0.2158
   55MOL   C10312091   5.935   8.108   3.426 -0.7500  0.5966  0.4533
   55MOL   C10412092   6.064   8.140   3.478  0.3726  0.1048 -0.0804
   55MOL   C10512093   6.083   0.026   3.511  1.2848  0.1965 -0.1897
   55MOL   C10612094   5.987   0.123   3.482  0.4835 -0.3025  0.3017
   55MOL   O10712095   6.008   0.255   3.528  0.1060 -0.5419  0.0408
   55MOL   H10812096   5.804   0.153   3.354 -2.5814 -0.9628  0.9363
   55MOL   H10912097   5.756   8.186   3.324  1.2151  2.9182 -2.1126
   55MOL   H11012098   6.133   8.060   3.500 -2.1046 -1.3977  2.6457
   55MOL   H11112099   6.175   0.062   3.554  1.4610 -1.0379  0.4957
   55MOL   C11212100   5.760   0.315   3.796  0.0565 -0.4686 -0.7157
   55MOL   C11312101   5.861   0.256   3.716  0.4212  0.2499  0.5285
   55MOL   C11412102   5.908   0.314   3.599  0.2861  0.7179  0.8434
   55MOL   C11512103   5.856   0.439   3.563  0.8827 -0.3595 -0.6049
   55MOL   C11612104   5.750   0.499   3.643 -0.1064 -0.3210  0.0678
   55MOL   C11712105   5.713   0.442   3.762 -0.3355 -0.1601  0.0264
   55MOL   O11812106   5.617   0.504   3.841 -0.4481 -0.6900  0.1561
   55MOL   H11912107   5.729   0.264   3.886 -2.2386  0.3849 -0.9997
   55MOL   H12012108   5.912   0.166   3.749  1.9479 -0.2401 -2.9797
   55MOL   H12112109   5.901   0.501   3.487 -0.5410 -0.6479 -1.6973
   55MOL   H12212110   5.710   0.595   3.613  1.1165  0.5652  1.2330
   55MOL   C12312111   5.767   0.754   4.066  0.0142  0.2412 -0.3241
   55MOL   C12412112   5.748   0.632   3.997 -0.3578 -0.2013 -0.3012
   55MOL   C12512113   5.653   0.626   3.892 -0.3306  0.7531  0.2299
   55MOL   C12612114   5.597   0.749   3.846 -0.2610  0.0280  0.2222
   55MOL   C12712115   5.615   0.870   3.911 -0.0718 -0.1908 -0.6801
   55MOL   C12812116   5.701   0.872   4.018  0.8773  0.0668 -0.0826
   55MOL   O12912117   5.721   0.986   4.100 -0.2340  0.1422  0.3002
   55MOL   H13012118   5.836   0.754   4.149  0.5734 -2.0417 -0.7458
   55MOL   H13112119   5.787   0.539   4.033 -4.5529 -2.7175 -1.8883
   55MOL   H13212120   5.535   0.750   3.758  1.4849  0.2044 -1.0275
   55MOL   H13312121   5.550   0.949   3.877 -3.3282 -1.6109  2.0265
   55MOL   C13412122   5.785   1.282   3.910  0.1267  0.3530 -0.2829
   55MOL   C13512123   5.805   1.158   3.979  0.5970 -0.2909 -0.6080
   55MOL   C13612124   5.696   1.101   4.042 -0.3218 -0.6009  0.2229
   55MOL   C13712125   5.562   1.159   4.035  0.1656 -0.5909  0.3759
   55MOL   C13812126   5.542   1.277   3.972  0.7570  0.2186 -0.2244
   55MOL   C13912127   5.654   1.338   3.912  0.2487 -0.3618  0.6377
   55MOL   O14012128   5.631   1.447   3.836  0.3019 -0.0035 -0.1682
   55MOL   H14112129   5.862   1.327   3.849  2.8681 -0.9969  2.0785
   55MOL   H14212130   5.906   1.118   3.982 -0.4423 -2.9315  0.7456
   55MOL   H14312131   5.487   1.094   4.076 -0.7507  0.7448  0.8799
   55MOL   H14412132   5.446   1.325   3.961  1.7919  1.9172 -2.1138
   55MOL   C14512133   5.833   1.733   3.960  0.5841  0.0275 -0.2284
   55MOL   C14612134   5.746   1.620   3.962  0.1266 -0.0123  0.2343
   55MOL   C14712135   5.719   1.552   3.839 -0.1261  0.0455 -0.6959
   55MOL   C14812136   5.784   1.589   3.720  0.3114 -0.2446 -0.0596
   55MOL   C14912137   5.864   1.702   3.718  0.0202  0.2358  0.2456
   55MOL   C15012138   5.882   1.779   3.833 -0.3634 -0.7408 -0.2688
   55MOL   O15112139   5.957   1.893   3.825  0.0924  0.3574  1.2140
   55MOL   H15212140   5.864   1.786   4.048 -4.3985  3.5026 -0.3533
   55MOL   H15312141   5.704   1.587   4.055  0.5370 -0.2827  0.3220
   55MOL   H15412142   5.773   1.535   3.627  0.1736  0.4614 -0.4597
   55MOL   H15512143   5.903   1.743   3.625  0.8188  0.6879  0.7740
   55MOL   C15612144   5.884   2.226   3.959  0.1333  0.7058  0.5147
   55MOL   C15712145   5.950   2.104   3.932  0.3123 -0.7367 -0.4171
   55MOL   C15812146   5.886   2.005   3.858 -0.7116  0.1205  0.8853
   55MOL   C15912147   5.753   2.025   3.812 -0.1295 -0.1263  0.0715
   55MOL   C16012148   5.682   2.139   3.849 -0.5408 -0.5788 -1.0094
   55MOL   C16112149   5.750   2.243   3.915  0.1355  0.9980 -0.2945
   55MOL   O16212150   5.689   2.360   3.944 -0.4445 -0.0274 -0.9153
   55MOL   H16312151   5.947   2.304   3.999  2.8239 -0.1163 -1.8864
   55MOL   H16412152   6.052   2.097   3.966 -0.3341 -0.0861  1.7241
   55MOL   H16512153   5.715   1.940   3.757 -1.4784 -0.4162  1.4185
   55MOL   H16612154   5.578   2.144   3.821 -0.9473  1.5342  0.7158
   55MOL   C16712155   5.338   2.435   4.052 -0.4393 -0.3188  0.5564
   55MOL   C16812156   5.461   2.434   3.981 -0.4434 -0.2559 -0.3543
   55MOL   C16912157   5.575   2.351   4.014 -0.3740  0.4277 -0.2349
   55MOL   C17012158   5.546   2.250   4.114 -0.4690  0.5545  0.1698
   55MOL   C17112159   5.425   2.249   4.185 -0.2939  0.2010 -0.1610
   55MOL   C17212160   5.322   2.334   4.152  0.2830 -0.9951  0.1756
   55MOL   O17312161   5.202   2.320   4.221 -0.1761  0.2665  0.2974
   55MOL   H17412162   5.258   2.496   4.015  0.6949  1.7353  1.4265
   55MOL   H17512163   5.478   2.489   3.891 -2.9835  0.2585 -0.5663
   55MOL   H17612164   5.625   2.188   4.153 -1.1179  1.0017  2.2724
   55MOL   H17712165   5.402   2.167   4.251 -2.1353  1.3085  0.6123
   55MOL   C17812166   4.919   2.084   4.222  0.0495  0.1144  0.8932
   55MOL   C17912167   5.011   2.177   4.265 -0.2980 -0.3719  0.5655
   55MOL   C18012168   5.114   2.226   4.179  0.0577  0.0013  0.4286
   55MOL   C18112169   5.120   2.166   4.051 -0.1441  0.0502 -0.7630
   55MOL   C18212170   5.035   2.066   4.009 -0.5209 -0.0661 -0.2949
   55MOL   C18312171   4.937   2.017   4.099  0.2221 -0.0513 -0.0756
   55MOL   O18412172   4.845   1.923   4.058  0.1721 -0.2710 -0.5077
   55MOL   H18512173   4.835   2.059   4.285  0.1581 -0.1873  0.9175
   55MOL   H18612174   5.003   2.220   4.363  0.5422 -1.4837  1.1386
   55MOL   H18712175   5.191   2.200   3.976 -0.0346 -3.1477 -2.1682
   55MOL   H18812176   5.054   2.016   3.915 -1.2473 -1.3256  0.2117
   55MOL   C18912177   4.638   1.632   4.156  0.1870 -0.0506 -0.7054
   55MOL   C19012178   4.682   1.751   4.093 -0.4410 -0.8747  0.2188
   55MOL   C19112179   4.807   1.810   4.125  0.3095 -0.4764  0.6103
   55MOL   C19212180   4.886   1.747   4.219 -0.2570  1.1611  0.3856
   55MOL   C19312181   4.841   1.623   4.277 -0.1751 -0.2292 -0.6278
   55MOL   C19412182   4.721   1.566   4.246 -0.1040  0.2981  0.5171
   55MOL   O19512183   4.693   1.443   4.302  0.5255  0.2156 -0.2658
   55MOL   H19612184   4.549   1.589   4.112 -1.2744  2.1673  0.0037
   55MOL   H19712185   4.610   1.785   4.019  0.7094 -2.7456 -1.7884
   55MOL   H19812186   4.982   1.785   4.249  0.9266 -0.6664 -0.9720
   55MOL   H19912187   4.896   1.569   4.353 -2.2393 -0.7926  0.4937
   55MOL   C20012188   4.471   1.297   4.556 -0.2865  0.1900  0.1021
   55MOL   C20112189   4.555   1.304   4.445  0.6792  0.5334  0.5366
   55MOL   C20212190   4.602   1.435   4.406  0.1607 -0.2921  0.8022
   55MOL   C20312191   4.560   1.543   4.485  0.1063  0.0306 -0.0225
   55MOL   C20412192   4.468   1.532   4.589 -1.0258 -0.4564 -0.6151
   55MOL   C20512193   4.421   1.407   4.623  0.7437  0.3086 -0.6074
   55MOL   O20612194   4.328   1.397   4.731  0.7367  0.9610 -0.2854
   55MOL   H20712195   4.440   1.195   4.573  0.6518 -0.3386 -1.2680
   55MOL   H20812196   4.598   1.217   4.399  0.7486  0.2940  1.0488
   55MOL   H20912197   4.593   1.643   4.457 -1.2045  0.0082 -1.7736
   55MOL   H21012198   4.435   1.622   4.637  0.0223 -1.0834  1.3164
   55MOL   C21112199   3.987   1.296   4.625  0.0203  0.4989  0.8143
   55MOL   C21212200   4.101   1.374   4.657 -0.2358  0.7047  0.4990
   55MOL   C21312201   4.220   1.314   4.700 -0.2184  0.5902 -0.5346
   55MOL   C21412202   4.215   1.179   4.730 -0.1751 -0.5061  0.2183
   55MOL   C21512203   4.106   1.095   4.704  0.6688 -0.5248  0.1003
   55MOL   C21612204   3.989   1.153   4.638  0.1490 -0.2342 -0.5670
   55MOL   O21712205   3.885   1.073   4.601 -0.1460  0.0096 -0.0326
   55MOL   H21812206   3.898   1.341   4.585  0.5140  1.6708  1.0184
   55MOL   H21912207   4.105   1.482   4.651  0.5834  0.7856  2.3633
   55MOL   H22012208   4.304   1.138   4.775 -0.4745 -0.8318  0.5134
   55MOL   H22112209   4.106   0.987   4.717  0.9132 -0.3453  1.7370
   55MOL   H22212210   3.803   1.110   4.574 -0.7892 -2.1720 -1.2120
   56MOL     C112211   3.883   7.294   6.142 -0.2758  0.0068  1.0637
   56MOL     C212212   3.928   7.305   6.009 -0.3490 -0.1321  0.5971
   56MOL     C312213   3.889   7.215   5.905  0.7299 -0.0638 -0.2216
   56MOL     C412214   3.811   7.101   5.943  0.0936  0.5577 -0.4010
   56MOL     C512215   3.764   7.089   6.078 -0.2156 -0.2068  0.1620
   56MOL     C612216   3.794   7.188   6.172 -0.0559 -0.6218  0.4568
   56MOL     O712217   3.744   7.182   6.301 -0.3402 -0.5129  0.3869
   56MOL     H812218   3.902   7.369   6.217 -0.9642 -1.6604  2.9650
   56MOL     H912219   3.983   7.392   5.976 -0.8810 -0.6266 -1.6377
   56MOL    H1012220   3.777   7.028   5.872 -0.6447 -0.1501  0.6498
   56MOL    H1112221   3.700   7.004   6.101 -0.0100  0.1487  2.1266
   56MOL    H1212222   3.922   7.235   5.804  2.5048  0.3707  0.4068
   56MOL    C1312223   3.801   6.875   6.485 -0.3889  0.0757 -0.1361
   56MOL    C1412224   3.742   6.973   6.403 -0.6073 -0.1090  0.1252
   56MOL    C1512225   3.805   7.099   6.384 -0.6659  0.8857  0.2829
   56MOL    C1612226   3.925   7.124   6.452  0.4960 -0.1906 -0.2342
   56MOL    C1712227   3.976   7.031   6.546  0.1946  0.4403 -0.1272
   56MOL    C1812228   3.922   6.901   6.555  0.2265  0.3326  0.2024
   56MOL    O1912229   3.992   6.806   6.625  0.4506 -0.3206  0.2785
   56MOL    H2012230   3.752   6.779   6.491  0.9832 -0.6044  0.6128
   56MOL    H2112231   3.648   6.952   6.353 -1.3063  1.8147  0.5934
   56MOL    H2212232   3.970   7.220   6.429 -1.6137  1.2009  1.2669
   56MOL    H2312233   4.071   7.040   6.596  0.2788  1.4586 -0.4563
   56MOL    C2412234   4.111   6.515   6.432 -0.5543 -0.1170 -0.8328
   56MOL    C2512235   4.102   6.649   6.477 -0.4116  0.5848 -0.1147
   56MOL    C2612236   4.001   6.678   6.576 -0.6238  0.2291  0.2167
   56MOL    C2712237   3.924   6.574   6.628 -0.9987  0.3232 -0.0435
   56MOL    C2812238   3.944   6.441   6.584  0.3754  0.1639 -0.2407
   56MOL    C2912239   4.030   6.411   6.482 -0.4839 -0.5720  0.4607
   56MOL    O3012240   4.040   6.285   6.433  0.3199 -0.1743  0.1036
   56MOL    H3112241   4.179   6.497   6.351  1.4413 -1.4076  1.0808
   56MOL    H3212242   4.175   6.720   6.442 -1.5785  2.1686  0.6527
   56MOL    H3312243   3.853   6.590   6.707 -1.3434  0.3747 -0.3607
   56MOL    H3412244   3.875   6.363   6.612 -2.3147  2.4204 -0.3626
   56MOL    C3512245   4.058   5.970   6.615  0.5787 -0.3434  0.3372
   56MOL    C3612246   4.000   6.075   6.544 -0.7285 -0.0407  0.1354
   56MOL    C3712247   4.087   6.188   6.525 -0.2245 -0.4762  0.5541
   56MOL    C3812248   4.221   6.199   6.568 -0.2443  0.5980 -0.2371
   56MOL    C3912249   4.267   6.097   6.651  0.0678  0.3675 -0.2803
   56MOL    C4012250   4.186   5.978   6.673  0.3531  0.7203 -0.4284
   56MOL    O4112251   4.238   5.869   6.743  0.3523  0.1349  0.2689
   56MOL    H4212252   4.007   5.878   6.639  1.1735 -1.2392 -1.7252
   56MOL    H4312253   3.903   6.064   6.498 -0.7037  1.0718 -0.1950
   56MOL    H4412254   4.283   6.284   6.544 -1.7568  1.8860  0.3506
   56MOL    H4512255   4.365   6.099   6.696  0.6668 -1.1256 -1.4680
   56MOL    C4612256   4.353   5.586   6.536 -0.2196  0.2970 -0.0267
   56MOL    C4712257   4.345   5.712   6.593 -0.1232 -0.9586  0.3879
   56MOL    C4812258   4.236   5.746   6.677 -0.1995 -0.3954 -0.0227
   56MOL    C4912259   4.130   5.648   6.690  0.1443  0.1640 -0.0580
   56MOL    C5012260   4.146   5.516   6.635 -0.3661 -0.6802 -0.3275
   56MOL    C5112261   4.263   5.485   6.564  0.0046  0.1494 -0.2731
   56MOL    O5212262   4.301   5.357   6.522  0.1123  0.4752 -0.1991
   56MOL    H5312263   4.438   5.564   6.472 -0.0851 -0.0905  0.2822
   56MOL    H5412264   4.418   5.787   6.570  0.9387 -2.8916 -2.9300
   56MOL    H5512265   4.046   5.673   6.754  1.2605 -1.6211  2.2064
   56MOL    H5612266   4.082   5.433   6.661 -1.6576  0.3244 -0.2298
   56MOL    C5712267   4.599   5.202   6.691  0.1047  0.2508 -0.7634
   56MOL    C5812268   4.522   5.275   6.602 -0.0344 -0.0800  0.6284
   56MOL    C5912269   4.381   5.280   6.606 -0.0999  0.0344  0.6015
   56MOL    C6012270   4.317   5.201   6.709  0.1395  0.3058  0.3468
   56MOL    C6112271   4.396   5.134   6.803 -0.0225 -0.9577 -0.4622
   56MOL    C6212272   4.535   5.139   6.800 -0.4278 -0.2147 -0.3233
   56MOL    O6312273   4.616   5.090   6.900 -0.2200 -0.3282  0.3151
   56MOL    H6412274   4.706   5.217   6.685 -0.0744  1.6310 -0.6058
   56MOL    H6512275   4.570   5.329   6.522  0.0435 -0.2817  0.5397
   56MOL    H6612276   4.210   5.201   6.725  0.0291  1.2071 -0.3526
   56MOL    H6712277   4.352   5.074   6.881 -0.2580 -1.6841 -1.1580
   56MOL    C6812278   4.576   5.249   7.234  0.4929  0.1993  0.4350
   56MOL    C6912279   4.612   5.231   7.100  0.2268  0.1419  0.6934
   56MOL    C7012280   4.585   5.110   7.034 -0.1845  0.0954 -0.8696
   56MOL    C7112281   4.537   5.002   7.108 -0.3336  0.4810  0.3582
   56MOL    C7212282   4.496   5.019   7.242  0.5145 -0.2478 -0.2798
   56MOL    C7312283   4.518   5.141   7.305  0.7157 -0.5280  0.2577
   56MOL    O7412284   4.472   5.147   7.436  0.6898 -0.1846 -0.0268
   56MOL    H7512285   4.596   5.344   7.282  0.6481 -0.2637  1.2991
   56MOL    H7612286   4.651   5.310   7.038  1.7213 -1.7555 -0.8574
   56MOL    H7712287   4.523   4.906   7.061 -1.3243 -0.7857  3.0962
   56MOL    H7812288   4.445   4.938   7.291  0.7212 -0.1342  0.1188
   56MOL    C7912289   4.367   5.462   7.588  0.1244  0.0794  0.0687
   56MOL    C8012290   4.447   5.354   7.547  0.4302 -0.1246 -0.5664
   56MOL    C8112291   4.398   5.253   7.467  0.1228  0.5697  0.1985
   56MOL    C8212292   4.269   5.265   7.414 -0.1236  0.3058 -0.2574
   56MOL    C8312293   4.186   5.369   7.455 -0.0431  0.4092 -0.5160
   56MOL    C8412294   4.234   5.470   7.543  0.4820  0.3440  0.2175
   56MOL    O8512295   4.161   5.576   7.575 -0.5177 -0.2379 -0.6024
   56MOL    H8612296   4.401   5.541   7.652  0.7492 -1.0801  1.2043
   56MOL    H8712297   4.552   5.342   7.570  0.2854 -0.2353  0.0508
   56MOL    H8812298   4.231   5.185   7.352 -0.1860  0.6053 -0.6046
   56MOL    H8912299   4.085   5.369   7.420 -0.0013  0.3399 -0.6360
   56MOL    C9012300   4.060   5.516   7.933  0.0397  0.1179 -0.2796
   56MOL    C9112301   4.118   5.493   7.809 -0.6592  0.6194 -0.1663
   56MOL    C9212302   4.104   5.584   7.699  0.7006  0.1704  0.7282
   56MOL    C9312303   4.019   5.694   7.722 -0.1021  0.1622  0.6335
   56MOL    C9412304   3.959   5.715   7.842  0.1526 -0.2741 -0.0728
   56MOL    C9512305   3.979   5.628   7.950  0.2584  0.0291  0.0854
   56MOL    O9612306   3.901   5.645   8.066 -0.8458 -0.3469 -0.4150
   56MOL    H9712307   4.083   5.440   8.006 -0.7063 -0.9568 -1.1590
   56MOL    H9812308   4.177   5.406   7.785 -1.8654  0.0476 -1.1276
   56MOL    H9912309   3.997   5.752   7.634 -2.3127  0.6977  1.5083
   56MOL   H10012310   3.912   5.812   7.850  2.2185  0.8059 -0.5261
   56MOL   C10112311   4.127   5.821   0.049  0.6147 -0.8172 -0.2818
   56MOL   C10212312   4.047   5.796   8.190 -0.0016  0.4452  0.0318
   56MOL   C10312313   3.976   5.674   8.179  0.2360  0.3866  1.0381
   56MOL   C10412314   3.992   5.580   0.030 -0.3277 -0.1204  0.0495
   56MOL   C10512315   4.081   5.602   0.139 -0.0255  0.3756 -0.1797
   56MOL   C10612316   4.149   5.725   0.147 -0.0138  0.4249 -0.5703
   56MOL   O10712317   4.239   5.754   0.245  0.0401 -0.8785  0.7041
   56MOL   H10812318   4.184   5.913   0.052  1.7124 -1.5172  0.7528
   56MOL   H10912319   4.043   5.878   8.119 -0.1004 -0.9513 -1.6268
   56MOL   H11012320   3.936   5.488   0.032  0.1509 -0.4078  0.6251
   56MOL   H11112321   4.106   5.524   0.210 -1.3451 -0.3285 -0.4744
   56MOL   C11212322   4.249   5.820   0.603  0.4625  0.5297  0.0951
   56MOL   C11312323   4.284   5.777   0.471  0.1987  0.7687  0.4870
   56MOL   C11412324   4.191   5.800   0.367  0.5159 -0.3950 -0.0233
   56MOL   C11512325   4.065   5.858   0.390  0.1611  0.1028 -0.2796
   56MOL   C11612326   4.030   5.891   0.523  0.9237  0.5515 -0.2722
   56MOL   C11712327   4.122   5.881   0.626 -0.0633  0.5729 -0.3929
   56MOL   O11812328   4.095   5.917   0.758 -0.8354  0.1061  0.0763
   56MOL   H11912329   4.314   5.782   0.681 -0.1249 -2.8165 -0.9432
   56MOL   H12012330   4.374   5.722   0.452 -0.2752 -0.0678  0.6148
   56MOL   H12112331   4.001   5.876   0.305  1.4248  1.9755 -0.8618
   56MOL   H12212332   3.939   5.945   0.543 -0.2554 -1.9246  1.3320
   56MOL   C12312333   4.369   6.123   0.893  0.2089  1.4278 -0.1387
   56MOL   C12412334   4.304   6.007   0.850  0.0684 -0.4105 -0.3408
   56MOL   C12512335   4.172   6.026   0.802  0.3071  0.0520  0.7998
   56MOL   C12612336   4.110   6.151   0.821  0.8683  0.0881  0.6716
   56MOL   C12712337   4.181   6.267   0.861 -0.3439 -0.0177  0.0006
   56MOL   C12812338   4.313   6.252   0.888  0.2821 -0.2044 -0.0283
   56MOL   O12912339   4.398   6.359   0.902  0.5676  0.4643 -0.6570
   56MOL   H13012340   4.475   6.114   0.914  0.3186  1.7058 -0.5698
   56MOL   H13112341   4.350   5.909   0.858 -1.2307 -0.8629  1.8652
   56MOL   H13212342   4.004   6.152   0.804  0.8117 -0.6904  0.9821
   56MOL   H13312343   4.127   6.360   0.868 -1.7099 -0.7717 -0.1425
   56MOL   C13412344   4.579   6.377   0.575 -0.1740  1.1891  0.2520
   56MOL   C13512345   4.478   6.345   0.665 -0.2464  0.9720  0.0305
   56MOL   C13612346   4.491   6.391   0.799  0.1096  0.2686  0.0961
   56MOL   C13712347   4.597   6.476   0.826 -0.1426 -0.5376 -0.2854
   56MOL   C13812348   4.690   6.520   0.733  0.2481  0.0564 -0.8085
   56MOL   C13912349   4.687   6.469   0.605 -0.3790 -0.4971  0.4610
   56MOL   O14012350   4.773   6.495   0.498  0.4924 -0.3379  0.0991
   56MOL   H14112351   4.567   6.337   0.476 -2.1564 -0.9490  1.3046
   56MOL   H14212352   4.394   6.286   0.632  0.5202 -0.3132  0.3050
   56MOL   H14312353   4.613   6.504   0.930  0.5843  1.9545 -1.0197
   56MOL   H14412354   4.759   6.595   0.768 -1.3613  2.2154 -2.1963
   56MOL   C14512355   5.128   6.583   0.533  0.1483  0.7774  0.1653
   56MOL   C14612356   4.993   6.597   0.508 -0.0762 -0.0758  0.5985
   56MOL   C14712357   4.906   6.485   0.527 -0.3520  0.4666 -0.0334
   56MOL   C14812358   4.963   6.364   0.565  0.2437  0.2956  0.3970
   56MOL   C14912359   5.100   6.351   0.601 -0.4890 -0.9314 -0.1671
   56MOL   C15012360   5.184   6.465   0.591 -0.4189 -0.0296  0.3377
   56MOL   O15112361   5.316   6.456   0.622 -0.2353 -0.3647  0.1101
   56MOL   H15212362   5.187   6.669   0.506  1.1904 -0.5311 -1.8732
   56MOL   H15312363   4.954   6.695   0.485 -2.5432 -1.4804 -1.4018
   56MOL   H15412364   4.908   6.271   0.570  0.7280 -0.0745 -0.9637
   56MOL   H15512365   5.147   6.260   0.636 -1.1720 -0.1875  2.8155
   56MOL   C15612366   5.522   6.731   0.753 -0.1463 -0.2780 -0.3569
   56MOL   C15712367   5.447   6.651   0.667 -0.4395 -0.6199 -0.1660
   56MOL   C15812368   5.369   6.544   0.713 -0.5560 -0.3518  1.0154
   56MOL   C15912369   5.358   6.513   0.848 -0.0986  0.5255 -0.7382
   56MOL   C16012370   5.435   6.593   0.937 -0.5844  0.2497  0.8115
   56MOL   C16112371   5.520   6.698   0.891 -0.1740  0.1030  0.2827
   56MOL   O16212372   5.588   6.773   0.979 -0.2106 -0.5603 -0.0638
   56MOL   H16312373   5.583   6.811   0.714 -0.7461  0.1734 -0.3979
   56MOL   H16412374   5.468   6.655   0.561 -1.3036 -0.4827 -0.3308
   56MOL   H16512375   5.290   6.441   0.892  0.9101 -0.5226 -0.8836
   56MOL   H16612376   5.434   6.577   1.043  1.3551  1.3247  1.0170
   56MOL   C16712377   5.875   6.984   0.907 -0.1593 -0.2156 -0.2797
   56MOL   C16812378   5.750   6.942   0.942  0.4301 -0.7347 -0.4746
   56MOL   C16912379   5.718   6.808   0.949 -0.3463  0.2191  0.3765
   56MOL   C17012380   5.813   6.711   0.917 -0.3223 -0.2810  0.0168
   56MOL   C17112381   5.939   6.754   0.877  0.2979 -0.0726 -0.5224
   56MOL   C17212382   5.973   6.889   0.872  0.2246 -0.2328 -0.6731
   56MOL   O17312383   6.095   6.929   0.819 -0.0266 -0.4365 -0.3351
   56MOL   H17412384   5.892   7.090   0.890 -0.3768  0.3663  2.8731
   56MOL   H17512385   5.673   7.015   0.960  0.2024 -1.2772  0.8139
   56MOL   H17612386   5.777   6.609   0.924 -0.3931 -0.3869 -1.6310
   56MOL   H17712387   6.021   6.688   0.852 -0.0193  0.0338 -1.9019
   56MOL   C17812388   6.138   6.830   0.461  0.7718 -0.1277 -0.7533
   56MOL   C17912389   6.117   6.816   0.597  0.2555 -0.2755  0.4246
   56MOL   C18012390   6.110   6.935   0.679  0.6585  0.4752  0.4135
   56MOL   C18112391   6.129   7.055   0.621  0.4740  0.3335 -0.0010
   56MOL   C18212392   6.162   7.069   0.486 -0.7056 -0.0623 -0.8297
   56MOL   C18312393   6.171   6.954   0.405  0.1679 -0.3739 -0.6996
   56MOL   O18412394   6.190   6.970   0.270  0.2635  0.5953 -0.2887
   56MOL   H18512395   6.136   6.746   0.393  1.8725  0.2696 -1.2746
   56MOL   H18612396   6.104   6.723   0.650 -3.4717 -1.1309 -1.8498
   56MOL   H18712397   6.119   7.146   0.678 -1.0721  2.4271 -3.4813
   56MOL   H18812398   6.182   7.161   0.434 -0.5838  0.4515  0.1030
   56MOL   C18912399   6.530   6.873   0.156  0.1766  0.2312 -0.3340
   56MOL   C19012400   6.410   6.869   0.229  0.0836 -0.2759  0.4247
   56MOL   C19112401   6.318   6.971   0.211 -0.0131 -1.1055 -0.5507
   56MOL   C19212402   6.346   7.080   0.128 -0.6806  0.0807  0.8121
   56MOL   C19312403   6.469   7.090   0.061  0.1990  0.2386  0.4163
   56MOL   C19412404   6.559   6.987   0.077  0.5568  0.4624 -0.7179
   56MOL   O19512405   6.680   6.991   0.011 -0.2934  0.3869  0.3877
   56MOL   H19612406   6.610   6.803   0.176 -0.0599 -0.3635 -1.4460
   56MOL   H19712407   6.393   6.788   0.298 -0.1874 -0.2088  0.4378
   56MOL   H19812408   6.264   7.148   0.107 -0.8444 -0.6505 -1.0761
   56MOL   H19912409   6.486   7.179   0.001  0.4513 -0.2476 -0.2387
   56MOL   C20012410   6.865   7.297   0.106  0.9617 -0.6239  0.5452
   56MOL   C20112411   6.785   7.211   0.032 -0.3420  0.4009 -0.6665
   56MOL   C20212412   6.781   7.071   0.065 -0.6135  0.2068 -0.1801
   56MOL   C20312413   6.865   7.017   0.164  0.1249 -0.0979  0.1800
   56MOL   C20412414   6.958   7.105   0.229  0.3968  0.0641 -0.3417
   56MOL   C20512415   6.952   7.243   0.201  0.0628  0.1482 -0.4600
   56MOL   O20612416   7.024   7.332   0.275 -0.7708  0.3815 -0.6475
   56MOL   H20712417   6.861   7.403   0.088  3.8534 -0.7456 -1.0116
   56MOL   H20812418   6.711   7.256   8.222 -1.5286  0.1309  0.4944
   56MOL   H20912419   6.859   6.914   0.196 -1.0396  0.0144  0.3366
   56MOL   H21012420   7.014   7.070   0.314  0.4622 -0.9600 -0.8033
   56MOL   C21112421   7.004   7.365   0.649  0.2904 -0.5261  0.3759
   56MOL   C21212422   7.050   7.339   0.520 -0.0792  0.1389 -0.1790
   56MOL   C21312423   6.968   7.361   0.405  0.4607  0.3816 -0.4197
   56MOL   C21412424   6.840   7.411   0.429  0.0331  0.2475 -0.2104
   56MOL   C21512425   6.786   7.441   0.553 -0.2990 -0.2193 -0.4198
   56MOL   C21612426   6.876   7.423   0.663  0.1251 -0.0413 -0.4494
   56MOL   O21712427   6.823   7.438   0.786 -0.1402  0.0715 -0.1916
   56MOL   H21812428   7.069   7.359   0.735 -0.8148  4.7472  1.7713
   56MOL   H21912429   7.146   7.289   0.511 -0.9106 -1.7087  0.9274
   56MOL   H22012430   6.776   7.432   0.344  0.1172  0.6636 -0.1739
   56MOL   H22112431   6.687   7.485   0.554 -1.2613 -2.2442 -2.1783
   56MOL   H22212432   6.754   7.374   0.791 -1.0010  1.0242  0.2064
   57MOL     C112433   0.953   0.149   7.627  0.2800  0.0615 -0.0587
   57MOL     C212434   0.842   0.174   7.545 -0.0207  0.0223  0.7699
   57MOL     C312435   0.849   0.192   7.405 -0.2736 -0.1999  0.5404
   57MOL     C412436   0.977   0.181   7.342 -0.2644 -0.8816  0.2413
   57MOL     C512437   1.091   0.149   7.422 -0.1221  0.6774 -0.0423
   57MOL     C612438   1.080   0.136   7.565 -1.2684 -0.0297 -0.4601
   57MOL     O712439   1.191   0.104   7.646  0.6424 -0.7557 -0.0030
   57MOL     H812440   0.935   0.139   7.733  0.6908  0.6275  0.0663
   57MOL     H912441   0.744   0.178   7.591 -0.6191  2.8163 -0.6487
   57MOL    H1012442   0.980   0.207   7.237 -0.6572 -1.3671  0.1042
   57MOL    H1112443   1.187   0.138   7.374 -0.1388 -0.9183  0.2341
   57MOL    H1212444   0.758   0.219   7.354  0.7026  2.5705  0.1566
   57MOL    C1312445   1.338   0.212   7.965 -0.0805 -0.4799  0.8793
   57MOL    C1412446   1.300   0.127   7.862  0.0820  0.6222  0.2163
   57MOL    C1512447   1.218   0.180   7.759  0.9466 -0.6519  0.5125
   57MOL    C1612448   1.183   0.315   7.768 -0.1226  0.1059  0.2888
   57MOL    C1712449   1.217   0.399   7.877  0.5271  0.1855 -0.0132
   57MOL    C1812450   1.288   0.346   7.987  0.0980  0.0451  0.4583
   57MOL    O1912451   1.328   0.412   8.095 -0.0710 -0.7567  0.2154
   57MOL    H2012452   1.397   0.170   8.045 -0.5797 -1.8513  0.5437
   57MOL    H2112453   1.351   0.032   7.849  0.0690  0.4821  1.1574
   57MOL    H2212454   1.126   0.363   7.689  2.1643  1.9785 -0.2755
   57MOL    H2312455   1.182   0.500   7.891 -3.4491 -1.2546  1.1293
   57MOL    C2412456   1.222   0.257   0.164  0.6290 -0.3908 -0.5863
   57MOL    C2512457   1.304   0.307   0.060  0.0894 -0.6847 -0.6854
   57MOL    C2612458   1.252   0.382   8.210  0.0373  0.4154  0.1574
   57MOL    C2712459   1.117   0.421   8.222  0.3058 -0.0223  0.1210
   57MOL    C2812460   1.034   0.374   0.073  0.4812 -0.4362  0.3859
   57MOL    C2912461   1.088   0.292   0.173  0.8066  0.5905  0.1312
   57MOL    O3012462   1.009   0.244   0.272 -0.4049 -0.0837 -0.2630
   57MOL    H3112463   1.266   0.196   0.242 -1.1131 -0.1341  0.6290
   57MOL    H3212464   1.409   0.282   0.051  0.7151  0.0573  3.5929
   57MOL    H3312465   1.069   0.481   8.147 -1.5636 -0.6964  0.7430
   57MOL    H3412466   0.933   0.411   0.081  0.4506 -0.1254 -1.3080
   57MOL    C3512467   1.055   8.140   0.324 -0.6711 -0.5379  0.1737
   57MOL    C3612468   1.065   0.025   0.351  0.5289  1.0976 -0.2220
   57MOL    C3712469   0.993   0.111   0.265  0.0714 -0.3823 -0.0756
   57MOL    C3812470   0.915   0.056   0.159 -0.4063  0.4485 -0.6419
   57MOL    C3912471   0.918   8.177   0.132  0.4606 -0.7598  0.1087
   57MOL    C4012472   0.989   8.094   0.210 -0.2104  0.7913 -0.1863
   57MOL    O4112473   0.989   7.954   0.180 -0.4031 -0.4235 -0.5076
   57MOL    H4212474   1.094   8.074   0.400  0.5582  0.7126  0.6434
   57MOL    H4312475   1.130   0.059   0.430  0.2019  0.7144  0.2129
   57MOL    H4412476   0.865   0.128   0.095 -0.1807  0.3629 -0.9145
   57MOL    H4512477   0.858   8.146   0.048 -1.6132  1.1329  0.8301
   57MOL    C4612478   0.767   7.734   0.362 -0.5129 -0.5066  0.0780
   57MOL    C4712479   0.812   7.828   0.265  0.5009 -0.2401 -0.2934
   57MOL    C4812480   0.945   7.870   0.274 -0.5368  0.4205 -0.0037
   57MOL    C4912481   1.041   7.806   0.352 -0.2085  0.2340 -0.3644
   57MOL    C5012482   0.998   7.706   0.443 -0.0472 -0.5200  0.1814
   57MOL    C5112483   0.863   7.670   0.448 -0.0951 -0.4797 -0.5770
   57MOL    O5212484   0.829   7.578   0.539  0.1081 -0.1400 -0.3918
   57MOL    H5312485   0.664   7.703   0.370 -1.1730  1.3037 -1.0900
   57MOL    H5412486   0.742   7.872   0.195 -1.1154 -1.3240  0.6087
   57MOL    H5512487   1.143   7.834   0.329 -0.3130  1.9549  1.1859
   57MOL    H5612488   1.071   7.664   0.511  0.4368 -0.3129 -0.2044
   57MOL    C5712489   0.934   7.243   0.400  0.5743  0.2420 -0.2363
   57MOL    C5812490   0.943   7.372   0.453  0.2914 -0.0391  0.3909
   57MOL    C5912491   0.825   7.447   0.491 -0.0981 -0.2885 -0.2011
   57MOL    C6012492   0.701   7.383   0.474  0.8160  0.7293  0.2062
   57MOL    C6112493   0.695   7.252   0.419  0.1610  0.5003 -0.2742
   57MOL    C6212494   0.811   7.176   0.388 -0.1341  0.6565  0.4687
   57MOL    O6312495   0.802   7.049   0.332  0.0569 -0.3966 -0.3629
   57MOL    H6412496   1.029   7.192   0.391  0.3638 -0.2876  0.4751
   57MOL    H6512497   1.038   7.410   0.488 -0.6418  0.8759  1.9627
   57MOL    H6612498   0.608   7.433   0.496  1.4095  0.8784  2.4722
   57MOL    H6712499   0.603   7.197   0.412  0.3486  0.2242 -0.6092
   57MOL    C6812500   0.812   7.135   8.224  0.5833 -0.0455 -0.0104
   57MOL    C6912501   0.790   7.145   0.111  0.0455  0.6584  0.0685
   57MOL    C7012502   0.843   7.049   0.201  0.3220  0.5148  0.3679
   57MOL    C7112503   0.916   6.935   0.156  0.1825 -0.2022  0.5174
   57MOL    C7212504   0.950   6.933   0.016  0.9710  0.1958  0.7432
   57MOL    C7312505   0.903   7.030   8.181  0.9335 -0.4394  0.0057
   57MOL    O7412506   0.939   7.024   8.048  0.1841  0.4034 -0.5244
   57MOL    H7512507   0.789   7.218   8.159 -1.2129 -0.7054 -0.2415
   57MOL    H7612508   0.726   7.222   0.151 -0.6023  0.8406 -1.2882
   57MOL    H7712509   0.936   6.852   0.222  1.5554 -0.6238 -0.4228
   57MOL    H7812510   1.016   6.854   8.237  0.1654 -0.1637 -0.0309
   57MOL    C7912511   1.106   7.355   7.988  0.1401  0.3511 -0.5090
   57MOL    C8012512   1.067   7.231   8.051 -0.1742 -0.6204  0.3979
   57MOL    C8112513   0.994   7.131   7.983  0.1428 -0.4250  0.2959
   57MOL    C8212514   0.963   7.153   7.846  0.0717 -0.3459 -0.7761
   57MOL    C8312515   1.010   7.270   7.783 -0.2747  0.1210 -0.2195
   57MOL    C8412516   1.077   7.374   7.852 -0.0433 -0.4510  0.1411
   57MOL    O8512517   1.105   7.492   7.784  0.0494  0.2805 -0.3650
   57MOL    H8612518   1.162   7.422   8.051  2.5323 -1.0423 -1.0663
   57MOL    H8712519   1.084   7.219   8.157 -0.7721 -0.8962  0.4651
   57MOL    H8812520   0.909   7.079   7.788  1.0550 -1.6851  0.0046
   57MOL    H8912521   0.993   7.274   7.677  2.9198  0.4887 -0.7753
   57MOL    C9012522   1.412   7.678   7.876  0.4128  0.0326  0.1940
   57MOL    C9112523   1.282   7.625   7.888  0.4993  0.3563 -0.6132
   57MOL    C9212524   1.235   7.542   7.792 -0.2563  0.2969 -0.4765
   57MOL    C9312525   1.317   7.498   7.684  1.0221  0.3555 -1.1221
   57MOL    C9412526   1.442   7.564   7.668  0.3784  0.4963  0.7432
   57MOL    C9512527   1.491   7.648   7.768 -0.6582 -0.1263 -0.1341
   57MOL    O9612528   1.611   7.717   7.757 -0.7275  0.1970  0.0271
   57MOL    H9712529   1.443   7.735   7.962 -2.2685  1.2344  0.4400
   57MOL    H9812530   1.209   7.644   7.965 -1.3151 -2.5397 -1.5619
   57MOL    H9912531   1.269   7.429   7.617  0.3234 -1.7773  1.4907
   57MOL   H10012532   1.496   7.549   7.575 -0.7174  1.6011 -0.0926
   57MOL   C10112533   1.855   7.457   7.645 -0.2555  0.3476 -0.6774
   57MOL   C10212534   1.748   7.522   7.718  0.0801  0.1009 -0.2803
   57MOL   C10312535   1.712   7.655   7.688 -0.0108  0.0382  0.5326
   57MOL   C10412536   1.795   7.726   7.599  0.7315  0.9642 -0.3195
   57MOL   C10512537   1.896   7.663   7.523  0.7261  0.4751  0.7579
   57MOL   C10612538   1.918   7.527   7.542 -0.0569 -0.1063 -0.9905
   57MOL   O10712539   2.024   7.481   7.471 -0.3779  0.5914 -0.4297
   57MOL   H10812540   1.896   7.364   7.681  0.8965  0.8362 -0.7058
   57MOL   H10912541   1.697   7.465   7.794  0.8247 -0.6902 -0.3718
   57MOL   H11012542   1.776   7.831   7.578 -2.8518  0.2206 -1.2432
   57MOL   H11112543   1.943   7.711   7.439  0.3391 -0.7418 -0.1706
   57MOL   C11212544   2.082   7.125   7.399  0.6168  0.8051  0.3494
   57MOL   C11312545   2.017   7.249   7.402 -0.2171 -0.4817 -0.5511
   57MOL   C11412546   2.066   7.350   7.485 -0.2317  0.6945  0.3057
   57MOL   C11512547   2.154   7.317   7.590 -0.7173  0.0806  0.4877
   57MOL   C11612548   2.199   7.185   7.602  1.0342  1.2491  0.1339
   57MOL   C11712549   2.174   7.094   7.499 -0.0004  0.0582  0.5670
   57MOL   O11812550   2.240   6.975   7.500  0.2428  0.0801 -0.0430
   57MOL   H11912551   2.071   7.048   7.325  1.1561  2.8856 -1.9779
   57MOL   H12012552   1.962   7.271   7.311  1.3854 -0.4095 -1.5183
   57MOL   H12112553   2.194   7.396   7.652  1.2703 -0.3983 -0.1279
   57MOL   H12212554   2.269   7.156   7.679  1.1937 -0.3986 -0.6153
   57MOL   C12312555   2.611   6.976   7.492 -0.6329  0.2688  0.6223
   57MOL   C12412556   2.480   6.981   7.544 -0.1504 -0.0379  0.1402
   57MOL   C12512557   2.369   6.988   7.454  0.2209  0.0819 -0.4721
   57MOL   C12612558   2.388   7.014   7.320  1.0212  0.2014  0.2329
   57MOL   C12712559   2.520   7.025   7.273  0.2876  0.1758  0.4736
   57MOL   C12812560   2.634   6.998   7.357  0.3547  0.3193  0.0356
   57MOL   O12912561   2.768   6.988   7.315 -0.2126 -0.8729 -0.1000
   57MOL   H13012562   2.693   6.945   7.554 -0.6563 -2.2276 -0.5551
   57MOL   H13112563   2.462   6.942   7.642  0.4679 -2.4613 -0.6874
   57MOL   H13212564   2.314   7.027   7.242  2.0232 -1.3648 -1.0329
   57MOL   H13312565   2.524   7.054   7.170  0.5113 -1.3527  0.0372
   57MOL   C13412566   2.835   7.201   7.022  0.1275  0.7081  0.0648
   57MOL   C13512567   2.799   7.165   7.153  0.3732  0.5488 -0.2997
   57MOL   C13612568   2.798   7.031   7.190 -0.1687 -0.3725 -0.8219
   57MOL   C13712569   2.842   6.932   7.096  0.2981 -0.8802 -0.1599
   57MOL   C13812570   2.882   6.971   6.967 -0.6010 -0.1186  0.0628
   57MOL   C13912571   2.883   7.108   6.928 -0.1405  0.0921 -0.2578
   57MOL   O14012572   2.911   7.143   6.802  0.0378  0.3174 -0.3088
   57MOL   H14112573   2.831   7.303   6.987  1.0206  1.2700  1.5729
   57MOL   H14212574   2.775   7.239   7.228 -0.5946  0.2830 -0.3489
   57MOL   H14312575   2.833   6.829   7.127 -1.7932 -0.0621  2.1758
   57MOL   H14412576   2.908   6.891   6.898  0.7372 -1.0064  1.5521
   57MOL   C14512577   3.278   7.139   6.752 -0.0157  0.4362  0.9671
   57MOL   C14612578   3.151   7.172   6.810 -0.0919  0.0696  0.0128
   57MOL   C14712579   3.036   7.107   6.762  0.2997  0.1428 -0.3877
   57MOL   C14812580   3.046   7.011   6.661  1.3216  0.6729  0.2344
   57MOL   C14912581   3.170   6.979   6.604 -0.6932  0.8210  0.3888
   57MOL   C15012582   3.288   7.040   6.652  1.1571  0.1027  0.4366
   57MOL   O15112583   3.414   7.010   6.601 -0.2581 -0.1261 -0.2166
   57MOL   H15212584   3.369   7.178   6.795  0.5225 -0.9005  1.0903
   57MOL   H15312585   3.145   7.240   6.894  3.3852  0.8292 -0.2763
   57MOL   H15412586   2.952   6.967   6.631  1.9261  0.2347 -1.0468
   57MOL   H15512587   3.185   6.900   6.531 -0.0038  0.1860  1.2164
   57MOL   C15612588   3.439   6.672   6.452  0.3660  0.0854  0.7108
   57MOL   C15712589   3.423   6.812   6.467  0.2723  0.3602 -0.4484
   57MOL   C15812590   3.440   6.877   6.592  0.1233  0.0053 -0.0833
   57MOL   C15912591   3.486   6.805   6.704 -0.0569 -0.3250 -0.1234
   57MOL   C16012592   3.495   6.666   6.693 -0.2467 -0.1991  0.2631
   57MOL   C16112593   3.470   6.599   6.569  0.1699  0.1047  0.2317
   57MOL   O16212594   3.477   6.457   6.562 -0.0427  0.3615 -0.7035
   57MOL   H16312595   3.402   6.612   6.370 -0.4841  2.5808 -0.7805
   57MOL   H16412596   3.383   6.875   6.388 -0.2282  0.5362 -0.0538
   57MOL   H16512597   3.504   6.849   6.801 -0.4661 -0.8032  0.1718
   57MOL   H16612598   3.525   6.603   6.775 -0.7634  1.7336  1.9762
   57MOL   C16712599   3.130   6.327   6.543  0.7345  0.0388 -0.0337
   57MOL   C16812600   3.242   6.396   6.596 -0.0619  1.1389 -0.8486
   57MOL   C16912601   3.364   6.396   6.518  0.3177 -0.6027 -0.4169
   57MOL   C17012602   3.364   6.351   6.383  0.3443 -0.0497 -0.5257
   57MOL   C17112603   3.253   6.284   6.338 -0.3273 -0.2628 -0.8250
   57MOL   C17212604   3.133   6.279   6.413  0.1027  0.3798 -0.1896
   57MOL   O17312605   3.016   6.218   6.370 -0.1248  0.2833  0.2634
   57MOL   H17412606   3.042   6.305   6.602  1.8367 -2.9643  0.5464
   57MOL   H17512607   3.244   6.447   6.691  0.1090 -2.1509  0.9460
   57MOL   H17612608   3.453   6.356   6.322 -1.2732  1.7553 -2.7966
   57MOL   H17712609   3.249   6.250   6.235  1.7810 -0.0896 -0.9982
   57MOL   C17812610   3.018   5.923   6.142  0.2283 -0.2797 -0.2347
   57MOL   C17912611   3.024   6.058   6.189  0.5232  0.1721 -0.2779
   57MOL   C18012612   3.027   6.088   6.322 -0.1418  0.0719 -0.0757
   57MOL   C18112613   3.039   5.985   6.415  0.1456 -0.0381  0.5519
   57MOL   C18212614   3.019   5.853   6.372 -0.0460 -0.2012 -0.6288
   57MOL   C18312615   3.017   5.813   6.235  0.4251  0.1664 -0.1588
   57MOL   O18412616   3.017   5.678   6.205  0.2089 -0.2883 -0.4566
   57MOL   H18512617   3.007   5.901   6.037 -3.8668 -1.3625  0.3268
   57MOL   H18612618   3.025   6.138   6.116  0.0966 -0.2091 -0.7070
   57MOL   H18712619   3.039   5.995   6.523  1.1549 -1.6145  0.7147
   57MOL   H18812620   3.016   5.779   6.451  1.6884  2.3274  1.9021
   57MOL   C18912621   3.076   5.604   5.847  0.1422  0.0287 -0.3117
   57MOL   C19012622   3.090   5.649   5.983  0.0492  0.5864 -0.2380
   57MOL   C19112623   2.990   5.643   6.076 -0.6309  0.0193 -0.1046
   57MOL   C19212624   2.865   5.595   6.037 -0.8885  0.4792 -0.5646
   57MOL   C19312625   2.846   5.546   5.907  0.3892 -0.5148  0.4443
   57MOL   C19412626   2.949   5.560   5.811  0.0993  0.1872  0.1861
   57MOL   O19512627   2.928   5.534   5.674 -0.4383  0.2709  0.3246
   57MOL   H19612628   3.157   5.604   5.775 -0.7187 -2.1658 -1.3120
   57MOL   H19712629   3.194   5.671   6.003  0.2599 -0.2900 -0.3453
   57MOL   H19812630   2.784   5.590   6.108 -0.0482 -2.5235  0.2429
   57MOL   H19912631   2.752   5.499   5.879 -0.1435  0.9172 -0.2845
   57MOL   C20012632   2.716   5.249   5.588  0.1903 -0.5214  0.7394
   57MOL   C20112633   2.831   5.322   5.627  0.2635  0.1190  0.3537
   57MOL   C20212634   2.819   5.462   5.628  0.6504 -0.3318  0.1016
   57MOL   C20312635   2.696   5.534   5.601 -0.4141  0.2149  0.1932
   57MOL   C20412636   2.582   5.457   5.568 -0.8026  0.3353 -0.2558
   57MOL   C20512637   2.593   5.318   5.557 -0.2933  0.2129 -0.3422
   57MOL   O20612638   2.482   5.243   5.529  0.5123  0.4767 -0.1822
   57MOL   H20712639   2.700   5.142   5.594  0.7252 -0.6488 -0.0812
   57MOL   H20812640   2.928   5.275   5.640  0.3162  0.2621  0.4781
   57MOL   H20912641   2.693   5.641   5.618  1.3824 -0.1672  3.1562
   57MOL   H21012642   2.489   5.512   5.563 -0.9783  0.2230  1.4170
   57MOL   C21112643   2.412   5.256   5.167  0.7858 -0.0931 -0.2060
   57MOL   C21212644   2.429   5.294   5.305  0.1169 -0.6856  0.1533
   57MOL   C21312645   2.465   5.199   5.399 -0.9049 -0.6741 -0.3992
   57MOL   C21412646   2.478   5.065   5.361  0.1514  0.4866  0.6369
   57MOL   C21512647   2.456   5.026   5.227 -0.1837 -0.5372  1.5189
   57MOL   C21612648   2.421   5.124   5.127  0.6390  0.1448  0.2762
   57MOL   O21712649   2.388   5.087   4.996 -0.1440  0.0494  0.1952
   57MOL   H21812650   2.392   5.338   5.100 -2.2495  1.2719  2.2109
   57MOL   H21912651   2.426   5.399   5.329 -1.1738 -0.9579  1.3006
   57MOL   H22012652   2.488   4.986   5.434 -2.8927  0.1180  0.7276
   57MOL   H22112653   2.460   4.922   5.198 -1.1156  0.0637 -0.9169
   57MOL   H22212654   2.382   4.993   4.985  1.0389  0.0386 -0.4558
   58MOL     C112655   6.032   5.166   3.238 -0.5342 -0.2503 -0.1331
   58MOL     C212656   6.082   5.078   3.143 -0.4620 -0.2090 -0.3494
   58MOL     C312657   6.212   5.016   3.167 -0.2253 -0.4522  0.2671
   58MOL     C412658   6.273   5.024   3.293 -0.2347  0.7096  0.2463
   58MOL     C512659   6.220   5.107   3.389  0.1700  0.5999  0.3700
   58MOL     C612660   6.101   5.179   3.358  0.2585  0.1255  0.7724
   58MOL     O712661   6.049   5.273   3.441  0.1913  0.6092 -1.1314
   58MOL     H812662   5.935   5.205   3.211  0.7374  2.9849 -0.1302
   58MOL     H912663   6.028   5.043   3.056 -0.5166  0.4945 -0.5966
   58MOL    H1012664   6.364   4.970   3.310 -0.8532 -0.5478 -0.3455
   58MOL    H1112665   6.276   5.107   3.481 -1.7410  0.8258  1.5549
   58MOL    H1212666   6.256   4.959   3.087 -0.5195 -0.9117  0.4322
   58MOL    C1312667   6.201   5.338   3.766 -0.1669  0.1535  0.8452
   58MOL    C1412668   6.113   5.293   3.670  0.8375  1.0633  0.2841
   58MOL    C1512669   6.130   5.324   3.536  0.0623 -1.1331  0.6928
   58MOL    C1612670   6.234   5.414   3.498 -0.4542  1.0614 -0.4928
   58MOL    C1712671   6.324   5.464   3.594  0.7452 -1.1341  0.1481
   58MOL    C1812672   6.307   5.427   3.731  0.5610 -0.0452 -0.6376
   58MOL    O1912673   6.393   5.474   3.832 -0.1881  0.4387 -0.2490
   58MOL    H2012674   6.190   5.293   3.864  2.0353 -0.3991  0.8746
   58MOL    H2112675   6.035   5.225   3.702  2.1501 -0.5661  0.1248
   58MOL    H2212676   6.247   5.439   3.393  0.1638 -0.6244 -0.8284
   58MOL    H2312677   6.405   5.531   3.571 -0.3251  0.7586  1.7330
   58MOL    C2412678   6.748   5.416   3.890 -0.1284 -0.2190  0.1210
   58MOL    C2512679   6.622   5.478   3.878  0.3296  0.2518 -0.4132
   58MOL    C2612680   6.510   5.406   3.838  0.8574 -0.4805  0.3287
   58MOL    C2712681   6.523   5.265   3.819  0.1441  0.4555 -0.2360
   58MOL    C2812682   6.647   5.205   3.833  0.0709 -0.2558  0.4858
   58MOL    C2912683   6.763   5.278   3.868  0.1814 -0.4266  0.0480
   58MOL    O3012684   6.883   5.219   3.873  0.0503  0.1874  0.7109
   58MOL    H3112685   6.827   5.483   3.918 -0.5233  2.3266 -4.3604
   58MOL    H3212686   6.626   5.585   3.894  2.3520 -0.0156  1.0574
   58MOL    H3312687   6.436   5.204   3.800  1.7822 -1.2611 -2.5180
   58MOL    H3412688   6.653   5.101   3.805  1.1382  0.2050 -1.0290
   58MOL    C3512689   6.940   5.131   4.227 -0.3228 -0.4627  0.4568
   58MOL    C3612690   6.867   5.165   4.111 -0.5971  0.1641 -0.3290
   58MOL    C3712691   6.945   5.191   3.995 -0.0933  0.0820  0.4815
   58MOL    C3812692   7.090   5.180   4.001  1.5008 -0.3547 -0.0713
   58MOL    C3912693   7.155   5.161   4.125  0.3927  0.2601 -0.3411
   58MOL    C4012694   7.077   5.125   4.237 -0.6381 -0.3054  0.1414
   58MOL    O4112695   7.145   5.095   4.350 -0.4006 -0.1947 -0.4436
   58MOL    H4212696   6.871   5.107   4.307 -2.5278  1.1873 -0.9101
   58MOL    H4312697   6.760   5.176   4.113 -0.5080  1.0596 -0.6043
   58MOL    H4412698   7.161   5.209   3.925  1.4065 -1.5065 -0.6111
   58MOL    H4512699   7.263   5.154   4.125  0.3344 -0.9315 -1.6638
   58MOL    C4612700   6.956   5.212   4.639 -0.1211 -0.4524  0.0297
   58MOL    C4712701   7.030   5.218   4.520 -0.3771 -0.1294 -0.4586
   58MOL    C4812702   7.067   5.093   4.465 -0.6906  0.4795 -0.6737
   58MOL    C4912703   7.037   4.970   4.522  0.0324 -0.3176 -0.1311
   58MOL    C5012704   6.962   4.967   4.639 -0.0780  0.1086  0.0825
   58MOL    C5112705   6.917   5.088   4.700 -0.1629  0.3293 -0.2230
   58MOL    O5212706   6.841   5.091   4.811 -0.6461 -1.1191  0.0762
   58MOL    H5312707   6.926   5.298   4.698  1.4745  0.1859 -0.0756
   58MOL    H5412708   7.054   5.304   4.460  2.0313 -0.2043  0.3690
   58MOL    H5512709   7.060   4.882   4.464  0.4938 -0.7454  0.6954
   58MOL    H5612710   6.943   4.870   4.683  1.0201  0.1516  0.6718
   58MOL    C5712711   6.589   4.824   4.841 -0.0045  0.2019 -0.0034
   58MOL    C5812712   6.711   4.888   4.835 -0.2225 -0.1573 -0.9543
   58MOL    C5912713   6.720   5.031   4.823  0.4666  0.0836  0.4651
   58MOL    C6012714   6.598   5.106   4.818 -0.4746  0.1774  0.0883
   58MOL    C6112715   6.474   5.042   4.828 -0.0801  0.3032  0.6790
   58MOL    C6212716   6.470   4.900   4.844  0.0500 -0.1688 -0.3742
   58MOL    O6312717   6.349   4.833   4.860 -0.2108  0.2577  0.3799
   58MOL    H6412718   6.583   4.716   4.844 -1.0380  0.2005 -1.7532
   58MOL    H6512719   6.796   4.822   4.822 -0.1724 -0.1742 -0.5242
   58MOL    H6612720   6.609   5.213   4.823 -0.1144  0.0586  2.0587
   58MOL    H6712721   6.385   5.099   4.848  1.0188  1.6846  1.7078
   58MOL    C6812722   6.318   4.712   5.206  0.0085  0.5834 -0.2025
   58MOL    C6912723   6.374   4.786   5.094 -0.2733 -0.0500  0.1726
   58MOL    C7012724   6.329   4.750   4.960 -0.2142  0.1903 -0.4913
   58MOL    C7112725   6.242   4.639   4.945 -0.6150 -0.0142  0.0914
   58MOL    C7212726   6.193   4.567   5.061  0.2469  0.6174  0.4306
   58MOL    C7312727   6.234   4.604   5.191  0.6024 -0.9329  0.2669
   58MOL    O7412728   6.189   4.531   5.294 -0.5487 -0.1657  0.3604
   58MOL    H7512729   6.334   4.736   5.311 -2.0674 -2.5142  0.9029
   58MOL    H7612730   6.439   4.871   5.109 -1.8553  0.9497  1.4445
   58MOL    H7712731   6.201   4.617   4.848 -2.3849 -2.7129  1.3945
   58MOL    H7812732   6.126   4.486   5.036 -0.5194  1.2198  0.5090
   58MOL    C7912733   6.314   4.504   5.633 -0.4748  0.0157  0.9084
   58MOL    C8012734   6.244   4.553   5.522  0.8034 -0.0289 -0.2072
   58MOL    C8112735   6.273   4.498   5.395  0.5287 -0.0050  0.4719
   58MOL    C8212736   6.377   4.403   5.376  0.2696  0.2918 -0.0262
   58MOL    C8312737   6.446   4.359   5.494 -0.2143 -0.0744  0.0233
   58MOL    C8412738   6.405   4.401   5.620 -0.9725 -0.0993 -0.2291
   58MOL    O8512739   6.472   4.345   5.722  0.1131 -0.3862 -0.4169
   58MOL    H8612740   6.295   4.546   5.731 -3.2722 -2.6672  1.5906
   58MOL    H8712741   6.170   4.631   5.518 -1.1590 -1.7685  1.1976
   58MOL    H8812742   6.395   4.353   5.282 -0.2337  1.9835 -1.0386
   58MOL    H8912743   6.523   4.283   5.489  0.7819  0.8171  1.4908
   58MOL    C9012744   6.447   4.469   6.071 -0.3988  1.2434 -0.3579
   58MOL    C9112745   6.411   4.407   5.950 -0.4749 -0.2632 -0.0627
   58MOL    C9212746   6.495   4.416   5.839  0.0507 -0.6059  0.0621
   58MOL    C9312747   6.621   4.476   5.852  0.7211  0.4013 -0.2208
   58MOL    C9412748   6.662   4.530   5.976 -0.2797 -0.5782 -0.0766
   58MOL    C9512749   6.576   4.530   6.090 -0.0901 -0.5381 -0.3492
   58MOL    O9612750   6.616   4.581   6.215  0.5328  0.3490 -0.3427
   58MOL    H9712751   6.378   4.446   6.151 -1.0868 -1.3952 -1.6540
   58MOL    H9812752   6.318   4.354   5.942 -0.5587 -0.1443  0.1408
   58MOL    H9912753   6.689   4.479   5.768  2.5806 -2.1873  1.1218
   58MOL   H10012754   6.758   4.578   5.993 -0.3241 -0.6765  0.4346
   58MOL   C10112755   6.392   4.693   6.487  0.2660 -0.3766  1.0758
   58MOL   C10212756   6.457   4.697   6.361  0.5771  1.0624  0.0148
   58MOL   C10312757   6.531   4.584   6.323  0.4016 -0.0257  0.3585
   58MOL   C10412758   6.529   4.464   6.400  0.2707  0.0236 -0.7709
   58MOL   C10512759   6.456   4.467   6.517  0.4776 -0.2265 -0.5111
   58MOL   C10612760   6.398   4.586   6.568 -0.6311  0.0920  0.2193
   58MOL   O10712761   6.328   4.592   6.684 -0.0318  0.5321 -0.6972
   58MOL   H10812762   6.340   4.785   6.508  0.0475 -0.7399  2.1979
   58MOL   H10912763   6.452   4.780   6.292  1.2653  0.9801 -0.1401
   58MOL   H11012764   6.571   4.373   6.361  1.1736 -0.2336  0.7815
   58MOL   H11112765   6.444   4.378   6.578 -0.6810  0.7232  0.6947
   58MOL   C11212766   6.341   4.840   6.951 -0.0203  0.4533  1.0649
   58MOL   C11312767   6.296   4.764   6.841 -0.5173  0.5595  0.7967
   58MOL   C11412768   6.379   4.663   6.792 -0.2664  0.4215  0.1680
   58MOL   C11512769   6.499   4.630   6.854 -0.1518  0.2137 -0.2876
   58MOL   C11612770   6.542   4.700   6.973 -0.0593  0.0221  0.3001
   58MOL   C11712771   6.464   4.811   7.011 -0.1877  1.1128  0.1699
   58MOL   O11812772   6.510   4.882   7.120 -0.8047  0.5542 -0.6443
   58MOL   H11912773   6.276   4.919   6.985 -0.7730 -0.5412  1.9630
   58MOL   H12012774   6.202   4.782   6.791 -0.9170 -0.6957  1.0799
   58MOL   H12112775   6.563   4.548   6.826 -0.1714 -0.1071  0.5861
   58MOL   H12212776   6.627   4.668   7.031  1.3873 -1.0663 -2.3395
   58MOL   C12312777   6.443   5.243   7.074  0.0555  0.3097 -0.0436
   58MOL   C12412778   6.486   5.112   7.052 -0.2833 -0.0148 -0.6028
   58MOL   C12512779   6.460   5.008   7.147 -0.9240  0.0907 -0.0375
   58MOL   C12612780   6.382   5.040   7.264 -0.5642 -0.1851  0.7221
   58MOL   C12712781   6.345   5.171   7.288  0.0498  0.6114 -0.3393
   58MOL   C12812782   6.378   5.274   7.193  0.4000 -0.3323 -0.8573
   58MOL   O12912783   6.358   5.408   7.210 -0.4091  0.0658  0.3578
   58MOL   H13012784   6.452   5.322   7.000  0.2735 -0.3280 -0.7087
   58MOL   H13112785   6.540   5.097   6.960  0.5315  0.5105 -0.2147
   58MOL   H13212786   6.363   4.970   7.345 -0.6137 -2.6716 -1.3720
   58MOL   H13312787   6.303   5.201   7.383  0.0578 -0.8902  0.1494
   58MOL   C13412788   6.332   5.592   7.532  0.8559  0.0882 -0.3064
   58MOL   C13512789   6.296   5.521   7.418 -0.4990  0.5168 -0.6168
   58MOL   C13612790   6.396   5.477   7.327 -0.8239  0.1788  0.2279
   58MOL   C13712791   6.531   5.479   7.371 -0.0238  0.5075 -0.0269
   58MOL   C13812792   6.567   5.560   7.478  0.0647 -0.5123  0.1268
   58MOL   C13912793   6.466   5.621   7.559  0.2703  0.3926 -0.8961
   58MOL   O14012794   6.492   5.698   7.666  0.0077 -0.2824  0.4879
   58MOL   H14112795   6.257   5.624   7.603 -0.0443  1.8228 -1.9815
   58MOL   H14212796   6.193   5.502   7.392  0.7229 -1.3769 -4.5062
   58MOL   H14312797   6.609   5.440   7.307  0.7172  0.8879  0.6382
   58MOL   H14412798   6.672   5.574   7.501 -0.3876 -0.8200  2.5280
   58MOL   C14512799   6.835   5.739   7.791 -0.2038  0.0646  0.2285
   58MOL   C14612800   6.710   5.680   7.762  0.2646  0.0008  0.5381
   58MOL   C14712801   6.621   5.747   7.679  0.7557  0.2745 -0.1747
   58MOL   C14812802   6.653   5.876   7.629  0.6171  0.3587  0.0533
   58MOL   C14912803   6.775   5.934   7.662 -0.8383 -0.3155 -0.4324
   58MOL   C15012804   6.869   5.865   7.734  0.2136 -0.6151 -0.2874
   58MOL   O15112805   6.984   5.927   7.768  0.1074  0.4165 -0.1418
   58MOL   H15212806   6.906   5.680   7.847  0.1073  0.6983  0.5132
   58MOL   H15312807   6.684   5.588   7.812 -1.1449 -0.7927 -1.6044
   58MOL   H15412808   6.584   5.932   7.568 -0.7772 -1.0650  0.2727
   58MOL   H15512809   6.800   6.034   7.630  0.5911 -0.6667 -0.4221
   58MOL   C15612810   6.905   6.081   8.088 -0.2249  0.5164 -0.1766
   58MOL   C15712811   6.887   6.008   7.974  0.0217  0.4145 -0.4753
   58MOL   C15812812   6.997   5.994   7.887 -0.0290  0.0492 -0.4695
   58MOL   C15912813   7.128   6.032   7.930  0.1007 -0.3133  0.1409
   58MOL   C16012814   7.140   6.095   8.057 -0.2478  0.5928  0.8587
   58MOL   C16112815   7.026   6.123   8.137 -0.3212 -0.1921 -0.5625
   58MOL   O16212816   7.039   6.181   0.004  0.1624  0.1740 -0.2867
   58MOL   H16312817   6.816   6.096   8.148 -0.1819  1.5189 -0.3401
   58MOL   H16412818   6.793   5.967   7.941  1.3176 -1.1481 -2.3281
   58MOL   H16512819   7.211   6.008   7.865 -0.5079 -2.8369  0.2444
   58MOL   H16612820   7.240   6.121   8.087 -0.0715  1.1906 -0.2338
   58MOL   C16712821   7.104   6.546   8.195  0.3279 -0.0671 -0.1623
   58MOL   C16812822   7.111   6.407   8.184 -0.2074  0.3453 -0.2795
   58MOL   C16912823   7.032   6.322   0.009  0.1542 -0.1973  0.4822
   58MOL   C17012824   6.962   6.382   0.117 -0.0394 -0.2575 -0.3377
   58MOL   C17112825   6.955   6.519   0.135 -0.1257 -0.2289  0.3348
   58MOL   C17212826   7.025   6.607   0.046 -0.1136 -0.1077 -0.2109
   58MOL   O17312827   7.021   6.741   0.065  0.2888  0.5779  0.2083
   58MOL   H17412828   7.167   6.606   8.131  0.3331 -0.0589 -0.1497
   58MOL   H17512829   7.179   6.364   8.112 -0.3087 -1.0143  0.4289
   58MOL   H17612830   6.921   6.314   0.191  1.3955 -0.8735 -0.0886
   58MOL   H17712831   6.900   6.567   0.215 -0.1250 -0.4730  0.4793
   58MOL   C17812832   7.289   6.986   0.082 -0.3766 -0.1766 -0.0007
   58MOL   C17912833   7.172   6.917   0.038  0.3863 -0.1035  0.4723
   58MOL   C18012834   7.134   6.805   0.110  0.5285 -0.2462  0.3481
   58MOL   C18112835   7.208   6.759   0.225  0.1804  0.5618  0.7287
   58MOL   C18212836   7.320   6.831   0.266 -0.1839 -0.3161  0.0261
   58MOL   C18312837   7.364   6.944   0.197  0.0769 -0.0751 -0.3018
   58MOL   O18412838   7.474   7.014   0.243 -0.2838  0.1368  0.4283
   58MOL   H18512839   7.327   7.070   0.025  0.5895 -0.4494  0.2349
   58MOL   H18612840   7.109   6.939   8.207  1.1298  0.4588  0.0653
   58MOL   H18712841   7.171   6.678   0.287 -1.7828  1.1478  0.3491
   58MOL   H18812842   7.375   6.800   0.353 -0.4107  2.0475  1.0384
   58MOL   C18912843   7.337   7.363   0.323 -0.3656 -0.6219 -0.3326
   58MOL   C19012844   7.343   7.218   0.306  0.2497 -0.2157  0.3800
   58MOL   C19112845   7.465   7.148   0.279  0.6077 -0.3099 -0.2493
   58MOL   C19212846   7.583   7.226   0.285 -0.5547  0.1529 -0.9888
   58MOL   C19312847   7.582   7.364   0.315  0.2498  0.2777  0.6743
   58MOL   C19412848   7.461   7.437   0.330 -0.2709  0.8492 -0.3594
   58MOL   O19512849   7.461   7.572   0.349 -0.1696  0.0359 -0.1772
   58MOL   H19612850   7.243   7.415   0.334 -0.1346 -0.2683  0.0086
   58MOL   H19712851   7.253   7.158   0.313 -0.3380  0.5835 -0.2459
   58MOL   H19812852   7.669   7.164   0.264 -1.3920 -1.0553 -0.9349
   58MOL   H19912853   7.677   7.415   0.318  0.2381  0.5469 -2.1555
   58MOL   C20012854   7.328   7.673   0.671 -0.2410 -0.7680  0.0307
   58MOL   C20112855   7.323   7.629   0.533 -0.1369 -0.2888 -0.7271
   58MOL   C20212856   7.447   7.614   0.476 -0.0637  0.6272 -0.0584
   58MOL   C20312857   7.568   7.643   0.546 -0.2156 -0.2420 -0.2854
   58MOL   C20412858   7.568   7.670   0.680 -0.1140 -1.1640  0.0028
   58MOL   C20512859   7.442   7.689   0.745 -0.0725  0.0876  0.1341
   58MOL   O20612860   7.429   7.731   0.878  0.2814 -0.1086 -0.3403
   58MOL   H20712861   7.234   7.684   0.723  0.0979  1.2335  0.2842
   58MOL   H20812862   7.233   7.620   0.474 -0.3626  2.9804 -0.9688
   58MOL   H20912863   7.662   7.621   0.498 -0.8791  2.5512 -3.0645
   58MOL   H21012864   7.659   7.678   0.738 -1.0930  1.8642  1.1814
   58MOL   C21112865   7.603   8.049   0.943 -0.3004  0.5596 -0.9129
   58MOL   C21212866   7.508   7.957   0.897  0.0108 -0.5918  0.4784
   58MOL   C21312867   7.521   7.820   0.934 -0.1025 -1.0303  0.1370
   58MOL   C21412868   7.630   7.787   1.018 -0.2634 -0.2832  0.3841
   58MOL   C21512869   7.721   7.879   1.064 -1.0682  0.7446  0.2473
   58MOL   C21612870   7.710   8.010   1.021  0.3290  0.1817  0.6225
   58MOL   O21712871   7.803   8.103   1.058  0.3283 -0.0679 -0.5259
   58MOL   H21812872   7.589   8.152   0.917 -0.8137  0.2992 -1.6881
   58MOL   H21912873   7.439   7.992   0.822  0.2718  1.3593  1.0987
   58MOL   H22012874   7.635   7.684   1.051  2.0736  0.2516  1.8472
   58MOL   H22112875   7.805   7.857   1.129 -0.5294 -0.5325 -0.8533
   58MOL   H22212876   7.811   8.103   1.152  2.2701  1.0947 -0.6766
   59MOL     C112877   4.337   0.810   6.165 -0.6231  0.4274 -0.2937
   59MOL     C212878   4.336   0.939   6.104 -0.3990  0.6842  0.9933
   59MOL     C312879   4.237   0.960   6.004 -0.1860  0.4621 -0.7482
   59MOL     C412880   4.134   0.868   5.982 -0.1881 -0.5919  0.6832
   59MOL     C512881   4.139   0.743   6.039 -0.1217  0.2451  0.5744
   59MOL     C612882   4.240   0.714   6.132  0.3114 -0.6323  0.5580
   59MOL     O712883   4.246   0.604   6.210 -0.2968 -0.0410 -0.9561
   59MOL     H812884   4.404   0.779   6.244 -0.4694 -0.3157 -0.7090
   59MOL     H912885   4.399   1.025   6.123 -0.1912  1.3629 -2.5364
   59MOL    H1012886   4.063   0.891   5.904 -0.5332 -1.8749  0.6116
   59MOL    H1112887   4.066   0.670   6.005  0.2587  0.2340 -0.2334
   59MOL    H1212888   4.228   1.060   5.967  0.7343  1.9133  2.7218
   59MOL    C1312889   3.982   0.344   6.237  0.6452 -0.1531  0.1180
   59MOL    C1412890   4.064   0.457   6.267  0.3190 -0.2482 -0.0299
   59MOL    C1512891   4.170   0.494   6.180 -0.4422 -1.0225  0.5069
   59MOL    C1612892   4.187   0.417   6.064 -0.9920 -0.4486 -0.4259
   59MOL    C1712893   4.097   0.315   6.027 -0.4830 -0.8738 -0.4050
   59MOL    C1812894   3.998   0.274   6.119  0.3885 -0.3272 -0.0127
   59MOL    O1912895   3.926   0.155   6.091 -0.8823 -0.4715  0.1233
   59MOL    H2012896   3.911   0.315   6.313  0.0845  0.4675 -0.1557
   59MOL    H2112897   4.051   0.515   6.357  2.3321  0.2070 -0.0160
   59MOL    H2212898   4.267   0.437   5.994 -0.3217  0.4573  0.5782
   59MOL    H2312899   4.108   0.272   5.929  2.2044 -1.3757  0.0556
   59MOL    C2412900   3.575   0.091   6.014  0.6341  0.3878  0.5719
   59MOL    C2512901   3.699   0.083   6.070 -0.1748 -0.0716 -0.1264
   59MOL    C2612902   3.803   0.164   6.028 -0.7212 -0.4052  0.2129
   59MOL    C2712903   3.781   0.250   5.922  0.4642 -0.0465 -0.3491
   59MOL    C2812904   3.654   0.262   5.860 -0.9890  0.1355  0.8140
   59MOL    C2912905   3.557   0.172   5.901 -0.7935  0.3573 -0.1842
   59MOL    O3012906   3.436   0.158   5.832  0.7106 -0.0158 -0.1665
   59MOL    H3112907   3.496   0.022   6.041  1.4935 -0.1153  1.8517
   59MOL    H3212908   3.721   0.022   6.157  3.4977  0.0003 -0.9082
   59MOL    H3312909   3.856   0.317   5.883 -0.6597 -0.6510 -3.7055
   59MOL    H3412910   3.628   0.348   5.799  1.8100 -0.6504 -1.6084
   59MOL    C3512911   3.214   0.402   5.663  0.8625  0.0876  0.7535
   59MOL    C3612912   3.300   0.294   5.683  0.6084 -0.0992 -0.1776
   59MOL    C3712913   3.346   0.261   5.810 -0.8732  0.0789 -0.2062
   59MOL    C3812914   3.291   0.326   5.923 -0.0849  0.4699  0.4640
   59MOL    C3912915   3.214   0.438   5.900 -0.1792  0.3577 -0.9000
   59MOL    C4012916   3.173   0.474   5.777 -0.4877  0.7024  0.6202
   59MOL    O4112917   3.080   0.582   5.777  0.0997  0.2936  0.2289
   59MOL    H4212918   3.177   0.420   5.563 -1.7746 -2.2957  1.2076
   59MOL    H4312919   3.335   0.233   5.601 -0.9444 -0.1113 -0.8554
   59MOL    H4412920   3.319   0.287   6.020  1.2949 -0.4315 -0.2828
   59MOL    H4512921   3.183   0.488   5.990  1.2063  0.2437 -0.3479
   59MOL    C4612922   3.205   0.842   5.547  0.0214 -0.2067 -0.4259
   59MOL    C4712923   3.201   0.744   5.649 -0.1045 -0.9299 -0.0455
   59MOL    C4812924   3.081   0.671   5.673  0.2415  0.1067 -0.4455
   59MOL    C4912925   2.966   0.701   5.598 -0.4240  0.1997 -0.5505
   59MOL    C5012926   2.972   0.797   5.494 -0.4062  0.5878  0.0576
   59MOL    C5112927   3.091   0.874   5.470 -0.2406  0.1407 -0.2510
   59MOL    O5212928   3.093   0.972   5.373 -0.4085 -0.1109 -0.1270
   59MOL    H5312929   3.291   0.906   5.536 -1.4786  2.3759  2.2017
   59MOL    H5412930   3.291   0.727   5.707  0.2415 -0.5146 -0.4559
   59MOL    H5512931   2.875   0.643   5.606  0.1004 -0.5881 -0.2207
   59MOL    H5612932   2.885   0.808   5.432 -0.5493  0.5747  0.2556
   59MOL    C5712933   2.835   1.192   5.237 -0.6524 -0.4054 -0.1911
   59MOL    C5812934   2.948   1.110   5.248  0.1532 -0.5552 -0.5221
   59MOL    C5912935   2.994   1.066   5.371 -0.1739  0.3694 -0.4335
   59MOL    C6012936   2.928   1.115   5.488 -0.3626  0.9231  0.4665
   59MOL    C6112937   2.825   1.213   5.480  0.0789 -0.7125  0.2233
   59MOL    C6212938   2.772   1.240   5.352  0.9641 -0.4876 -0.4895
   59MOL    O6312939   2.663   1.327   5.346 -0.8681  0.1516  0.0625
   59MOL    H6412940   2.812   1.243   5.145  0.6733  2.0694  0.7846
   59MOL    H6512941   2.995   1.066   5.161  0.7277 -2.7166  0.8466
   59MOL    H6612942   2.958   1.084   5.587 -2.2490  0.2511  0.8507
   59MOL    H6712943   2.780   1.267   5.561  3.6743  2.8120  0.0290
   59MOL    C6812944   2.339   1.187   5.440 -0.4403 -0.2808 -0.7033
   59MOL    C6912945   2.466   1.239   5.453  0.0565 -0.7688  0.6820
   59MOL    C7012946   2.541   1.270   5.339  0.1437 -0.1528 -0.6357
   59MOL    C7112947   2.483   1.259   5.212  0.8643  1.3909  0.0308
   59MOL    C7212948   2.354   1.208   5.199 -0.1164  0.6865 -0.0029
   59MOL    C7312949   2.283   1.178   5.312  0.2079  0.2827  1.3127
   59MOL    O7412950   2.152   1.131   5.309 -0.3753 -0.0472 -0.0890
   59MOL    H7512951   2.275   1.164   5.524 -0.4835  1.7605 -0.1497
   59MOL    H7612952   2.517   1.240   5.549 -0.2956 -0.4791  0.8705
   59MOL    H7712953   2.542   1.285   5.125 -1.4911  0.5078 -1.8814
   59MOL    H7812954   2.315   1.175   5.104 -2.3981 -1.1930  1.5357
   59MOL    C7912955   2.195   0.762   5.281 -0.0950  0.2137  1.1146
   59MOL    C8012956   2.209   0.893   5.327  0.2772  1.4178 -0.9027
   59MOL    C8112957   2.133   1.000   5.273 -0.3931  0.5049 -0.1556
   59MOL    C8212958   2.033   0.966   5.177 -1.5168 -0.7109 -0.2237
   59MOL    C8312959   2.013   0.835   5.139 -0.0947 -0.2090 -0.0479
   59MOL    C8412960   2.093   0.733   5.193 -0.0071 -0.0242 -0.4137
   59MOL    O8512961   2.078   0.602   5.145  0.7120  0.3490 -0.3583
   59MOL    H8612962   2.246   0.677   5.322  0.9408 -0.4733 -1.4998
   59MOL    H8712963   2.285   0.913   5.402 -0.3998  0.7471 -0.0400
   59MOL    H8812964   1.978   1.045   5.128  1.6252  1.6579 -0.1416
   59MOL    H8912965   1.950   0.818   5.053  1.5515 -2.5351 -0.8442
   59MOL    C9012966   2.276   0.539   4.842  0.3705  0.6972 -0.1125
   59MOL    C9112967   2.185   0.606   4.926 -0.0179 -0.3893 -0.8957
   59MOL    C9212968   2.167   0.553   5.060 -0.5489 -0.0873  0.8081
   59MOL    C9312969   2.239   0.447   5.105  0.1658  0.9918 -0.7086
   59MOL    C9412970   2.322   0.371   5.017  1.0011 -0.0636 -0.2987
   59MOL    C9512971   2.351   0.428   4.886 -0.4483  0.6964  0.7290
   59MOL    O9612972   2.436   0.359   4.804 -0.6727 -0.4163 -0.7442
   59MOL    H9712973   2.296   0.573   4.741 -1.3714  2.8096  0.2181
   59MOL    H9812974   2.130   0.691   4.890  1.0321  0.1390 -1.2901
   59MOL    H9912975   2.230   0.420   5.209 -0.7499 -0.0816 -1.0532
   59MOL   H10012976   2.374   0.282   5.049 -0.5440 -0.6207  0.7444
   59MOL   C10112977   2.724   0.591   4.750  0.5256  0.1744  0.0177
   59MOL   C10212978   2.605   0.535   4.808 -0.4416 -0.9552 -0.4966
   59MOL   C10312979   2.544   0.423   4.749 -0.2833  0.5939  0.4662
   59MOL   C10412980   2.593   0.371   4.629  0.0617 -0.1204 -0.0620
   59MOL   C10512981   2.699   0.438   4.563 -0.2204 -0.3665  0.1237
   59MOL   C10612982   2.773   0.543   4.630  0.1207  0.5788  0.1274
   59MOL   O10712983   2.890   0.595   4.575  0.1419  0.0501  0.4065
   59MOL   H10812984   2.762   0.677   4.803  1.0877  1.2495 -2.0814
   59MOL   H10912985   2.562   0.566   4.902  2.6845 -0.4940  0.8388
   59MOL   H11012986   2.554   0.281   4.583  2.3842 -0.6406 -1.0882
   59MOL   H11112987   2.733   0.407   4.465  0.6321 -0.2572  0.3860
   59MOL   C11212988   3.232   0.632   4.724  0.1309 -0.0881 -0.2941
   59MOL   C11312989   3.111   0.659   4.651  0.1559  0.6223  0.1533
   59MOL   C11412990   3.007   0.560   4.640 -0.5376 -0.3921 -0.0985
   59MOL   C11512991   3.035   0.433   4.700 -0.4694  0.1602 -0.2264
   59MOL   C11612992   3.149   0.414   4.776  0.5744 -0.3505  0.1990
   59MOL   C11712993   3.244   0.516   4.799 -0.0462 -0.2015 -0.3003
   59MOL   O11812994   3.360   0.484   4.856  0.1657 -0.1570  0.2721
   59MOL   H11912995   3.314   0.702   4.732 -1.0169  1.0252  1.9770
   59MOL   H12012996   3.085   0.749   4.598 -0.1188  0.2812 -0.3025
   59MOL   H12112997   2.962   0.353   4.693 -0.1982 -0.0307 -0.8665
   59MOL   H12212998   3.172   0.319   4.823  1.1740 -0.3655 -0.1238
   59MOL   C12312999   3.391   0.379   5.208  0.1977  1.1896  1.1493
   59MOL   C12413000   3.389   0.374   5.062 -0.1940 -0.3955  0.3642
   59MOL   C12513001   3.376   0.495   4.990 -0.2700 -1.1129 -0.0557
   59MOL   C12613002   3.372   0.612   5.058 -0.2613 -0.2953  0.1612
   59MOL   C12713003   3.383   0.620   5.192 -0.2658 -0.4612 -0.3806
   59MOL   C12813004   3.391   0.503   5.268  0.5875 -0.3250 -0.5112
   59MOL   O12913005   3.392   0.521   5.405  0.5615  0.3743 -0.0147
   59MOL   H13013006   3.393   0.290   5.269 -1.3772  0.0688 -0.3761
   59MOL   H13113007   3.391   0.278   5.014  1.0690 -1.0352  1.6476
   59MOL   H13213008   3.351   0.704   5.005 -0.4562  0.4009  1.4266
   59MOL   H13313009   3.388   0.707   5.256 -2.7044 -0.9224  0.4773
   59MOL   C13413010   3.641   0.613   5.669  0.5506 -0.4416  0.3131
   59MOL   C13513011   3.521   0.577   5.597  0.0902 -0.3746  0.3992
   59MOL   C13613012   3.510   0.568   5.460  0.5771  0.5252 -0.1003
   59MOL   C13713013   3.630   0.601   5.394  0.2136  0.7768 -0.0282
   59MOL   C13813014   3.741   0.661   5.465 -0.2984  0.0645  0.1568
   59MOL   C13913015   3.753   0.667   5.604  0.0537 -0.5404  0.7766
   59MOL   O14013016   3.866   0.716   5.666 -0.4246  0.2937  0.4609
   59MOL   H14113017   3.647   0.605   5.777  1.2173 -1.1821  0.2245
   59MOL   H14213018   3.435   0.541   5.652  0.0193  0.6901  0.9947
   59MOL   H14313019   3.636   0.594   5.286 -1.1715  0.6856 -0.1080
   59MOL   H14413020   3.826   0.693   5.407  0.4491  0.8463  1.6638
   59MOL   C14513021   3.866   1.085   5.712 -0.0466 -0.3158 -0.4514
   59MOL   C14613022   3.829   0.951   5.724  0.1769  0.0498 -0.3240
   59MOL   C14713023   3.897   0.849   5.661 -0.1375  0.2457  0.3703
   59MOL   C14813024   4.011   0.886   5.590 -0.3587 -0.0755 -0.0525
   59MOL   C14913025   4.057   1.017   5.580 -0.9517 -0.7648  0.1666
   59MOL   C15013026   3.985   1.120   5.645 -0.2039  0.5597  0.1867
   59MOL   O15113027   4.029   1.250   5.643 -0.0883  0.0972  0.1845
   59MOL   H15213028   3.812   1.164   5.763  2.3988  0.7780  0.5078
   59MOL   H15313029   3.748   0.927   5.792  0.4461 -1.2461 -0.4544
   59MOL   H15413030   4.080   0.816   5.545 -0.3015  0.1440 -0.3042
   59MOL   H15513031   4.154   1.033   5.534 -2.3670  2.4708 -1.8572
   59MOL   C15613032   4.366   1.285   5.781  0.4349 -0.1519 -0.4534
   59MOL   C15713033   4.262   1.271   5.684  0.3198 -0.1366  0.4125
   59MOL   C15813034   4.130   1.266   5.731 -0.2053  0.4551  0.3643
   59MOL   C15913035   4.105   1.291   5.871  0.3706 -0.7521 -0.1794
   59MOL   C16013036   4.208   1.304   5.961 -0.2369 -0.4541 -1.1070
   59MOL   C16113037   4.345   1.295   5.921  0.4112 -1.0747  0.6914
   59MOL   O16213038   4.447   1.295   6.011  0.0262 -0.5392 -0.3532
   59MOL   H16313039   4.465   1.284   5.739  1.4968 -0.7521  1.9365
   59MOL   H16413040   4.283   1.266   5.578 -1.2912 -0.9255  0.1073
   59MOL   H16513041   4.005   1.280   5.910  0.2588  1.4847  0.1878
   59MOL   H16613042   4.184   1.314   6.066 -0.7108  0.2186 -1.2796
   59MOL   C16713043   4.740   1.527   6.018  0.1867  0.4172 -0.2752
   59MOL   C16813044   4.658   1.411   5.991  0.3962 -0.1133  0.2835
   59MOL   C16913045   4.521   1.415   6.011  0.3356  0.3092  0.1807
   59MOL   C17013046   4.457   1.542   6.031 -0.1430  0.4422 -0.0174
   59MOL   C17113047   4.532   1.656   6.057  0.5469  0.0318  0.2518
   59MOL   C17213048   4.673   1.645   6.061 -0.4920 -0.0441  0.1317
   59MOL   O17313049   4.742   1.757   6.098 -0.5646  0.1387 -0.3627
   59MOL   H17413050   4.848   1.528   6.012  0.1018 -1.3031 -3.4406
   59MOL   H17513051   4.703   1.313   5.979 -1.7149 -0.7977 -2.3061
   59MOL   H17613052   4.350   1.557   6.040 -0.0196  1.3004  0.0141
   59MOL   H17713053   4.483   1.751   6.074 -0.5830 -0.0553 -2.3078
   59MOL   C17813054   4.994   1.680   6.357  0.0836 -0.1517  1.3034
   59MOL   C17913055   4.927   1.683   6.238  0.3797  0.4354 -0.3512
   59MOL   C18013056   4.805   1.755   6.221  0.4685  0.3053 -0.3387
   59MOL   C18113057   4.763   1.839   6.325  0.4459 -0.4267  0.0463
   59MOL   C18213058   4.842   1.839   6.443  0.0655 -0.1629 -0.2047
   59MOL   C18313059   4.951   1.753   6.464  0.4365 -0.4961 -0.4101
   59MOL   O18413060   5.011   1.750   6.590 -0.3629  0.7376  0.2596
   59MOL   H18513061   5.078   1.613   6.353 -0.6627 -1.0404  0.4416
   59MOL   H18613062   4.972   1.617   6.166 -0.3296 -0.6610  0.1894
   59MOL   H18713063   4.672   1.897   6.331  0.6451 -0.1819  0.8148
   59MOL   H18813064   4.821   1.913   6.519 -0.6752  0.3190 -0.8770
   59MOL   C18913065   5.327   1.644   6.734 -0.1391 -0.5231  0.1323
   59MOL   C19013066   5.186   1.657   6.717 -0.5462  0.0289  0.4468
   59MOL   C19113067   5.145   1.732   6.603  0.1577 -0.0042  0.3578
   59MOL   C19213068   5.236   1.795   6.519  0.1076  0.0859 -0.0164
   59MOL   C19313069   5.373   1.769   6.538 -0.1854  0.1714 -0.4037
   59MOL   C19413070   5.424   1.692   6.641 -0.1713 -0.1263  0.1573
   59MOL   O19513071   5.556   1.664   6.654  0.0174 -0.1897 -0.3765
   59MOL   H19613072   5.358   1.589   6.821 -1.1134  3.0240  2.8600
   59MOL   H19713073   5.122   1.612   6.792  0.8657 -0.1187  1.5724
   59MOL   H19813074   5.203   1.866   6.444  1.4722  1.3953  0.5740
   59MOL   H19913075   5.455   1.810   6.480  0.8365  0.1961  1.0078
   59MOL   C20013076   5.766   1.720   6.938  0.2581 -0.1626 -0.1986
   59MOL   C20113077   5.674   1.661   6.854 -0.3260 -0.2587 -0.1254
   59MOL   C20213078   5.627   1.731   6.744  0.6012 -0.7171 -0.1692
   59MOL   C20313079   5.673   1.861   6.715  0.4234  0.9362 -0.2484
   59MOL   C20413080   5.752   1.928   6.808 -0.8326  0.1826 -0.3069
   59MOL   C20513081   5.812   1.855   6.916  0.7009  0.1078 -0.2359
   59MOL   O20613082   5.889   1.925   7.006  0.3624 -0.0083 -0.0182
   59MOL   H20713083   5.797   1.660   7.022 -0.6085  0.0584  0.2845
   59MOL   H20813084   5.630   1.565   6.876  0.5719 -1.1219 -1.9593
   59MOL   H20913085   5.633   1.913   6.629 -2.1568  0.5307  0.6762
   59MOL   H21013086   5.773   2.033   6.793  0.7507 -0.0247  0.3146
   59MOL   C21113087   5.949   1.796   7.346  0.2465  0.0134  0.0003
   59MOL   C21213088   5.968   1.840   7.216 -0.0270 -0.1903 -0.4486
   59MOL   C21313089   5.870   1.903   7.141  0.7693  0.9054 -0.1092
   59MOL   C21413090   5.744   1.940   7.204  0.0736  0.2380 -0.0749
   59MOL   C21513091   5.730   1.903   7.341  0.4300 -0.7222 -0.1923
   59MOL   C21613092   5.829   1.827   7.409 -0.1470 -0.1251  0.2370
   59MOL   O21713093   5.809   1.795   7.540  0.1235 -0.2585  0.3248
   59MOL   H21813094   6.018   1.738   7.405 -0.8381  2.2791  3.6511
   59MOL   H21913095   6.061   1.810   7.171  0.5307 -0.8247  1.1193
   59MOL   H22013096   5.666   1.990   7.149 -3.9195 -3.8157  1.6319
   59MOL   H22113097   5.638   1.936   7.387  0.4030  0.0097 -0.7723
   59MOL   H22213098   5.892   1.779   7.581  1.2927  1.1138 -1.4689
   60MOL     C113099   7.395   3.078   7.315  0.1493  0.1158 -0.3181
   60MOL     C213100   7.434   3.140   7.436 -0.5807 -0.4714  0.2318
   60MOL     C313101   7.565   3.179   7.452  0.3872 -0.0721  1.0538
   60MOL     C413102   7.669   3.149   7.356 -0.7276  0.0494 -0.2184
   60MOL     C513103   7.636   3.082   7.236  0.4108 -0.0570 -0.2922
   60MOL     C613104   7.498   3.046   7.220 -0.5940  0.2822  0.3100
   60MOL     O713105   7.465   2.983   7.101 -0.4464 -0.2645  0.1114
   60MOL     H813106   7.290   3.056   7.303 -0.2903  3.5727 -3.4602
   60MOL     H913107   7.364   3.151   7.517 -0.7766 -0.7376  0.0994
   60MOL    H1013108   7.770   3.176   7.383 -1.1834 -0.2147  1.9159
   60MOL    H1113109   7.719   3.060   7.170  0.6572  1.3204 -0.4540
   60MOL    H1213110   7.583   3.242   7.538  1.2918  0.5854  0.4006
   60MOL    C1313111   7.437   2.614   7.167  0.1321  0.4945  0.0060
   60MOL    C1413112   7.491   2.746   7.166  0.0648  0.3481  0.1169
   60MOL    C1513113   7.415   2.856   7.118 -0.9936  0.3603 -0.7668
   60MOL    C1613114   7.281   2.837   7.077 -0.4473 -0.4599 -0.2255
   60MOL    C1713115   7.226   2.707   7.089 -0.5083  0.2658 -0.0411
   60MOL    C1813116   7.303   2.596   7.137  0.5535 -0.1212 -0.3050
   60MOL    O1913117   7.250   2.469   7.147 -0.0537  0.5946 -0.2050
   60MOL    H2013118   7.494   2.530   7.205  0.5769  0.5224 -0.6023
   60MOL    H2113119   7.598   2.761   7.175  0.0687  0.2644  0.2083
   60MOL    H2213120   7.211   2.907   7.036 -0.6487  0.3573  1.4641
   60MOL    H2313121   7.123   2.681   7.070  0.4957 -2.9008 -1.4584
   60MOL    C2413122   7.191   2.416   7.512  0.3901 -1.0270  0.0951
   60MOL    C2513123   7.207   2.485   7.387 -0.4751 -0.4409 -0.1482
   60MOL    C2613124   7.249   2.412   7.273 -0.4104  1.0795 -0.0223
   60MOL    C2713125   7.292   2.276   7.288  0.7443  0.4847 -0.3911
   60MOL    C2813126   7.290   2.218   7.417 -0.0812 -0.1781 -0.3251
   60MOL    C2913127   7.237   2.290   7.531  0.3462 -0.4456  0.2694
   60MOL    O3013128   7.211   2.223   7.646 -0.2837  0.6324  0.2569
   60MOL    H3113129   7.154   2.467   7.600  0.4422 -3.1572  1.3763
   60MOL    H3213130   7.170   2.585   7.371  1.1455 -0.0836 -1.8506
   60MOL    H3313131   7.319   2.217   7.203 -2.2324 -1.2955 -0.1889
   60MOL    H3413132   7.327   2.118   7.428 -1.3065 -0.5929  0.1760
   60MOL    C3513133   6.861   2.105   7.647  0.0243  0.6940  0.1142
   60MOL    C3613134   6.969   2.189   7.663  0.4640  0.2696 -0.6947
   60MOL    C3713135   7.102   2.142   7.625  0.1913 -0.1883  0.1814
   60MOL    C3813136   7.119   1.999   7.598  0.1032 -0.0914 -0.0971
   60MOL    C3913137   7.006   1.925   7.566  0.0482  0.4301 -0.3311
   60MOL    C4013138   6.876   1.976   7.588  0.0730 -0.3293 -0.5143
   60MOL    O4113139   6.770   1.900   7.563  0.4625  0.3555  0.1138
   60MOL    H4213140   6.761   2.138   7.667 -0.4540 -1.5153  1.5467
   60MOL    H4313141   6.967   2.293   7.691  0.5861  0.1951 -0.4017
   60MOL    H4413142   7.217   1.956   7.584 -0.1605 -0.9714  0.7183
   60MOL    H4513143   7.023   1.822   7.538  0.7025  1.0169 -2.1395
   60MOL    C4613144   6.536   1.704   7.771 -0.2846 -0.1951  0.7855
   60MOL    C4713145   6.582   1.803   7.671  0.3180  0.3860 -0.6044
   60MOL    C4813146   6.717   1.817   7.656 -0.4465  0.7348 -1.1687
   60MOL    C4913147   6.800   1.751   7.749  0.1498  0.1114  0.1961
   60MOL    C5013148   6.761   1.665   7.847  0.6269  0.2910 -0.0799
   60MOL    C5113149   6.625   1.632   7.855 -0.1695  0.1433  0.4069
   60MOL    O5213150   6.580   1.536   7.940 -0.7442  0.1057 -0.5645
   60MOL    H5313151   6.431   1.682   7.784 -0.6363  0.3206 -1.1506
   60MOL    H5413152   6.514   1.852   7.603  0.6985  0.2342 -1.0985
   60MOL    H5513153   6.906   1.768   7.737 -0.4242  1.3707 -3.6232
   60MOL    H5613154   6.830   1.624   7.920  0.5010  0.0379 -0.1027
   60MOL    C5713155   6.466   1.211   7.803 -0.8820  1.0301 -0.2267
   60MOL    C5813156   6.466   1.351   7.828  1.0701 -0.0484  0.0217
   60MOL    C5913157   6.581   1.408   7.894  0.0609 -0.0628 -0.8267
   60MOL    C6013158   6.693   1.332   7.920  0.6006  0.6695 -0.4337
   60MOL    C6113159   6.694   1.191   7.895 -0.2746 -0.8949 -0.3678
   60MOL    C6213160   6.583   1.134   7.837  0.1356  0.3445  0.7807
   60MOL    O6313161   6.579   0.997   7.812 -0.7004  0.3456 -0.3061
   60MOL    H6413162   6.381   1.170   7.750  1.4373 -1.4314 -2.1774
   60MOL    H6513163   6.378   1.414   7.828  0.5852 -0.7244  0.6215
   60MOL    H6613164   6.775   1.377   7.974  0.7428 -0.0880 -0.0163
   60MOL    H6713165   6.785   1.140   7.923 -0.1622  0.1908  1.3296
   60MOL    C6813166   6.225   0.877   7.884 -0.1531 -0.9117  0.4838
   60MOL    C6913167   6.345   0.953   7.889 -0.5667 -0.3203 -0.4860
   60MOL    C7013168   6.458   0.927   7.805  0.0110 -0.3073 -0.5413
   60MOL    C7113169   6.442   0.820   7.716 -0.0972  0.2946 -0.6185
   60MOL    C7213170   6.329   0.741   7.714  0.1683 -0.4577  0.0788
   60MOL    C7313171   6.220   0.766   7.799  0.3294 -0.2864 -0.4170
   60MOL    O7413172   6.111   0.678   7.800 -0.0343  0.3777  0.0404
   60MOL    H7513173   6.145   0.899   7.953 -0.8724 -0.4291 -0.4867
   60MOL    H7613174   6.352   1.034   7.961  0.7069 -0.7483 -0.1264
   60MOL    H7713175   6.526   0.805   7.649  0.7005 -2.7336  0.9295
   60MOL    H7813176   6.311   0.654   7.653 -0.7294 -0.6285  0.5824
   60MOL    C7913177   5.990   0.498   8.097 -0.0568 -0.5116  0.3615
   60MOL    C8013178   5.987   0.568   7.969 -0.2531  0.1693 -0.3639
   60MOL    C8113179   6.110   0.588   7.899 -0.3115 -0.2566  0.5537
   60MOL    C8213180   6.223   0.513   7.937  0.1992  1.3000 -0.1386
   60MOL    C8313181   6.217   0.429   8.051 -0.0444 -0.0085 -0.8503
   60MOL    C8413182   6.105   0.434   8.139 -0.1557 -0.7566 -0.2831
   60MOL    O8513183   6.115   0.357   0.001  0.2840  0.2865  0.2521
   60MOL    H8613184   5.898   0.477   8.148  0.5355 -3.2621  0.3466
   60MOL    H8713185   5.899   0.622   7.938 -0.8390 -1.0592 -0.8660
   60MOL    H8813186   6.318   0.527   7.887 -0.9576  1.6089 -2.3054
   60MOL    H8913187   6.302   0.372   8.085 -0.8022 -0.2025  0.7706
   60MOL    C9013188   5.851   0.187   0.195  0.1695  0.9835 -0.6890
   60MOL    C9113189   5.936   0.292   0.152 -0.7369  0.3865  0.1521
   60MOL    C9213190   6.016   0.268   0.033  0.7064 -0.1759  0.2946
   60MOL    C9313191   5.996   0.156   8.204  0.7982  0.1928  0.5541
   60MOL    C9413192   5.897   0.062   8.244  0.3600 -0.4829 -0.2096
   60MOL    C9513193   5.832   0.071   0.114 -0.1622  0.1343 -1.0618
   60MOL    O9613194   5.752   8.225   0.165 -0.2999 -0.1823 -0.2850
   60MOL    H9713195   5.798   0.194   0.289  0.7702 -0.9424 -0.1777
   60MOL    H9813196   5.957   0.376   0.216 -1.0248  0.6682 -0.1256
   60MOL    H9913197   6.049   0.151   8.111  2.5956  0.9886  1.5160
   60MOL   H10013198   5.884   8.224   8.190 -0.1700  0.2227 -1.2850
   60MOL   C10113199   5.873   8.125   0.500  0.2663  0.5419 -0.2138
   60MOL   C10213200   5.870   8.177   0.369 -0.3768  0.1220  0.5165
   60MOL   C10313201   5.754   8.201   0.304  0.0156 -0.2988 -0.3403
   60MOL   C10413202   5.629   8.199   0.374  0.0506 -0.1890  0.1431
   60MOL   C10513203   5.631   8.161   0.506 -0.2494 -0.3723  0.1447
   60MOL   C10613204   5.753   8.119   0.567  0.6205  0.0244 -0.3419
   60MOL   O10713205   5.752   8.095   0.704  0.5164  0.1255 -0.0391
   60MOL   H10813206   5.966   8.101   0.550  1.1600 -0.7017 -2.3697
   60MOL   H10913207   5.964   8.188   0.316  1.5634 -0.8613  3.6035
   60MOL   H11013208   5.533   8.233   0.337  0.8330  0.9720 -0.8954
   60MOL   H11113209   5.537   8.149   0.558 -1.0252 -2.2134 -1.6027
   60MOL   C11213210   6.017   7.938   0.905 -0.2678 -0.0697  0.5228
   60MOL   C11313211   5.928   8.035   0.848 -0.1858  0.7557 -0.1467
   60MOL   C11413212   5.825   7.999   0.754 -0.0228  0.1784 -0.1731
   60MOL   C11513213   5.806   7.863   0.730  0.0244  0.2202 -1.1173
   60MOL   C11613214   5.886   7.764   0.793  0.3197 -0.0715 -0.0123
   60MOL   C11713215   5.995   7.804   0.878  0.6572  0.3383  0.3359
   60MOL   O11813216   6.072   7.706   0.937  0.5623  0.2385 -0.3152
   60MOL   H11913217   6.095   7.976   0.969  0.8294 -0.4609 -0.5717
   60MOL   H12013218   5.948   8.136   0.882  0.4059  0.1460  1.3587
   60MOL   H12113219   5.720   7.846   0.666 -0.9850 -0.3420  0.3495
   60MOL   H12213220   5.864   7.658   0.783 -1.6752  0.4163 -0.9383
   60MOL   C12313221   6.418   7.703   1.062  0.3960  0.3776 -0.2990
   60MOL   C12413222   6.277   7.703   1.058 -1.1297 -1.0150  0.0670
   60MOL   C12513223   6.208   7.720   0.938 -0.2347  0.1657 -0.0702
   60MOL   C12613224   6.281   7.730   0.822 -0.0016  0.1332  0.6211
   60MOL   C12713225   6.423   7.734   0.829 -0.0106  0.3061  0.0372
   60MOL   C12813226   6.493   7.730   0.948  0.9209  0.3045 -0.3193
   60MOL   O12913227   6.625   7.754   0.948 -0.3764  0.1372  0.3346
   60MOL   H13013228   6.457   7.691   1.162 -2.1117 -0.7565  0.6058
   60MOL   H13113229   6.223   7.698   1.152 -0.0713 -0.0433  0.7432
   60MOL   H13213230   6.226   7.744   0.730 -0.6339  0.6949  1.0754
   60MOL   H13313231   6.477   7.755   0.737  1.6920  0.1804  0.9823
   60MOL   C13413232   6.723   8.105   1.015 -0.5990  0.0461  0.2619
   60MOL   C13513233   6.684   7.997   0.942 -0.3714 -0.6593 -0.0640
   60MOL   C13613234   6.671   7.873   1.011  0.0978  0.0300 -0.4901
   60MOL   C13713235   6.709   7.862   1.146  0.1204  0.1686  0.1278
   60MOL   C13813236   6.742   7.977   1.216 -0.6321 -0.1912  0.2741
   60MOL   C13913237   6.749   8.102   1.154 -0.9362 -0.1219 -0.1076
   60MOL   O14013238   6.785   8.208   1.236  0.0782 -0.0728 -0.1587
   60MOL   H14113239   6.743   8.195   0.958  1.6868 -1.4634 -1.4507
   60MOL   H14213240   6.648   8.006   0.841  2.3632 -0.4015 -1.0498
   60MOL   H14313241   6.707   7.772   1.206  0.2027  1.1624  1.6533
   60MOL   H14413242   6.779   7.967   1.317 -0.5838 -1.6030  0.1262
   60MOL   C14513243   6.490   0.181   1.243 -0.5924  0.0869  0.1040
   60MOL   C14613244   6.566   0.066   1.269  0.0453  0.2777 -0.1345
   60MOL   C14713245   6.708   0.067   1.246 -0.2943  0.0016  0.0669
   60MOL   C14813246   6.773   0.193   1.223 -0.4993 -0.4039  0.1501
   60MOL   C14913247   6.698   0.310   1.217  1.0792 -0.1148  0.3029
   60MOL   C15013248   6.559   0.307   1.227 -0.5666  0.3924  0.0745
   60MOL   O15113249   6.489   0.421   1.218 -0.4712  0.7086  0.1198
   60MOL   H15213250   6.383   0.176   1.260 -0.6651 -0.3596 -0.4612
   60MOL   H15313251   6.512   8.229   1.287 -1.3597  0.7859 -1.6612
   60MOL   H15413252   6.878   0.190   1.200 -0.5135 -1.4533  0.1600
   60MOL   H15513253   6.744   0.406   1.201 -0.5645  0.8289  1.1598
   60MOL   C15613254   6.414   0.543   1.558 -0.4193 -0.7353  0.0886
   60MOL   C15713255   6.412   0.468   1.438  0.2966 -0.0618  0.6028
   60MOL   C15813256   6.501   0.495   1.333  0.0117 -0.0204 -0.9168
   60MOL   C15913257   6.595   0.603   1.340  0.1541  0.5963 -0.4594
   60MOL   C16013258   6.592   0.683   1.458 -0.1569 -0.1621 -0.0428
   60MOL   C16113259   6.508   0.649   1.564 -0.4140 -0.0066 -0.1561
   60MOL   O16213260   6.516   0.716   1.681 -0.5565  0.0860  0.0132
   60MOL   H16313261   6.344   0.530   1.639  0.5906 -0.0349  1.0831
   60MOL   H16413262   6.340   0.387   1.432  1.0831 -0.7945  0.9245
   60MOL   H16513263   6.664   0.628   1.261 -1.9127  2.7780 -1.6132
   60MOL   H16613264   6.667   0.760   1.467  1.1123 -1.1908 -1.5731
   60MOL   C16713265   6.721   0.514   1.915 -0.5061 -0.1429 -0.1352
   60MOL   C16813266   6.689   0.600   1.807  0.1128  0.0478 -0.0826
   60MOL   C16913267   6.556   0.646   1.791 -0.3457  0.1515  0.0002
   60MOL   C17013268   6.462   0.624   1.887  0.8803 -0.0990  0.0119
   60MOL   C17113269   6.491   0.548   1.996  0.5611 -0.8449  0.1012
   60MOL   C17213270   6.620   0.489   2.012  0.2201 -0.3026  0.4838
   60MOL   O17313271   6.637   0.402   2.113 -0.4532  0.3544 -0.4434
   60MOL   H17413272   6.818   0.467   1.914 -0.6435 -0.4513 -1.7780
   60MOL   H17513273   6.763   0.617   1.730 -1.4790 -1.3704 -1.9456
   60MOL   H17613274   6.357   0.649   1.876  0.8902  0.0532  0.2571
   60MOL   H17713275   6.419   0.532   2.075 -0.7633  0.4343 -0.8187
   60MOL   C17813276   6.913   0.149   2.116  0.4331 -0.2777 -0.4277
   60MOL   C17913277   6.844   0.268   2.139  0.8903 -0.8584  0.7606
   60MOL   C18013278   6.710   0.291   2.089 -0.4982 -0.0421 -0.0554
   60MOL   C18113279   6.644   0.185   2.013 -0.4668 -0.7226 -0.1277
   60MOL   C18213280   6.712   0.064   1.998 -0.7124  0.1715 -0.1760
   60MOL   C18313281   6.845   0.046   2.042 -0.8588  0.3396 -0.3541
   60MOL   O18413282   6.912   8.180   2.019 -0.0686  0.2057  0.0771
   60MOL   H18513283   7.013   0.132   2.151  0.0039  0.3775  1.1918
   60MOL   H18613284   6.885   0.350   2.196 -0.1201  0.5257 -0.4568
   60MOL   H18713285   6.542   0.190   1.978 -0.5262 -1.0546 -0.0043
   60MOL   H18813286   6.667   8.234   1.947 -3.3086  1.5422 -0.1843
   60MOL   C18913287   6.787   7.847   2.129 -0.3794  0.1121 -0.2801
   60MOL   C19013288   6.803   7.959   2.046  0.4705 -0.2312  0.3396
   60MOL   C19113289   6.888   8.068   2.096  0.8293  0.2619 -0.7289
   60MOL   C19213290   6.945   8.057   2.224  0.1669 -0.1715  0.6001
   60MOL   C19313291   6.934   7.943   2.303  0.1356  0.7724  0.5242
   60MOL   C19413292   6.855   7.840   2.256 -0.3210  0.2585  0.1331
   60MOL   O19513293   6.845   7.721   2.325 -0.3560  0.3101  0.3932
   60MOL   H19613294   6.730   7.759   2.104 -0.9887 -0.0712  1.6470
   60MOL   H19713295   6.751   7.968   1.952 -0.6449  0.7975  1.0419
   60MOL   H19813296   7.006   8.140   2.255 -0.1538  0.3641 -0.1796
   60MOL   H19913297   6.979   7.930   2.401  1.0043  0.8654  0.1492
   60MOL   C20013298   6.615   7.493   2.493  0.2879 -0.9445 -0.0108
   60MOL   C20113299   6.719   7.542   2.413  0.7564  0.4221  0.3731
   60MOL   C20213300   6.739   7.680   2.396 -0.3793  0.3443  0.2587
   60MOL   C20313301   6.656   7.771   2.462 -0.1350  0.0412 -0.2772
   60MOL   C20413302   6.545   7.725   2.530 -0.3679  0.4846  0.1607
   60MOL   C20513303   6.524   7.582   2.546 -0.2210 -0.0413  0.1149
   60MOL   O20613304   6.405   7.539   2.611 -0.0743 -0.2704 -0.3068
   60MOL   H20713305   6.598   7.386   2.491  0.4093 -0.9579 -0.4993
   60MOL   H20813306   6.783   7.466   2.370  1.1509  1.0255 -0.1273
   60MOL   H20913307   6.675   7.871   2.426  2.6141 -0.2802  0.1268
   60MOL   H21013308   6.470   7.785   2.579 -0.7249 -2.0671  2.8727
   60MOL   C21113309   6.442   7.324   2.907  0.0461  0.7425 -0.4366
   60MOL   C21213310   6.416   7.370   2.781  0.3748  1.0462 -0.1514
   60MOL   C21313311   6.425   7.502   2.740 -0.2512 -0.3498  0.7450
   60MOL   C21413312   6.477   7.597   2.836 -0.1004 -0.0012 -0.2548
   60MOL   C21513313   6.516   7.549   2.959 -0.0282 -0.3264 -0.6174
   60MOL   C21613314   6.499   7.414   3.003  0.5881  0.4335  0.4951
   60MOL   O21713315   6.548   7.375   3.126 -0.2971  0.1084  0.0244
   60MOL   H21813316   6.434   7.221   2.937 -0.3482  1.1313  0.8326
   60MOL   H21913317   6.381   7.294   2.712 -0.1292  1.5723 -0.4754
   60MOL   H22013318   6.489   7.702   2.813 -0.8360 -0.0938 -1.1162
   60MOL   H22113319   6.546   7.627   3.028 -3.5046 -0.3950  1.0875
   60MOL   H22213320   6.538   7.433   3.200 -0.6465 -0.6352  0.5663
   61MOL     C113321   7.250   1.226   4.879 -0.2813 -0.1181 -0.4100
   61MOL     C213322   7.121   1.288   4.875 -0.8877  0.4606  0.3486
   61MOL     C313323   7.043   1.286   4.988 -0.0183 -0.3630  0.2573
   61MOL     C413324   7.095   1.229   5.105 -0.1906  0.1207  0.0392
   61MOL     C513325   7.217   1.167   5.105 -0.7426  0.1332  0.4637
   61MOL     C613326   7.300   1.167   4.991 -0.2738 -0.1306  0.1940
   61MOL     O713327   7.423   1.106   4.992 -0.1280  0.1311 -0.3259
   61MOL     H813328   7.308   1.231   4.788 -1.2243 -1.3822 -1.1011
   61MOL     H913329   7.088   1.342   4.788 -0.7176 -2.6381 -1.7387
   61MOL    H1013330   7.029   1.216   5.189  0.1809 -1.5981  0.0734
   61MOL    H1113331   7.255   1.111   5.189 -0.7673  0.9509  1.0147
   61MOL    H1213332   6.941   1.323   4.990  0.2816  0.4309  1.0615
   61MOL    C1313333   7.762   1.198   5.114  0.4240 -0.5218 -0.3277
   61MOL    C1413334   7.655   1.122   5.064  0.9941 -0.4115 -0.2354
   61MOL    C1513335   7.528   1.185   5.033 -0.8890 -0.3645 -0.0614
   61MOL    C1613336   7.524   1.329   5.042 -0.9764  0.2331  0.0169
   61MOL    C1713337   7.630   1.401   5.100 -0.5873 -0.7129  0.4322
   61MOL    C1813338   7.755   1.341   5.133  0.3580  0.5426  0.0265
   61MOL    O1913339   7.863   1.413   5.184 -0.0453  0.4624  0.1728
   61MOL    H2013340   7.843   1.137   5.149  1.0401  0.1904 -0.4989
   61MOL    H2113341   7.675   1.019   5.037 -1.2506 -0.4357 -1.9952
   61MOL    H2213342   7.428   1.377   5.025 -1.7537 -1.3369 -0.1301
   61MOL    H2313343   7.626   1.509   5.106  0.8087 -0.6890  1.0843
   61MOL    C2413344   7.972   1.659   4.943  0.3245 -0.4329 -0.1720
   61MOL    C2513345   7.890   1.598   5.033  0.0191 -0.1790  0.0122
   61MOL    C2613346   7.940   1.478   5.100  0.4225  0.0656  0.4322
   61MOL    C2713347   8.069   1.436   5.069  0.0421  0.5190 -0.8053
   61MOL    C2813348   8.151   1.507   4.986  0.8214  0.0336  0.5933
   61MOL    C2913349   8.103   1.614   4.918  0.1433 -0.2363 -0.7147
   61MOL    O3013350   8.187   1.682   4.832  0.1267  0.2671  0.2908
   61MOL    H3113351   7.940   1.749   4.893  1.5465 -1.0873 -2.1830
   61MOL    H3213352   7.790   1.635   5.052 -0.7875 -1.4660 -1.6113
   61MOL    H3313353   8.110   1.344   5.110 -0.8950  0.7935  0.8003
   61MOL    H3413354   8.253   1.476   4.968 -0.0629 -2.4636 -0.2521
   61MOL    C3513355   8.157   1.513   4.496  0.1174 -0.5803  0.9841
   61MOL    C3613356   8.184   1.535   4.632 -0.3486  0.6428 -0.1618
   61MOL    C3713357   8.152   1.660   4.699  0.2289 -0.5127 -0.4722
   61MOL    C3813358   8.101   1.766   4.623 -0.4120 -0.5854 -0.9632
   61MOL    C3913359   8.077   1.743   4.485  0.7232  0.0480 -0.0878
   61MOL    C4013360   8.102   1.619   4.421  0.5959 -0.1721 -0.3043
   61MOL    O4113361   8.068   1.600   4.293 -0.1234 -0.0434  0.0678
   61MOL    H4213362   8.180   1.425   4.437 -0.6439 -1.2033  1.6041
   61MOL    H4313363   8.226   1.454   4.689 -1.0635 -0.2228 -0.8613
   61MOL    H4413364   8.082   1.860   4.671 -0.3341 -2.4320  2.8984
   61MOL    H4513365   8.030   1.825   4.432 -0.7177  1.0099  2.5751
   61MOL    C4613366   0.117   1.702   4.106  0.1103  0.7263 -0.1977
   61MOL    C4713367   0.010   1.702   4.193 -0.2750 -0.0958 -0.6845
   61MOL    C4813368   8.166   1.604   4.195  0.0519  0.1904 -0.3619
   61MOL    C4913369   8.165   1.510   4.094 -0.3111 -0.6364  0.2060
   61MOL    C5013370   0.014   1.503   3.996 -0.1981  0.2649  0.2823
   61MOL    C5113371   0.126   1.597   4.014  0.0788  0.3703 -0.4314
   61MOL    O5213372   0.233   1.577   3.933  0.2418 -0.4664  0.8267
   61MOL    H5313373   0.199   1.772   4.117  0.1707  0.6438 -0.1173
   61MOL    H5413374   0.002   1.780   4.267 -1.9462  0.6365 -1.6038
   61MOL    H5513375   8.094   1.429   4.093 -0.7069 -0.4430  3.6897
   61MOL    H5613376   0.010   1.421   3.926 -3.0116  0.6272 -0.0473
   61MOL    C5713377   0.213   1.701   3.587  0.3107 -0.2072  0.2063
   61MOL    C5813378   0.197   1.620   3.701 -0.0489  0.2842 -0.3542
   61MOL    C5913379   0.248   1.664   3.824  0.3204 -0.5818  0.0869
   61MOL    C6013380   0.318   1.785   3.830 -0.3840  0.0157 -0.4496
   61MOL    C6113381   0.329   1.873   3.725 -0.9800  0.0859 -0.0018
   61MOL    C6213382   0.281   1.828   3.599 -0.5506  0.4070 -0.3677
   61MOL    O6313383   0.290   1.904   3.489 -0.7757  0.2041  0.5650
   61MOL    H6413384   0.178   1.662   3.492 -1.8038  4.1670 -0.9457
   61MOL    H6513385   0.142   1.527   3.698 -0.0673  0.1946  1.8807
   61MOL    H6613386   0.344   1.832   3.924 -3.2731  1.4848 -0.3230
   61MOL    H6713387   0.373   1.971   3.735 -0.4864  0.1176 -2.3169
   61MOL    C6813388   0.521   2.197   3.450  0.2342  0.4031 -0.1903
   61MOL    C6913389   0.397   2.122   3.454 -0.7165 -0.4520  0.3245
   61MOL    C7013390   0.402   1.981   3.465  0.2151 -0.1736  0.4380
   61MOL    C7113391   0.529   1.919   3.472  0.3201  0.3910  0.1788
   61MOL    C7213392   0.646   1.994   3.457 -0.4387  0.0321 -0.2332
   61MOL    C7313393   0.650   2.132   3.451  0.0259  0.8203  0.7603
   61MOL    O7413394   0.765   2.213   3.440 -0.0548  0.0593 -0.0275
   61MOL    H7513395   0.505   2.304   3.448 -1.5036  0.1756  0.6166
   61MOL    H7613396   0.306   2.180   3.462 -0.8754 -0.3862 -1.8123
   61MOL    H7713397   0.545   1.813   3.486  0.1523  0.4972  1.1884
   61MOL    H7813398   0.743   1.946   3.466 -1.0685 -0.7891  2.7216
   61MOL    C7913399   1.103   2.058   3.454  0.3493 -0.1671 -0.6958
   61MOL    C8013400   0.980   2.118   3.490  0.4541 -0.7835  0.4152
   61MOL    C8113401   0.879   2.158   3.400 -0.4997  0.1770 -0.1129
   61MOL    C8213402   0.897   2.115   3.272 -0.3667 -0.2186  0.9138
   61MOL    C8313403   1.011   2.046   3.231 -0.1319  0.0161  0.7159
   61MOL    C8413404   1.120   2.021   3.321 -0.3419 -0.4781  1.2048
   61MOL    O8513405   1.235   1.947   3.274 -0.7634 -0.1218  0.4050
   61MOL    H8613406   1.172   2.033   3.534 -1.6040  0.8732  1.3880
   61MOL    H8713407   0.960   2.137   3.594  0.7121 -0.3926  0.3968
   61MOL    H8813408   0.822   2.140   3.199 -0.3363 -0.7809  0.6841
   61MOL    H8913409   1.017   2.019   3.126  0.7310  0.6143  0.6025
   61MOL    C9013410   1.457   2.148   3.053 -0.3714  0.2293  0.0576
   61MOL    C9113411   1.391   2.102   3.170  0.8362  0.6000  0.2950
   61MOL    C9213412   1.298   1.996   3.161 -0.3893  0.3464 -0.1770
   61MOL    C9313413   1.276   1.933   3.038  0.0132  0.1394  0.0425
   61MOL    C9413414   1.346   1.974   2.918  0.1466  0.4623 -0.2398
   61MOL    C9513415   1.426   2.090   2.927  0.0528  0.5205  0.5094
   61MOL    O9613416   1.480   2.150   2.813  0.0994 -0.3752  0.2790
   61MOL    H9713417   1.535   2.222   3.067 -1.4250  0.8332  3.0934
   61MOL    H9813418   1.408   2.139   3.271  3.8730 -0.0418  0.0899
   61MOL    H9913419   1.212   1.848   3.027 -0.0245 -0.1394  2.2228
   61MOL   H10013420   1.318   1.929   2.824  0.2404 -1.2727  0.5535
   61MOL   C10113421   1.225   2.341   2.626  0.0908  0.3503 -0.2589
   61MOL   C10213422   1.287   2.236   2.697 -0.5194  0.4820 -0.7207
   61MOL   C10313423   1.414   2.258   2.758 -0.2610 -0.8873  0.0830
   61MOL   C10413424   1.476   2.384   2.747  0.1960 -0.0511  0.5499
   61MOL   C10513425   1.412   2.490   2.679 -0.4315  0.4708 -0.7340
   61MOL   C10613426   1.287   2.471   2.617  1.0085  0.0621 -0.6643
   61MOL   O10713427   1.216   2.576   2.555  0.4658 -0.0285 -0.2617
   61MOL   H10813428   1.132   2.330   2.572 -1.4405  1.1938  2.1483
   61MOL   H10913429   1.238   2.140   2.702  0.2830  0.1114  0.2174
   61MOL   H11013430   1.578   2.393   2.783  0.4555 -0.6514 -0.0133
   61MOL   H11113431   1.463   2.582   2.656 -1.4936  0.7267 -2.1686
   61MOL   C11213432   0.898   2.739   2.630  0.1690 -0.2255  0.1399
   61MOL   C11313433   0.990   2.653   2.575  0.3895 -0.2210 -0.7192
   61MOL   C11413434   1.123   2.637   2.628 -0.6436  0.1286 -1.1202
   61MOL   C11513435   1.159   2.701   2.751 -0.3348 -0.3661  0.3787
   61MOL   C11613436   1.063   2.786   2.809  0.1028  0.1502 -0.2265
   61MOL   C11713437   0.934   2.814   2.746 -0.6443  0.5233 -0.1710
   61MOL   O11813438   0.852   2.910   2.797 -0.4996 -0.0982 -0.2673
   61MOL   H11913439   0.808   2.771   2.580  0.2776 -0.6149 -0.2979
   61MOL   H12013440   0.967   2.604   2.482 -4.5737  0.6098 -0.0626
   61MOL   H12113441   1.254   2.691   2.800 -0.9146  1.0647  1.8679
   61MOL   H12213442   1.077   2.825   2.908  0.8411 -1.7128  0.4185
   61MOL   C12313443   0.535   2.954   2.976 -0.1697 -0.4289  0.1378
   61MOL   C12413444   0.653   2.980   2.907 -0.6318  0.3999 -0.2182
   61MOL   C12513445   0.737   2.872   2.865  0.2373  0.2354  0.2984
   61MOL   C12613446   0.704   2.740   2.905 -0.3640  0.0521 -0.4866
   61MOL   C12713447   0.584   2.715   2.978  0.1595  0.4742  0.1810
   61MOL   C12813448   0.502   2.822   3.018 -0.1994 -0.0361 -0.0151
   61MOL   O12913449   0.373   2.809   3.067 -0.1256  0.0478  0.7810
   61MOL   H13013450   0.465   3.030   3.008  0.4336  0.3900 -0.4639
   61MOL   H13113451   0.687   3.078   2.877  3.2494 -0.6435  0.4877
   61MOL   H13213452   0.776   2.663   2.883 -1.4073 -0.5982 -1.6401
   61MOL   H13313453   0.554   2.612   2.990  1.3531 -0.0896 -1.5838
   61MOL   C13413454   0.285   2.676   3.398 -0.2955 -0.8724 -0.0907
   61MOL   C13513455   0.314   2.762   3.290 -0.7956  0.0977  0.0230
   61MOL   C13613456   0.350   2.716   3.164  0.4349  0.3104  0.1671
   61MOL   C13713457   0.354   2.579   3.147  0.0265  0.6700  0.7240
   61MOL   C13813458   0.321   2.487   3.252  0.0506  0.7462  0.1662
   61MOL   C13913459   0.290   2.531   3.382 -0.6273 -0.1107 -0.5288
   61MOL   O14013460   0.277   2.447   3.490 -0.0462 -0.1503 -0.1848
   61MOL   H14113461   0.280   2.722   3.496  1.8112 -0.6253 -0.0808
   61MOL   H14213462   0.324   2.869   3.302 -1.4604  0.0119  1.4469
   61MOL   H14313463   0.370   2.539   3.048  0.1365  1.7958  0.2874
   61MOL   H14413464   0.329   2.383   3.221  0.0256  1.0613 -0.9083
   61MOL   C14513465   8.176   2.423   3.580  0.2018  0.4252  0.2139
   61MOL   C14613466   0.038   2.443   3.502  0.3537  0.1201 -0.1097
   61MOL   C14713467   0.163   2.434   3.561 -0.2683  1.1138  0.2901
   61MOL   C14813468   0.171   2.398   3.697  0.1682 -0.4561  0.5241
   61MOL   C14913469   0.057   2.365   3.772  0.2201  0.1121  0.1262
   61MOL   C15013470   8.182   2.381   3.716  0.0978 -0.6606 -0.5112
   61MOL   O15113471   8.072   2.358   3.785  0.2847 -0.4852  0.2719
   61MOL   H15213472   8.085   2.433   3.525  1.4463  0.0851 -1.9639
   61MOL   H15313473   0.027   2.464   3.397  1.4064  2.6397  0.2618
   61MOL   H15413474   0.269   2.393   3.743  0.2656  2.4096  0.6833
   61MOL   H15513475   0.080   2.327   3.871  3.9968 -1.5079 -1.2820
   61MOL   C15613476   7.816   2.612   3.877 -0.4180 -0.2640 -0.3407
   61MOL   C15713477   7.876   2.500   3.819  0.3493 -0.4903  0.4320
   61MOL   C15813478   8.009   2.468   3.848  0.5868 -0.1222 -0.1127
   61MOL   C15913479   8.084   2.547   3.940  0.6236  0.2349 -0.1133
   61MOL   C16013480   8.030   2.663   3.999  0.0027  0.4616  0.0933
   61MOL   C16113481   7.892   2.694   3.967  0.2117 -0.3917  0.0285
   61MOL   O16213482   7.829   2.807   4.024 -0.5812  0.0583  0.2001
   61MOL   H16313483   7.711   2.631   3.861 -0.6862 -1.8439 -0.5212
   61MOL   H16413484   7.827   2.433   3.750 -0.2445  0.2014  0.1785
   61MOL   H16513485   8.191   2.538   3.952  0.7369 -0.2372 -1.4791
   61MOL   H16613486   8.089   2.729   4.061  3.3186 -3.4719  1.3399
   61MOL   C16713487   7.497   2.794   4.171  0.0329  0.2679 -0.3384
   61MOL   C16813488   7.596   2.813   4.079  0.0806  0.3810  0.2410
   61MOL   C16913489   7.728   2.786   4.115  0.4195 -0.0995  0.3634
   61MOL   C17013490   7.761   2.733   4.245  0.3175  0.3333 -0.6035
   61MOL   C17113491   7.657   2.701   4.330  0.7109  0.0781  0.4637
   61MOL   C17213492   7.524   2.737   4.296 -0.4797  0.4860  0.2539
   61MOL   O17313493   7.426   2.723   4.382  0.0470  0.2245 -0.7338
   61MOL   H17413494   7.396   2.825   4.147 -0.1643 -1.1500 -1.3828
   61MOL   H17513495   7.581   2.860   3.983  1.3037  0.8476  0.2581
   61MOL   H17613496   7.859   2.720   4.287  0.1535  0.6973 -0.1006
   61MOL   H17713497   7.688   2.664   4.427  1.0163  1.0983  0.7686
   61MOL   C17813498   7.304   2.377   4.436 -0.6638  0.0800 -0.2768
   61MOL   C17913499   7.388   2.489   4.447  0.1865  1.1188  0.1908
   61MOL   C18013500   7.352   2.609   4.368 -0.6094 -0.0466 -0.5020
   61MOL   C18113501   7.238   2.606   4.285 -0.8958 -0.9494  0.1896
   61MOL   C18213502   7.162   2.488   4.272 -0.2039  0.0188 -0.2620
   61MOL   C18313503   7.197   2.374   4.341 -0.3739 -0.1137  0.4489
   61MOL   O18413504   7.137   2.250   4.306 -0.0699 -0.3956 -0.1899
   61MOL   H18513505   7.328   2.293   4.499 -0.9281  0.7205  0.6796
   61MOL   H18613506   7.480   2.483   4.504  1.8489  2.2245 -2.2439
   61MOL   H18713507   7.201   2.692   4.231  0.6446  0.2722  1.0565
   61MOL   H18813508   7.079   2.474   4.205  1.8310 -2.3846 -2.3715
   61MOL   C18913509   7.030   2.167   3.967 -0.6765 -0.4063  0.2088
   61MOL   C19013510   7.031   2.219   4.096  0.3577  0.2265 -0.0670
   61MOL   C19113511   7.144   2.204   4.181  0.5715  0.5158 -0.3941
   61MOL   C19213512   7.259   2.142   4.139  0.1830 -0.0394 -0.2583
   61MOL   C19313513   7.262   2.088   4.008  0.3099  0.6505 -0.1501
   61MOL   C19413514   7.149   2.100   3.923 -0.0370  0.1781 -0.3488
   61MOL   O19513515   7.144   2.038   3.803  0.1346 -1.0031 -0.4141
   61MOL   H19613516   6.942   2.172   3.905  0.4278  0.1408 -1.3449
   61MOL   H19713517   6.948   2.269   4.143 -0.4179 -0.6739 -0.4636
   61MOL   H19813518   7.352   2.132   4.193  1.0294 -2.1414 -2.0150
   61MOL   H19913519   7.355   2.056   3.964  0.4711  0.1432  0.5564
   61MOL   C20013520   7.126   1.674   3.837 -0.1405 -0.0052  0.0995
   61MOL   C20113521   7.094   1.810   3.855 -0.1375  0.5313  0.5652
   61MOL   C20213522   7.178   1.907   3.792  0.2724  0.1812 -0.5593
   61MOL   C20313523   7.296   1.875   3.720 -0.5744 -0.1454 -0.7548
   61MOL   C20413524   7.325   1.737   3.702 -0.5601  0.3786  0.7086
   61MOL   C20513525   7.239   1.639   3.756  0.4318 -1.2740 -0.4314
   61MOL   O20613526   7.264   1.506   3.734  0.4960 -0.1611 -0.3838
   61MOL   H20713527   7.075   1.589   3.879  0.0920 -2.0333 -3.4901
   61MOL   H20813528   7.022   1.847   3.926  0.7461  0.6456  1.4128
   61MOL   H20913529   7.368   1.943   3.676 -0.7602  0.1375 -0.6202
   61MOL   H21013530   7.418   1.701   3.661 -0.1337  0.4060  1.6344
   61MOL   C21113531   7.500   1.409   4.024  0.5785 -0.5020  0.4833
   61MOL   C21213532   7.434   1.482   3.912  0.2000  0.6661  0.4598
   61MOL   C21313533   7.318   1.436   3.842  0.6644  0.2320  0.7166
   61MOL   C21413534   7.265   1.311   3.883  0.5536  0.7903 -0.0712
   61MOL   C21513535   7.320   1.245   3.994 -0.2511  0.7816  0.1269
   61MOL   C21613536   7.431   1.296   4.065 -0.2410 -0.1278  0.4152
   61MOL   O21713537   7.474   1.216   4.169  0.2218  0.2447 -0.2566
   61MOL   H21813538   7.591   1.432   4.077  0.4971  0.6996  0.1272
   61MOL   H21913539   7.489   1.565   3.871  0.3548  1.5521  2.4489
   61MOL   H22013540   7.174   1.268   3.844  1.0817  1.6971 -2.3562
   61MOL   H22113541   7.283   1.146   4.014 -2.0123  1.4040  0.0061
   61MOL   H22213542   7.563   1.245   4.183 -0.0007 -0.0177  1.9397
   62MOL     C113543   6.982   2.943   1.976  0.1445 -0.2564  0.2842
   62MOL     C213544   7.061   2.967   2.090  0.3138  0.5547 -1.0955
   62MOL     C313545   6.996   2.973   2.218  0.0065 -0.8400 -0.1223
   62MOL     C413546   6.853   2.966   2.225  0.4401  0.1574 -0.5777
   62MOL     C513547   6.780   2.930   2.108 -0.8119  0.4427 -0.3682
   62MOL     C613548   6.845   2.910   1.985  0.7275  0.1968 -0.1553
   62MOL     O713549   6.771   2.881   1.870 -0.0311 -0.1926  0.0511
   62MOL     H813550   7.027   2.933   1.878  1.1084  0.9517  0.6026
   62MOL     H913551   7.168   2.973   2.076  0.2673  1.0130 -1.2674
   62MOL    H1013552   6.811   2.977   2.323 -1.4478 -1.7465 -1.1330
   62MOL    H1113553   6.673   2.914   2.110 -0.7980  0.1199 -1.8289
   62MOL    H1213554   7.057   2.979   2.306 -0.3362  3.9677 -0.1093
   62MOL    C1313555   6.758   2.512   1.831 -0.4917  0.0050  0.1129
   62MOL    C1413556   6.807   2.637   1.859  0.5370 -0.2201 -0.5657
   62MOL    C1513557   6.724   2.754   1.841  0.4908  0.4407  0.0830
   62MOL    C1613558   6.603   2.741   1.775 -0.3232  0.2728  0.6120
   62MOL    C1713559   6.552   2.615   1.743 -1.1218 -0.1199 -0.1477
   62MOL    C1813560   6.630   2.500   1.772  0.8223 -0.1527  0.3197
   62MOL    O1913561   6.593   2.381   1.712  0.3326 -0.1673 -0.1300
   62MOL    H2013562   6.828   2.430   1.832  2.9070  2.7615 -0.1203
   62MOL    H2113563   6.909   2.651   1.891  0.2133  1.7833 -0.3232
   62MOL    H2213564   6.547   2.832   1.760  0.6600  1.0827  1.7685
   62MOL    H2313565   6.459   2.610   1.689 -1.4508 -1.2189  0.4841
   62MOL    C2413566   6.670   2.074   1.900 -0.6913 -0.0083  0.0364
   62MOL    C2513567   6.676   2.178   1.803  0.2899 -0.0001 -0.1412
   62MOL    C2613568   6.578   2.282   1.805  0.1313 -0.6653  0.5575
   62MOL    C2713569   6.473   2.288   1.902  0.0040 -0.5827 -0.1998
   62MOL    C2813570   6.469   2.186   1.997  0.1633 -0.5460  0.8606
   62MOL    C2913571   6.563   2.076   1.994  0.1446  0.0223 -0.3546
   62MOL    O3013572   6.559   1.983   2.092  0.0935 -0.4886 -0.0592
   62MOL    H3113573   6.747   1.999   1.901 -1.1004 -0.4389 -0.2636
   62MOL    H3213574   6.744   2.174   1.719  1.7802  2.5011  0.8657
   62MOL    H3313575   6.393   2.361   1.895  0.0101 -0.6953 -1.6841
   62MOL    H3413576   6.392   2.183   2.073  0.5268 -0.1748  1.2506
   62MOL    C3513577   6.275   1.772   2.006 -0.4040 -0.9201 -0.4701
   62MOL    C3613578   6.373   1.869   2.000 -0.8436  0.7885  0.0919
   62MOL    C3713579   6.451   1.905   2.115  0.2459  0.8835  0.0532
   62MOL    C3813580   6.421   1.842   2.244  0.5211  0.4218  0.3766
   62MOL    C3913581   6.312   1.752   2.249 -0.7916  0.6902 -0.2246
   62MOL    C4013582   6.238   1.721   2.133 -0.2856 -0.1351  0.5711
   62MOL    O4113583   6.141   1.630   2.129  0.2251  0.1861  0.6416
   62MOL    H4213584   6.228   1.744   1.913  1.7255  0.1440 -1.9175
   62MOL    H4313585   6.403   1.911   1.906 -0.7775 -2.1202 -1.2352
   62MOL    H4413586   6.484   1.852   2.331  1.8285  0.5059 -0.5628
   62MOL    H4513587   6.294   1.703   2.344  1.4947 -1.1120 -0.6728
   62MOL    C4613588   5.922   1.501   2.385 -0.6147 -0.1573 -0.3574
   62MOL    C4713589   5.964   1.586   2.284  0.4830 -0.0685 -1.0585
   62MOL    C4813590   6.095   1.562   2.239 -0.3429 -0.0967  0.2173
   62MOL    C4913591   6.182   1.470   2.299 -0.4216 -0.2132  0.1401
   62MOL    C5013592   6.139   1.392   2.410 -0.1494 -0.1480 -0.1021
   62MOL    C5113593   6.006   1.409   2.453  0.1649  0.8125 -0.9233
   62MOL    O5213594   5.960   1.347   2.568  0.1841  0.9323  0.0571
   62MOL    H5313595   5.823   1.519   2.423 -0.9511 -0.4714 -1.0793
   62MOL    H5413596   5.905   1.665   2.240 -1.2218 -0.1079  1.0571
   62MOL    H5513597   6.284   1.463   2.264 -0.4294  1.3483 -0.2671
   62MOL    H5613598   6.202   1.319   2.458 -0.3028 -2.2457 -3.0215
   62MOL    C5713599   6.032   1.556   2.864  0.6242 -0.0796 -0.2696
   62MOL    C5813600   5.974   1.505   2.745 -0.6680 -0.3049  0.5749
   62MOL    C5913601   6.011   1.387   2.685  0.0084 -0.2737  0.0300
   62MOL    C6013602   6.116   1.319   2.748  0.0586  0.0540  0.0149
   62MOL    C6113603   6.180   1.367   2.864 -0.1091 -0.2836 -0.2972
   62MOL    C6213604   6.139   1.489   2.924 -0.3720  0.3119  0.1321
   62MOL    O6313605   6.211   1.546   3.024 -0.1654  0.4961 -0.2312
   62MOL    H6413606   5.996   1.642   2.919  0.7840 -0.3762  0.2992
   62MOL    H6513607   5.890   1.558   2.703  0.0044  2.2861  2.3970
   62MOL    H6613608   6.151   1.233   2.693  0.8083 -0.3910  1.1745
   62MOL    H6713609   6.265   1.312   2.900  0.1348  0.4728  0.3028
   62MOL    C6813610   6.556   1.632   2.922 -0.1999 -0.1564 -0.3347
   62MOL    C6913611   6.419   1.638   2.939  0.5138 -0.1330 -0.4937
   62MOL    C7013612   6.351   1.543   3.018  0.7058  0.7610 -0.0250
   62MOL    C7113613   6.424   1.453   3.094  0.0678 -0.0792 -0.1779
   62MOL    C7213614   6.566   1.446   3.078  0.6355 -0.3602 -1.0492
   62MOL    C7313615   6.631   1.535   2.995 -0.1871 -0.7491  0.9736
   62MOL    O7413616   6.770   1.542   2.978  0.0842 -0.1476 -0.3462
   62MOL    H7513617   6.599   1.713   2.864  1.9553 -1.0654 -0.0444
   62MOL    H7613618   6.363   1.715   2.888 -1.3678 -0.3893  1.0966
   62MOL    H7713619   6.373   1.381   3.156 -1.8653  0.6949 -0.8273
   62MOL    H7813620   6.623   1.373   3.133  1.1122  0.7939  0.0319
   62MOL    C7913621   6.950   1.224   2.942  0.1755 -0.3756 -0.7052
   62MOL    C8013622   6.886   1.332   3.004 -0.3438  0.7779  0.0658
   62MOL    C8113623   6.838   1.437   2.920 -0.4019  0.2399 -0.2535
   62MOL    C8213624   6.857   1.444   2.781 -0.0265 -1.0437 -0.4131
   62MOL    C8313625   6.916   1.340   2.720 -0.4212  0.5126  0.1354
   62MOL    C8413626   6.966   1.231   2.800 -0.4224 -0.7029  0.1251
   62MOL    O8513627   7.045   1.133   2.741 -0.4158 -0.3173  0.2483
   62MOL    H8613628   6.999   1.143   2.994  0.1647  0.6274  0.9065
   62MOL    H8713629   6.875   1.324   3.111  1.4499  0.4545  0.2328
   62MOL    H8813630   6.831   1.537   2.734 -1.6215 -2.0491 -1.5686
   62MOL    H8913631   6.945   1.349   2.616  0.8208  1.3748  0.5383
   62MOL    C9013632   6.880   1.004   2.431  0.7522 -0.0831 -0.4043
   62MOL    C9113633   6.956   1.086   2.515  0.6330 -0.3334 -0.8171
   62MOL    C9213634   6.973   1.051   2.651  0.1668  0.7063  0.8080
   62MOL    C9313635   6.942   0.924   2.693  0.2163  1.2506  0.4308
   62MOL    C9413636   6.859   0.847   2.612  0.0753 -0.0214 -0.5489
   62MOL    C9513637   6.834   0.880   2.477  0.2909  0.2493 -0.0724
   62MOL    O9613638   6.760   0.803   2.388  0.1760 -0.1707  0.2887
   62MOL    H9713639   6.862   1.019   2.325 -1.0965  0.9647  0.0274
   62MOL    H9813640   6.984   1.178   2.466  1.0468  0.3827  0.7185
   62MOL    H9913641   6.971   0.889   2.791 -3.8506 -0.4207  1.1321
   62MOL   H10013642   6.830   0.751   2.653  1.1922 -0.0293  0.2515
   62MOL   C10113643   6.677   0.446   2.428 -0.0749  0.2011  0.1809
   62MOL   C10213644   6.746   0.559   2.392 -0.7076 -0.2874 -0.5613
   62MOL   C10313645   6.701   0.690   2.430 -0.0500  0.0927 -0.3356
   62MOL   C10413646   6.587   0.696   2.512  1.0375 -0.2119 -0.0247
   62MOL   C10513647   6.513   0.579   2.545 -0.2492  0.6761  0.1900
   62MOL   C10613648   6.565   0.454   2.509 -0.0563 -0.3433 -0.8046
   62MOL   O10713649   6.500   0.342   2.559 -0.6378  0.2140 -0.5182
   62MOL   H10813650   6.708   0.348   2.394  1.0224  0.3665  0.7123
   62MOL   H10913651   6.832   0.542   2.328 -1.1932 -0.2415 -1.2249
   62MOL   H11013652   6.540   0.787   2.548  0.0311 -1.4842  1.9834
   62MOL   H11113653   6.426   0.593   2.607 -0.4606  1.2334 -0.2307
   62MOL   C11213654   6.150   0.221   2.507 -0.2758 -0.0665 -0.6615
   62MOL   C11313655   6.271   0.261   2.567 -0.3567  0.1189 -0.5777
   62MOL   C11413656   6.385   0.305   2.490  0.8950  0.2067  1.1244
   62MOL   C11513657   6.374   0.303   2.352 -0.1286 -0.4926  0.8687
   62MOL   C11613658   6.250   0.265   2.290  0.1017  0.3232 -0.5357
   62MOL   C11713659   6.141   0.225   2.367 -0.1247  0.3751 -0.0030
   62MOL   O11813660   6.029   0.190   2.301  0.2479 -0.2547 -0.7922
   62MOL   H11913661   6.075   0.186   2.576 -0.4101  0.9533 -0.2722
   62MOL   H12013662   6.277   0.259   2.675  0.2602 -0.2017 -0.6112
   62MOL   H12113663   6.456   0.339   2.291  0.6869 -0.1768  2.1243
   62MOL   H12213664   6.238   0.262   2.183  1.5437 -1.4335 -0.6806
   62MOL   C12313665   5.902   8.100   2.329 -0.0701  0.2223  0.2193
   62MOL   C12413666   5.929   8.234   2.359 -0.4463  0.2760 -0.2169
   62MOL   C12513667   6.010   0.058   2.271  0.5796  0.9159  0.3954
   62MOL   C12613668   6.072   8.251   2.160 -0.6342  0.0670 -0.7587
   62MOL   C12713669   6.044   8.114   2.138  0.1834 -0.3368 -0.7337
   62MOL   C12813670   5.954   8.044   2.218  0.6954  0.3042  0.2799
   62MOL   O12913671   5.903   7.920   2.184  0.4567  0.2769  0.1801
   62MOL   H13013672   5.836   8.047   2.397  0.5042 -0.6826  0.0797
   62MOL   H13113673   5.887   0.015   2.452 -1.2238 -2.9909  0.7251
   62MOL   H13213674   6.133   0.062   2.100  2.0947 -3.6483 -2.2623
   62MOL   H13313675   6.078   8.061   2.050  0.3826  0.6040 -1.2349
   62MOL   C13413676   6.178   7.680   2.291 -0.0176 -0.2419  0.0690
   62MOL   C13513677   6.105   7.804   2.279 -0.4375  0.2533 -0.1081
   62MOL   C13613678   5.990   7.810   2.199 -0.3850  0.6270 -0.7842
   62MOL   C13713679   5.947   7.691   2.131  0.2705  0.6944  0.2226
   62MOL   C13813680   6.016   7.571   2.143 -0.0216 -0.7828  0.3045
   62MOL   C13913681   6.134   7.571   2.216  0.0621  0.0537 -0.7181
   62MOL   O14013682   6.215   7.457   2.212  0.7507  0.3668 -0.0455
   62MOL   H14113683   6.269   7.674   2.350  1.7201  0.7854 -2.3890
   62MOL   H14213684   6.139   7.895   2.327  1.5374 -0.2682 -0.4551
   62MOL   H14313685   5.853   7.681   2.078  0.3354 -0.4433  0.3035
   62MOL   H14413686   5.986   7.474   2.105 -1.3490 -0.6818  1.0427
   62MOL   C14513687   6.411   7.446   1.907 -0.5900  0.5723 -0.2624
   62MOL   C14613688   6.303   7.436   1.996  0.1586  0.6681  0.4420
   62MOL   C14713689   6.322   7.468   2.129 -0.0542  0.4132  0.5019
   62MOL   C14813690   6.453   7.515   2.170 -0.1793 -0.2347  0.0030
   62MOL   C14913691   6.565   7.517   2.083  0.2593  0.0264 -0.2163
   62MOL   C15013692   6.542   7.490   1.948  0.0013  0.1715  0.1064
   62MOL   O15113693   6.647   7.492   1.854 -0.0266 -0.0939  0.3720
   62MOL   H15213694   6.396   7.413   1.805 -1.4970 -2.2461  0.7440
   62MOL   H15313695   6.208   7.391   1.969 -0.0645  0.9519  0.7481
   62MOL   H15413696   6.475   7.546   2.271  2.4397 -1.7806 -0.0366
   62MOL   H15513697   6.663   7.546   2.118  0.2498  0.5033 -0.5938
   62MOL   C15613698   6.542   7.566   1.516  0.1001  0.3588  0.0593
   62MOL   C15713699   6.581   7.490   1.630  0.3030  0.1052 -0.1069
   62MOL   C15813700   6.621   7.568   1.742 -1.1358  0.1285 -0.6965
   62MOL   C15913701   6.628   7.698   1.744  0.8741  0.3101 -0.6578
   62MOL   C16013702   6.577   7.773   1.633  0.0240 -0.1946  0.1701
   62MOL   C16113703   6.546   7.708   1.517 -0.9095 -0.1346 -0.3708
   62MOL   O16213704   6.512   7.782   1.402  0.0268  0.2838  0.1792
   62MOL   H16313705   6.511   7.508   1.430 -0.4781 -0.9039  1.1049
   62MOL   H16413706   6.576   7.383   1.639  0.1895  0.3678  4.4540
   62MOL   H16513707   6.656   7.743   1.839  1.3818  1.7424 -1.4712
   62MOL   H16613708   6.569   7.881   1.639  2.8428 -0.0430  2.0685
   62MOL   C16713709   6.149   7.842   1.453 -0.7066 -0.2900 -0.4182
   62MOL   C16813710   6.277   7.785   1.469  0.2169  0.5015 -0.8240
   62MOL   C16913711   6.389   7.841   1.398 -0.6076  0.5095 -0.1194
   62MOL   C17013712   6.368   7.955   1.318 -0.1538  0.7254  0.2666
   62MOL   C17113713   6.239   8.009   1.307  0.8905 -0.2560 -0.0144
   62MOL   C17213714   6.128   7.951   1.370 -0.6499 -0.0776 -0.3688
   62MOL   O17313715   6.002   8.002   1.347  0.7104  0.1750  0.1129
   62MOL   H17413716   6.064   7.789   1.493 -1.4977  1.1439 -0.1801
   62MOL   H17513717   6.300   7.700   1.531  0.7311 -0.2907 -2.0802
   62MOL   H17613718   6.445   7.996   1.255 -2.5375  2.4692 -1.6114
   62MOL   H17713719   6.239   8.090   1.236 -3.0100 -0.7584 -0.6589
   62MOL   C17813720   5.670   7.917   1.194 -0.0067 -0.1042 -0.7123
   62MOL   C17913721   5.786   7.989   1.250  0.3539  0.4713  0.3958
   62MOL   C18013722   5.906   7.923   1.279  0.4574 -0.3818 -0.0125
   62MOL   C18113723   5.932   7.789   1.229 -0.6021 -0.8225 -0.7470
   62MOL   C18213724   5.825   7.720   1.172 -0.4848  0.1560  0.3438
   62MOL   C18313725   5.693   7.784   1.164 -0.7784 -0.0910  0.1869
   62MOL   O18413726   5.586   7.709   1.123 -0.0978 -0.2471  0.4517
   62MOL   H18513727   5.576   7.968   1.176 -0.2575 -0.3563 -0.1419
   62MOL   H18613728   5.776   8.087   1.293 -0.7112  0.7835 -0.5518
   62MOL   H18713729   6.033   7.750   1.235 -0.1327  0.2981 -1.0917
   62MOL   H18813730   5.832   7.620   1.132 -3.2885 -0.7014  1.8239
   62MOL   C18913731   5.470   7.511   1.421  0.2105  0.1719  0.0237
   62MOL   C19013732   5.558   7.563   1.320  0.1868 -0.6400  0.2742
   62MOL   C19113733   5.506   7.645   1.216  0.0850 -0.3446  0.2696
   62MOL   C19213734   5.361   7.658   1.202 -0.1887 -0.2605  0.1902
   62MOL   C19313735   5.276   7.594   1.293 -0.2210  0.3048 -0.3033
   62MOL   C19413736   5.330   7.529   1.409  0.2299 -0.6327  0.1988
   62MOL   O19513737   5.249   7.476   1.502  0.6532 -0.0351 -0.2904
   62MOL   H19613738   5.507   7.465   1.511  0.2100  0.7020  0.2976
   62MOL   H19713739   5.664   7.556   1.334  0.2352 -0.1688  0.1472
   62MOL   H19813740   5.315   7.707   1.118 -0.4085 -1.2094 -0.2479
   62MOL   H19913741   5.169   7.610   1.288 -0.6822 -2.0139  1.1948
   62MOL   C20013742   5.114   7.144   1.400  0.2004 -0.3982 -0.5386
   62MOL   C20113743   5.201   7.249   1.440  0.3364 -0.5851  0.0581
   62MOL   C20213744   5.160   7.380   1.455 -0.0396 -0.1286  0.2984
   62MOL   C20313745   5.020   7.409   1.432 -0.2548 -0.4125  0.1239
   62MOL   C20413746   4.933   7.304   1.386  0.0866  0.1256 -0.4908
   62MOL   C20513747   4.977   7.172   1.373  0.2139  0.0036  0.2900
   62MOL   O20613748   4.897   7.069   1.332  0.2928  0.0803  0.2981
   62MOL   H20713749   5.161   7.050   1.373  0.9647  0.3543 -1.8826
   62MOL   H20813750   5.305   7.233   1.466 -0.1094 -1.9302  1.1098
   62MOL   H20913751   4.984   7.508   1.455  2.4626  0.9799 -1.3547
   62MOL   H21013752   4.827   7.322   1.379  0.0739  0.1006 -0.3574
   62MOL   C21113753   4.632   6.929   1.560  1.1603  1.1159 -0.3288
   62MOL   C21213754   4.698   7.005   1.460 -0.3495  0.2512  0.2382
   62MOL   C21313755   4.839   6.998   1.437 -0.3035  0.2628  0.3384
   62MOL   C21413756   4.920   6.913   1.520 -0.1224 -0.1095  0.0101
   62MOL   C21513757   4.856   6.844   1.624 -0.8680 -0.7762 -0.2974
   62MOL   C21613758   4.716   6.857   1.647 -0.7347 -0.0551  0.1972
   62MOL   O21713759   4.666   6.781   1.751  0.5120 -0.1979 -0.5441
   62MOL   H21813760   4.525   6.933   1.573  1.1165 -1.6724  0.5440
   62MOL   H21913761   4.646   7.063   1.386  1.8211 -0.6970 -2.1236
   62MOL   H22013762   5.026   6.908   1.499 -0.4871  0.4137 -2.1786
   62MOL   H22113763   4.918   6.806   1.704  1.3590  3.6501  0.2095
   62MOL   H22213764   4.575   6.766   1.734  0.6085 -1.5469  0.0920
   63MOL     C113765   5.174   1.047   0.114  0.9012 -0.7348  0.4160
   63MOL     C213766   5.078   1.067   0.013  0.4216 -0.2549 -0.1904
   63MOL     C313767   4.942   1.077   0.040  0.2481 -0.7422 -0.0011
   63MOL     C413768   4.895   1.065   0.174 -0.3548  0.0301 -0.2105
   63MOL     C513769   4.995   1.050   0.281 -0.0972 -0.2155  0.1970
   63MOL     C613770   5.135   1.041   0.249 -0.0592 -0.7184  0.7907
   63MOL     O713771   5.231   1.035   0.348 -0.7527  0.0017 -0.5852
   63MOL     H813772   5.278   1.045   0.084  0.8810 -1.1785  0.3664
   63MOL     H913773   5.106   1.069   8.163 -0.1892  0.8013 -0.3357
   63MOL    H1013774   4.789   1.068   0.197 -0.2411 -1.4488  0.5459
   63MOL    H1113775   4.958   1.048   0.383 -1.3083  0.6695 -0.2093
   63MOL    H1213776   4.872   1.089   8.213  0.5593 -1.3345 -0.3670
   63MOL    C1313777   5.267   0.827   0.650  0.5716  0.1899 -0.3661
   63MOL    C1413778   5.256   0.946   0.567  0.0347  0.4973 -0.1590
   63MOL    C1513779   5.245   0.928   0.424  0.7443 -0.2733  1.0892
   63MOL    C1613780   5.233   0.797   0.378 -0.1892 -0.0430 -0.1448
   63MOL    C1713781   5.252   0.685   0.463  1.4198  0.3106 -0.2935
   63MOL    C1813782   5.267   0.695   0.599  0.6373 -0.2301 -0.8319
   63MOL    O1913783   5.295   0.585   0.670 -0.1775  0.1553 -0.0909
   63MOL    H2013784   5.280   0.833   0.758  0.9068 -1.8950 -0.2582
   63MOL    H2113785   5.256   1.043   0.615 -0.7098  0.0483  0.7781
   63MOL    H2213786   5.216   0.770   0.275  1.8931 -0.6735 -0.3326
   63MOL    H2313787   5.237   0.590   0.414  1.1449  0.6090 -0.7991
   63MOL    C2413788   5.125   0.309   0.831 -0.2444 -0.0464 -0.1120
   63MOL    C2513789   5.223   0.398   0.784  0.1228  0.4921  0.0562
   63MOL    C2613790   5.186   0.506   0.700  0.3628  0.2495  0.4384
   63MOL    C2713791   5.054   0.521   0.660 -0.2638  0.6096 -0.4722
   63MOL    C2813792   4.960   0.422   0.697  0.1142  0.5106  0.8542
   63MOL    C2913793   4.991   0.321   0.786  0.7418 -0.1679 -0.1253
   63MOL    O3013794   4.904   0.213   0.804 -0.4825  0.2514 -0.2573
   63MOL    H3113795   5.163   0.229   0.893  0.4775 -0.6353 -1.2984
   63MOL    H3213796   5.326   0.387   0.814 -0.6848 -2.6373  1.9459
   63MOL    H3313797   5.025   0.602   0.595 -0.7504 -0.2930 -1.3784
   63MOL    H3413798   4.863   0.421   0.648  0.6312  0.1196 -0.1663
   63MOL    C3513799   4.975   8.128   0.671 -0.1402  0.1340 -0.3442
   63MOL    C3613800   4.961   8.234   0.765 -0.7096 -0.4405 -0.3719
   63MOL    C3713801   4.922   0.107   0.727 -0.2784  0.6885 -0.3026
   63MOL    C3813802   4.874   0.124   0.595  0.6933 -0.3630  0.0739
   63MOL    C3913803   4.884   0.027   0.498  0.1621  0.5622  0.2799
   63MOL    C4013804   4.940   8.157   0.540  0.0902 -0.1219 -0.2864
   63MOL    O4113805   4.968   8.063   0.444 -0.1758  0.1130 -0.4737
   63MOL    H4213806   5.004   8.029   0.704  0.2287  0.7642  1.2623
   63MOL    H4313807   4.994   8.212   0.866 -0.1701 -0.4495 -0.5455
   63MOL    H4413808   4.834   0.217   0.558  0.5620  0.3880  2.0282
   63MOL    H4513809   4.868   0.040   0.392 -0.2709 -1.4544  0.0779
   63MOL    C4613810   4.681   7.837   0.418  0.0105 -0.8373  0.5873
   63MOL    C4713811   4.757   7.957   0.415  0.4070 -0.6118 -0.6144
   63MOL    C4813812   4.895   7.949   0.450  0.3333 -0.3899  0.3110
   63MOL    C4913813   4.957   7.823   0.474 -0.1793  0.5933 -0.1622
   63MOL    C5013814   4.875   7.706   0.475 -0.0435  0.1436 -0.3674
   63MOL    C5113815   4.736   7.718   0.452 -0.4878  0.7125  0.0108
   63MOL    O5213816   4.662   7.603   0.454  0.0899  0.2184 -0.1790
   63MOL    H5313817   4.578   7.846   0.387  0.4680 -0.4125 -0.8440
   63MOL    H5413818   4.711   8.047   0.376  1.6657  0.3679  0.1192
   63MOL    H5513819   5.064   7.826   0.489 -0.1929  1.3595 -0.2072
   63MOL    H5613820   4.921   7.609   0.487  0.2904  0.4073  0.5086
   63MOL    C5713821   4.459   7.636   0.769  0.1304  0.3371 -0.2297
   63MOL    C5813822   4.558   7.658   0.672  0.0418 -0.3159 -0.5535
   63MOL    C5913823   4.568   7.590   0.550  0.4837  0.2817 -0.3879
   63MOL    C6013824   4.468   7.492   0.526 -0.3866  0.1916 -0.5584
   63MOL    C6113825   4.378   7.455   0.626 -0.2898  0.0197  0.5825
   63MOL    C6213826   4.375   7.526   0.744  0.2218 -0.8381  0.7668
   63MOL    O6313827   4.302   7.483   0.853  0.2735 -0.5107  0.4351
   63MOL    H6413828   4.460   7.688   0.864  1.2329 -0.8292  0.4073
   63MOL    H6513829   4.632   7.733   0.696  0.1700 -0.5794 -0.1153
   63MOL    H6613830   4.471   7.439   0.433  1.5861  0.3045 -0.5892
   63MOL    H6713831   4.312   7.372   0.605 -2.1744  1.5716  0.2535
   63MOL    C6813832   3.970   7.391   0.731  0.2324 -0.5402 -0.1960
   63MOL    C6913833   4.083   7.475   0.758  0.1397  0.0536 -0.5978
   63MOL    C7013834   4.190   7.412   0.828  0.0182 -0.0045 -0.1510
   63MOL    C7113835   4.179   7.277   0.878 -0.9750 -0.8069  0.5916
   63MOL    C7213836   4.066   7.206   0.858 -0.1416  0.1807  0.4131
   63MOL    C7313837   3.962   7.263   0.789  0.1084 -0.8478  0.2225
   63MOL    O7413838   3.849   7.194   0.761 -0.4760  0.2579  0.2028
   63MOL    H7513839   3.889   7.428   0.670  1.1754  1.5278 -0.2560
   63MOL    H7613840   4.094   7.569   0.706 -0.3795  0.8425  0.6789
   63MOL    H7713841   4.263   7.242   0.936  0.5248  2.9391  0.8609
   63MOL    H7813842   4.052   7.109   0.903  0.0027 -0.3941 -0.7608
   63MOL    C7913843   3.713   6.957   1.013 -0.0470 -0.0401 -0.2615
   63MOL    C8013844   3.783   7.005   0.896 -0.3416 -0.2699  0.6876
   63MOL    C8113845   3.781   7.145   0.871 -0.4035 -0.2444  0.0151
   63MOL    C8213846   3.713   7.230   0.953  0.5000 -0.2826  0.3312
   63MOL    C8313847   3.655   7.186   1.070  0.6017  0.0367  0.4850
   63MOL    C8413848   3.654   7.048   1.098  0.8057  0.3560 -0.2015
   63MOL    O8513849   3.598   6.996   1.214  0.8058  0.1548 -0.4501
   63MOL    H8613850   3.697   6.851   1.027 -0.9927 -0.0302 -1.1888
   63MOL    H8713851   3.838   6.943   0.826 -0.0922  2.8282 -2.0226
   63MOL    H8813852   3.719   7.336   0.929 -0.2913 -0.0686  1.0525
   63MOL    H8913853   3.595   7.252   1.130 -1.4451  0.0493 -1.5010
   63MOL    C9013854   3.234   6.975   1.114 -0.2229  0.1392 -0.0243
   63MOL    C9113855   3.372   6.967   1.099  0.4874 -0.4290  0.1334
   63MOL    C9213856   3.457   6.990   1.215 -0.3707  0.3876 -0.2425
   63MOL    C9313857   3.393   7.007   1.337  0.6963  0.1159 -0.1606
   63MOL    C9413858   3.252   6.993   1.351 -0.5353  0.1351 -0.3809
   63MOL    C9513859   3.174   6.972   1.239 -0.2422 -0.1374 -0.1309
   63MOL    O9613860   3.038   6.946   1.244  0.3387 -0.3108  0.9188
   63MOL    H9713861   3.169   6.966   1.028  0.8278 -0.8741 -0.7197
   63MOL    H9813862   3.419   6.948   1.003  2.4860 -0.2544  1.0380
   63MOL    H9913863   3.457   7.041   1.418  0.3240  0.3796  0.0261
   63MOL   H10013864   3.205   7.002   1.448  1.8231 -3.4990  1.2176
   63MOL   C10113865   2.772   6.963   1.495  0.8875 -0.3619  0.6052
   63MOL   C10213866   2.869   6.915   1.409  0.9617 -0.0943  0.3551
   63MOL   C10313867   2.964   6.999   1.344 -0.4982  0.6489  0.0809
   63MOL   C10413868   2.962   7.137   1.370 -0.4850 -0.2593 -0.8343
   63MOL   C10513869   2.856   7.186   1.450  0.7547 -0.0290  0.1388
   63MOL   C10613870   2.757   7.102   1.508  0.3990  0.4259  0.1444
   63MOL   O10713871   2.648   7.146   1.572  0.0435  0.1694 -0.0469
   63MOL   H10813872   2.701   6.892   1.535  0.5489  0.7115  1.9496
   63MOL   H10913873   2.892   6.811   1.394 -1.0761 -0.3148 -1.7053
   63MOL   H11013874   3.031   7.205   1.321 -0.1074  0.2220  0.3369
   63MOL   H11113875   2.857   7.293   1.462 -1.4523  0.2005 -1.3281
   63MOL   C11213876   2.634   7.065   1.930 -0.2471  0.0103 -0.2128
   63MOL   C11313877   2.635   7.048   1.789 -0.2266  0.1274 -0.4336
   63MOL   C11413878   2.662   7.159   1.707 -0.0591 -0.1806 -0.3458
   63MOL   C11513879   2.690   7.288   1.764  0.5679  0.0410 -0.3474
   63MOL   C11613880   2.681   7.306   1.905  0.4979  0.0456 -0.0099
   63MOL   C11713881   2.657   7.194   1.986 -0.4501  0.6886 -0.1031
   63MOL   O11813882   2.661   7.196   2.121 -0.6131 -0.1460 -0.3550
   63MOL   H11913883   2.620   6.971   1.982 -0.0290  0.6061  0.9213
   63MOL   H12013884   2.597   6.954   1.751  0.8573  0.2636 -1.8945
   63MOL   H12113885   2.705   7.366   1.690  0.1032 -0.3303 -0.8379
   63MOL   H12213886   2.710   7.396   1.958 -0.7596  0.1959  0.4379
   63MOL   C12313887   2.935   7.388   2.281  0.3433  0.3808  0.3330
   63MOL   C12413888   2.877   7.304   2.183  0.7169 -0.5750 -0.7618
   63MOL   C12513889   2.736   7.294   2.186  0.2891 -0.2241 -0.5618
   63MOL   C12613890   2.656   7.375   2.265 -0.3486 -0.2360  0.2074
   63MOL   C12713891   2.718   7.451   2.368  0.0254 -0.3722 -0.6074
   63MOL   C12813892   2.859   7.458   2.371  0.0735 -1.1893 -0.0927
   63MOL   O12913893   2.931   7.533   2.463 -0.5719 -0.3151 -0.2245
   63MOL   H13013894   3.043   7.394   2.279  0.3033  1.2079  0.7785
   63MOL   H13113895   2.931   7.240   2.115 -1.8116 -1.1757 -2.2638
   63MOL   H13213896   2.548   7.381   2.261 -0.3835 -0.5917  0.5874
   63MOL   H13313897   2.656   7.511   2.433  0.2874  0.3736 -1.0327
   63MOL   C13413898   3.022   7.582   2.820 -0.7954 -0.2497 -0.8660
   63MOL   C13513899   3.013   7.594   2.680 -0.0573 -0.0734 -0.1225
   63MOL   C13613900   2.939   7.503   2.597 -0.6086 -0.5371 -0.5434
   63MOL   C13713901   2.871   7.397   2.662  0.0951 -0.6504 -0.0515
   63MOL   C13813902   2.894   7.376   2.800 -0.7288 -0.9036 -0.1514
   63MOL   C13913903   2.961   7.471   2.875 -0.1879 -0.6704 -0.0872
   63MOL   O14013904   2.965   7.461   3.016  0.4906  0.0844 -0.4541
   63MOL   H14113905   3.079   7.656   2.874 -1.5955  0.9051 -1.5780
   63MOL   H14213906   3.072   7.671   2.634  0.6174 -0.2588  0.4335
   63MOL   H14313907   2.824   7.325   2.597  0.6215  1.5017 -2.9302
   63MOL   H14413908   2.864   7.288   2.854  0.8523 -1.0864  0.4351
   63MOL   C14513909   3.289   7.289   3.073 -0.1576  0.3838 -0.5976
   63MOL   C14613910   3.190   7.367   3.015 -0.1924 -0.1923  0.4186
   63MOL   C14713911   3.062   7.382   3.072 -0.1482  0.2428  0.8879
   63MOL   C14813912   3.029   7.308   3.187 -0.2914 -0.2475 -0.9701
   63MOL   C14913913   3.127   7.224   3.243  0.3866 -0.3687 -0.3627
   63MOL   C15013914   3.255   7.212   3.188 -0.1306 -0.5555  0.3083
   63MOL   O15113915   3.338   7.130   3.256  0.8028  0.3724 -0.2767
   63MOL   H15213916   3.384   7.281   3.023  1.4876  0.9058  2.3394
   63MOL   H15313917   3.210   7.424   2.926  0.0511  0.2281  0.7461
   63MOL   H15413918   2.933   7.316   3.235  0.2899 -0.5394  0.2623
   63MOL   H15513919   3.096   7.170   3.331 -0.3394  1.1146  0.3285
   63MOL   C15613920   3.658   7.067   3.102  0.4115 -0.3946 -0.4455
   63MOL   C15713921   3.558   7.128   3.173  0.3747  0.3133 -0.5850
   63MOL   C15813922   3.433   7.065   3.184  0.3797 -0.0490 -0.0297
   63MOL   C15913923   3.407   6.943   3.123 -0.7758  0.6787  0.8334
   63MOL   C16013924   3.506   6.886   3.039  0.1691 -1.1116  0.0870
   63MOL   C16113925   3.632   6.943   3.036  0.2240  0.0156 -0.4174
   63MOL   O16213926   3.729   6.879   2.972 -0.2045  0.1710 -0.3135
   63MOL   H16313927   3.758   7.107   3.112 -0.4864  1.8123  0.1356
   63MOL   H16413928   3.582   7.218   3.227 -0.5158  1.2474 -1.7447
   63MOL   H16513929   3.315   6.887   3.135 -1.5761  1.6824 -0.4199
   63MOL   H16613930   3.491   6.794   2.984  0.7910 -0.4892 -1.1549
   63MOL   C16713931   3.922   6.692   3.233  0.5273  0.0737 -0.1818
   63MOL   C16813932   3.813   6.730   3.147 -0.1098  0.1470 -0.3312
   63MOL   C16913933   3.833   6.824   3.048 -0.7077 -0.5805 -0.4840
   63MOL   C17013934   3.961   6.877   3.027  0.7395 -0.3967 -0.3735
   63MOL   C17113935   4.071   6.846   3.111 -0.2487 -0.0336 -0.6156
   63MOL   C17213936   4.047   6.760   3.220 -0.3008  0.9905 -0.1366
   63MOL   O17313937   4.149   6.742   3.311 -0.0181 -0.6374  0.0090
   63MOL   H17413938   3.899   6.614   3.305  1.8141  0.5899  0.8151
   63MOL   H17513939   3.714   6.688   3.157  0.4019 -1.7475 -2.5892
   63MOL   H17613940   3.987   6.943   2.945 -1.2583 -0.0779 -0.7803
   63MOL   H17713941   4.169   6.887   3.093 -0.5959  0.3957 -1.5754
   63MOL   C17813942   4.329   6.423   3.248 -0.1675 -0.1526 -0.8481
   63MOL   C17913943   4.267   6.548   3.221 -0.1970 -0.5614  0.1877
   63MOL   C18013944   4.209   6.620   3.326  0.6933 -0.0271  0.4045
   63MOL   C18113945   4.212   6.565   3.458  0.0903  0.0680  0.8306
   63MOL   C18213946   4.269   6.443   3.483 -0.9504 -0.2158  0.2967
   63MOL   C18313947   4.329   6.374   3.378 -0.2088 -1.1041 -0.2349
   63MOL   O18413948   4.406   6.262   3.408 -0.3351  0.2352  0.6017
   63MOL   H18513949   4.368   6.361   3.168 -1.4677 -2.0742 -0.0468
   63MOL   H18613950   4.268   6.584   3.119  0.5063 -0.6756  0.1490
   63MOL   H18713951   4.164   6.622   3.536 -0.5760  0.4781  0.1264
   63MOL   H18813952   4.285   6.406   3.584 -1.3250 -0.3857  0.2920
   63MOL   C18913953   4.546   5.996   3.200  0.1155  0.2417  0.2728
   63MOL   C19013954   4.536   6.100   3.288  0.1863 -0.8377 -0.1837
   63MOL   C19113955   4.407   6.160   3.320  0.0117 -0.2369 -0.1198
   63MOL   C19213956   4.289   6.107   3.255  0.4043 -0.0466 -0.1694
   63MOL   C19313957   4.301   5.997   3.165 -0.2040 -0.2435 -0.0676
   63MOL   C19413958   4.427   5.949   3.135  0.0591 -0.7774  0.5046
   63MOL   O19513959   4.435   5.843   3.051 -0.3270 -0.3008 -0.3817
   63MOL   H19613960   4.642   5.961   3.165 -1.0612 -1.0869 -1.7594
   63MOL   H19713961   4.620   6.144   3.340 -1.3069  3.1508 -0.9830
   63MOL   H19813962   4.194   6.153   3.277  0.6299  0.9580 -1.3056
   63MOL   H19913963   4.207   5.968   3.120 -1.6281  0.3062  2.4215
   63MOL   C20013964   4.431   5.936   2.694  0.8072 -0.4073 -0.3004
   63MOL   C20113965   4.386   5.903   2.827  0.4575  0.0836 -0.0410
   63MOL   C20213966   4.484   5.870   2.926  0.6060 -0.2959 -0.0291
   63MOL   C20313967   4.621   5.863   2.900  0.4001  0.1258  0.5132
   63MOL   C20413968   4.666   5.904   2.775  0.1010 -0.0561 -0.1772
   63MOL   C20513969   4.573   5.938   2.674  0.2030 -0.7644  0.0994
   63MOL   O20613970   4.611   5.981   2.550 -0.3049  0.1233 -0.1841
   63MOL   H20713971   4.372   5.959   2.606  1.2453  0.0052 -0.4895
   63MOL   H20813972   4.280   5.907   2.846  0.4915  2.7425 -0.2571
   63MOL   H20913973   4.690   5.845   2.982 -1.6573 -0.4365  2.1575
   63MOL   H21013974   4.774   5.909   2.769  0.2916 -0.3555  2.3501
   63MOL   C21113975   4.968   6.048   2.471  0.0072  0.4941  0.6731
   63MOL   C21213976   4.844   5.980   2.483  0.5860 -0.1994 -0.4073
   63MOL   C21313977   4.731   6.046   2.534 -0.0978 -0.0802 -0.8522
   63MOL   C21413978   4.746   6.184   2.568  0.6448  0.3959  0.9217
   63MOL   C21513979   4.870   6.252   2.551 -0.6146 -0.2828  0.1082
   63MOL   C21613980   4.981   6.184   2.498 -0.1056 -0.1466  0.0063
   63MOL   O21713981   5.098   6.249   2.466 -0.6085 -0.1126  0.3818
   63MOL   H21813982   5.048   5.985   2.434 -2.0244 -0.1785 -2.8196
   63MOL   H21913983   4.829   5.875   2.461 -0.4621  0.6022 -3.7826
   63MOL   H22013984   4.659   6.225   2.616 -0.3709 -1.1529  0.4468
   63MOL   H22113985   4.888   6.357   2.569 -1.9225  0.1048 -0.7750
   63MOL   H22213986   5.154   6.200   2.408 -1.1444 -2.0950  1.5211
   64MOL     C113987   4.697   7.826   6.387 -0.0447 -0.0811 -0.3250
   64MOL     C213988   4.834   7.809   6.359  0.7887 -0.2064  0.0041
   64MOL     C313989   4.929   7.834   6.466  0.0443 -0.2519 -0.1158
   64MOL     C413990   4.886   7.896   6.586  0.4860  0.4172 -0.5928
   64MOL     C513991   4.747   7.903   6.618  0.0487  0.1103  0.1317
   64MOL     C613992   4.651   7.875   6.518 -0.0458  0.7725  0.6097
   64MOL     O713993   4.515   7.867   6.545 -0.3439  0.1436 -0.1780
   64MOL     H813994   4.621   7.810   6.312  0.3245 -0.6024 -0.5840
   64MOL     H913995   4.875   7.790   6.261  2.6902  0.1663  0.6992
   64MOL    H1013996   4.949   7.923   6.670  1.5592  2.8813 -2.1150
   64MOL    H1113997   4.717   7.935   6.716  3.8946  0.1657  1.3737
   64MOL    H1213998   5.036   7.822   6.454  0.0698 -1.1888  1.0133
   64MOL    C1313999   4.280   8.062   6.342  0.7392 -0.0553 -0.0104
   64MOL    C1414000   4.347   7.947   6.404  0.3657 -0.4712  0.8373
   64MOL    C1514001   4.437   7.968   6.509  0.7399 -0.4997  0.3171
   64MOL    C1614002   4.448   8.097   6.564  0.5690 -0.4046  0.0708
   64MOL    C1714003   4.361   8.202   6.520  0.1512  0.6474 -0.5651
   64MOL    C1814004   4.282   8.190   6.410 -0.0345  0.4089  0.1764
   64MOL    O1914005   4.221   0.046   6.358  0.2073 -0.4795 -0.3838
   64MOL    H2014006   4.227   8.059   6.248  0.3089 -1.4966  0.2641
   64MOL    H2114007   4.339   7.847   6.364 -1.6334 -0.4827  1.2333
   64MOL    H2214008   4.501   8.107   6.658 -1.7040  0.4034  1.3150
   64MOL    H2314009   4.367   0.042   6.572 -2.3619 -0.4444  1.8450
   64MOL    C2414010   4.456   0.160   6.106 -1.1832 -0.0260 -0.6933
   64MOL    C2514011   4.349   0.086   6.158  0.2077  0.2067  0.4597
   64MOL    C2614012   4.300   0.123   6.285 -0.3828  0.7859  0.1744
   64MOL    C2714013   4.350   0.238   6.347  0.3178 -0.0531  0.6473
   64MOL    C2814014   4.464   0.308   6.304  0.0744 -0.3507 -0.2240
   64MOL    C2914015   4.522   0.264   6.182  0.2762  0.2007 -0.1864
   64MOL    O3014016   4.630   0.326   6.134  0.0035  0.0610  0.0065
   64MOL    H3114017   4.493   0.129   6.009  1.9515 -0.8832  0.7004
   64MOL    H3214018   4.320   8.249   6.109  1.0018 -1.2847  2.6625
   64MOL    H3314019   4.303   0.264   6.440  0.3513  1.3898  0.2718
   64MOL    H3414020   4.499   0.393   6.361 -0.0652 -1.1535  1.0958
   64MOL    C3514021   4.568   0.420   5.778  0.0756  0.3756  0.9191
   64MOL    C3614022   4.614   0.347   5.889  0.4248 -0.0497  0.2498
   64MOL    C3714023   4.599   0.399   6.020  0.0272 -0.0364 -0.5269
   64MOL    C3814024   4.543   0.532   6.043 -0.9551  0.0538 -0.0549
   64MOL    C3914025   4.485   0.596   5.934 -0.8628  0.6711 -0.0105
   64MOL    C4014026   4.493   0.540   5.800  0.0914 -0.3294 -0.1090
   64MOL    O4114027   4.428   0.600   5.696  0.2596 -0.0313  0.2234
   64MOL    H4214028   4.577   0.373   5.681  0.0437 -0.0138  1.1039
   64MOL    H4314029   4.644   0.245   5.873 -1.9178 -0.6563 -0.4850
   64MOL    H4414030   4.536   0.572   6.143 -1.7904 -2.3394  0.8928
   64MOL    H4514031   4.426   0.686   5.946 -1.6550  0.5132 -2.4375
   64MOL    C4614032   4.089   0.478   5.605 -0.1973  0.0598  0.2333
   64MOL    C4714033   4.195   0.530   5.679 -1.0402 -0.5294 -0.0226
   64MOL    C4814034   4.328   0.532   5.628 -0.2709  0.2109 -0.4569
   64MOL    C4914035   4.356   0.451   5.516 -0.2021 -0.3480  0.0414
   64MOL    C5014036   4.258   0.386   5.447 -0.7466  0.4952  0.0930
   64MOL    C5114037   4.126   0.409   5.485  0.3907  0.3232 -0.5330
   64MOL    O5214038   4.034   0.362   5.395  0.1592  0.3053  1.1214
   64MOL    H5314039   3.985   0.486   5.635  0.4916  1.0800  2.5014
   64MOL    H5414040   4.178   0.581   5.773  2.4388 -2.3963  1.7167
   64MOL    H5514041   4.451   0.469   5.468  0.8774  1.6191  2.7696
   64MOL    H5614042   4.281   0.334   5.355  0.0073  1.2255 -0.1379
   64MOL    C5714043   3.842   0.115   5.591 -0.3572 -0.1266 -0.6275
   64MOL    C5814044   3.956   0.186   5.539 -0.3143  0.3985  0.5079
   64MOL    C5914045   3.928   0.281   5.441  0.3560 -0.2079 -0.3807
   64MOL    C6014046   3.800   0.297   5.387  0.3022  0.7686  0.4894
   64MOL    C6114047   3.690   0.222   5.434  0.0765 -0.3391 -1.1001
   64MOL    C6214048   3.715   0.129   5.536 -0.0058  0.3991 -0.0983
   64MOL    O6314049   3.615   0.046   5.581 -0.9857 -0.3017  0.1997
   64MOL    H6414050   3.851   0.035   5.662  0.4311  0.8713  0.4266
   64MOL    H6514051   4.053   0.173   5.583 -0.7544 -2.7683  0.6917
   64MOL    H6614052   3.780   0.374   5.313  0.3188  0.4153  0.1152
   64MOL    H6714053   3.592   0.242   5.393 -1.4708  0.1778  2.6725
   64MOL    C6814054   3.435   8.166   5.279 -0.5352 -0.5119 -0.1916
   64MOL    C6914055   3.542   8.205   5.360 -0.6372 -0.9736  0.2205
   64MOL    C7014056   3.519   8.253   5.493  0.2477  0.6958  0.5000
   64MOL    C7114057   3.392   8.244   5.543  0.9655  0.2333 -0.5728
   64MOL    C7214058   3.281   8.201   5.466  0.8011 -0.5780 -0.0948
   64MOL    C7314059   3.307   8.167   5.335 -0.0159  0.1580  0.0280
   64MOL    O7414060   3.201   8.119   5.256 -0.0781 -0.2606  0.0805
   64MOL    H7514061   3.453   8.149   5.174  3.9389  0.4668  0.3244
   64MOL    H7614062   3.643   8.219   5.326 -0.2178 -1.8523  1.0707
   64MOL    H7714063   3.358   0.019   5.642  2.4613 -0.1671  0.0755
   64MOL    H7814064   3.180   8.195   5.505  0.1789  1.1105 -1.4104
   64MOL    C7914065   3.066   0.090   4.991  0.3773 -0.1545 -0.0484
   64MOL    C8014066   3.150   0.000   5.060 -0.6991  0.1167  0.2680
   64MOL    C8114067   3.118   8.211   5.189  0.3429  0.3380  0.4574
   64MOL    C8214068   3.013   0.015   5.258 -0.4360  0.5607 -0.7808
   64MOL    C8314069   2.935   0.115   5.197  0.7654  0.1604  0.0621
   64MOL    C8414070   2.958   0.146   5.063 -0.7424 -0.2011  0.0144
   64MOL    O8514071   2.891   0.250   5.002  0.9730  0.0439  0.2511
   64MOL    H8614072   3.093   0.124   4.893  0.0655  1.7666  0.5140
   64MOL    H8714073   3.238   8.209   5.019 -0.4855  0.1512  0.6826
   64MOL    H8814074   2.985   8.235   5.357 -1.6953  0.8833 -1.0196
   64MOL    H8914075   2.839   0.142   5.237  0.8573  0.3471  0.1580
   64MOL    C9014076   2.881   0.552   5.208  0.0966 -0.3141 -0.2115
   64MOL    C9114077   2.933   0.440   5.148 -0.1989  0.0716  0.5607
   64MOL    C9214078   2.845   0.358   5.074  0.3836 -0.5242 -0.1188
   64MOL    C9314079   2.713   0.390   5.075 -0.2619  0.4163  0.7314
   64MOL    C9414080   2.662   0.504   5.136  0.0518 -0.3925 -0.4632
   64MOL    C9514081   2.750   0.588   5.208  0.2624 -0.4659 -0.1155
   64MOL    O9614082   2.717   0.703   5.272  0.0134  0.5725 -0.2582
   64MOL    H9714083   2.937   0.625   5.263  0.2902 -0.2261 -0.5241
   64MOL    H9814084   3.038   0.428   5.171 -0.4015  0.5343  1.7751
   64MOL    H9914085   2.643   0.328   5.020 -2.4187  1.3548  2.3553
   64MOL   H10014086   2.559   0.531   5.120  0.3280  1.0503  0.1256
   64MOL   C10114087   2.728   0.961   5.012 -0.5109 -0.4176  0.3021
   64MOL   C10214088   2.772   0.866   5.105  0.6559  1.6317  0.0249
   64MOL   C10314089   2.679   0.803   5.185 -0.3046 -0.0462 -0.4847
   64MOL   C10414090   2.542   0.843   5.182  0.2540  0.5499 -0.0789
   64MOL   C10514091   2.501   0.935   5.083  0.5235 -0.4250 -0.5292
   64MOL   C10614092   2.596   0.989   4.995  0.0011  0.4771  0.1791
   64MOL   O10714093   2.547   1.074   4.899 -0.1879  0.0485  0.2106
   64MOL   H10814094   2.805   1.017   4.961 -1.7135  0.9606 -0.0104
   64MOL   H10914095   2.877   0.847   5.119  0.4990 -0.5301 -1.4106
   64MOL   H11014096   2.476   0.800   5.256  1.1091  0.4313  0.6099
   64MOL   H11114097   2.397   0.946   5.058  0.9069  0.6741 -1.6756
   64MOL   C11214098   2.483   1.057   4.541  0.6953 -0.6361 -0.6335
   64MOL   C11314099   2.506   1.108   4.671  0.1563  0.4106 -0.7222
   64MOL   C11414100   2.513   1.019   4.782 -0.0481  0.4560 -0.5335
   64MOL   C11514101   2.503   0.882   4.757 -0.3082 -0.0064 -0.0847
   64MOL   C11614102   2.485   0.832   4.625  0.7257  0.8202  0.7106
   64MOL   C11714103   2.477   0.921   4.517  0.0797  0.1728  0.3567
   64MOL   O11814104   2.458   0.873   4.386  0.2838 -0.4919 -0.0384
   64MOL   H11914105   2.473   1.130   4.463  1.2177 -0.6108 -0.6742
   64MOL   H12014106   2.522   1.214   4.683  2.7962  0.0065 -0.3535
   64MOL   H12114107   2.520   0.811   4.836  0.5312  2.1005  1.6689
   64MOL   H12214108   2.499   0.725   4.619 -0.4954  0.5948  1.6346
   64MOL   C12314109   2.516   0.531   4.287  0.9965 -0.2121 -0.2499
   64MOL   C12414110   2.537   0.667   4.310  0.2183 -0.1356  0.2532
   64MOL   C12514111   2.429   0.740   4.366  0.6865 -0.0207 -0.1408
   64MOL   C12614112   2.306   0.679   4.410 -0.2662  0.4951 -0.1782
   64MOL   C12714113   2.290   0.539   4.388 -0.0647  0.4443 -0.5157
   64MOL   C12814114   2.397   0.468   4.326  0.1630  0.1467 -0.9679
   64MOL   O12914115   2.377   0.339   4.301 -0.3784 -0.2349  0.0955
   64MOL   H13014116   2.598   0.468   4.253  2.0761  0.2473  1.4283
   64MOL   H13114117   2.632   0.714   4.289  0.4364 -0.9859 -0.7016
   64MOL   H13214118   2.231   0.743   4.455 -0.7685  0.3749 -0.8306
   64MOL   H13314119   2.210   0.483   4.434 -0.7573  2.2304  0.5125
   64MOL   C13414120   2.161   0.319   4.004 -0.1305 -0.3306 -0.5754
   64MOL   C13514121   2.233   0.375   4.114  0.4429 -1.0414 -0.0931
   64MOL   C13614122   2.327   0.297   4.183 -0.2270  0.4048  0.7303
   64MOL   C13714123   2.357   0.170   4.138  0.7583  0.2012  0.8209
   64MOL   C13814124   2.282   0.106   4.034 -0.0163  0.3004 -0.5954
   64MOL   C13914125   2.189   0.184   3.966  0.1279  0.3117  0.8637
   64MOL   O14014126   2.120   0.137   3.854  0.0372  0.4935 -0.2788
   64MOL   H14114127   2.096   0.385   3.950  0.2577  0.3465 -0.2186
   64MOL   H14214128   2.199   0.464   4.164  0.5114  0.7507 -3.0648
   64MOL   H14314129   2.421   0.105   4.195 -0.3112 -2.0176 -0.4268
   64MOL   H14414130   2.290   0.001   4.014  1.9813  0.8658 -3.0398
   64MOL   C14514131   2.067   8.048   3.742  0.4149  0.2788 -0.0195
   64MOL   C14614132   2.118   8.182   3.755 -0.4711 -0.2542 -0.1697
   64MOL   C14714133   2.071   0.012   3.856  0.2116 -0.5083 -0.1519
   64MOL   C14814134   1.977   8.218   3.943 -0.1623  0.4099 -0.7530
   64MOL   C14914135   1.931   8.084   3.931  0.1700 -0.1883 -0.0964
   64MOL   C15014136   1.983   7.993   3.839  0.1875 -0.3730 -0.6271
   64MOL   O15114137   1.952   7.861   3.840  0.5282 -0.5041  0.1419
   64MOL   H15214138   2.125   8.004   3.662 -0.1255  0.3781 -0.4650
   64MOL   H15314139   2.187   8.222   3.683  1.6575  1.6891  2.8183
   64MOL   H15414140   1.936   0.013   4.030  0.9330 -0.4951  0.2979
   64MOL   H15514141   1.856   8.053   4.002  0.9204  0.8431  1.1579
   64MOL   C15614142   1.717   7.776   4.110 -0.2055  0.0788 -0.5422
   64MOL   C15714143   1.763   7.833   3.988  0.5735 -0.3500 -0.3451
   64MOL   C15814144   1.896   7.801   3.947  0.3545  0.2918 -0.6260
   64MOL   C15914145   1.972   7.703   4.016 -0.2154 -0.2757  0.3879
   64MOL   C16014146   1.914   7.637   4.124  0.4270  0.4724  0.5713
   64MOL   C16114147   1.790   7.680   4.174 -0.7231  0.3034  0.0182
   64MOL   O16214148   1.740   7.636   4.300 -0.9391  0.2032 -0.3138
   64MOL   H16314149   1.622   7.805   4.151  0.2660 -0.4671  0.9816
   64MOL   H16414150   1.707   7.906   3.932  1.3174  1.0070  0.6378
   64MOL   H16514151   2.071   7.686   3.978  0.2630 -0.8005  1.8273
   64MOL   H16614152   1.968   7.558   4.174  1.5256  0.4043 -0.6923
   64MOL   C16714153   1.412   7.482   4.373 -0.1272 -0.3453  0.5037
   64MOL   C16814154   1.518   7.579   4.364 -0.0682 -0.6457  0.0669
   64MOL   C16914155   1.635   7.552   4.292  0.3234  0.1172  0.1341
   64MOL   C17014156   1.639   7.436   4.210  0.5792 -1.0154  0.3049
   64MOL   C17114157   1.525   7.348   4.202 -0.2691 -0.1630 -0.4668
   64MOL   C17214158   1.419   7.367   4.292 -0.7124 -0.1621 -0.2728
   64MOL   O17314159   1.323   7.272   4.302 -0.4385 -0.0170  0.6990
   64MOL   H17414160   1.332   7.508   4.441  1.1998  0.4707  1.8090
   64MOL   H17514161   1.519   7.662   4.433  2.2361 -0.4446 -0.1477
   64MOL   H17614162   1.724   7.415   4.147  0.6688 -1.6888  0.6416
   64MOL   H17714163   1.532   7.261   4.137  2.5127  0.4017 -0.9757
   64MOL   C17814164   1.406   6.982   4.509 -0.5634  0.8464  0.7240
   64MOL   C17914165   1.405   7.067   4.402 -0.5822  0.1404 -0.2812
   64MOL   C18014166   1.328   7.185   4.410 -0.0840 -0.2327  0.5312
   64MOL   C18114167   1.253   7.213   4.530 -0.2228  0.3316  0.2612
   64MOL   C18214168   1.245   7.114   4.633 -0.8691  0.3654 -0.3274
   64MOL   C18314169   1.326   7.000   4.625  0.3858  0.3240  0.3286
   64MOL   O18414170   1.319   6.920   4.733 -0.1124 -0.3587  0.6497
   64MOL   H18514171   1.467   6.895   4.488 -0.3437  0.5309  2.6230
   64MOL   H18614172   1.460   7.049   4.311 -0.3394  2.8584 -0.7401
   64MOL   H18714173   1.207   7.311   4.528 -1.8660 -0.4269 -0.8755
   64MOL   H18814174   1.185   7.126   4.723 -1.8428  0.3012 -0.9577
   64MOL   C18914175   1.596   6.693   4.817 -0.1901 -0.1919 -0.8431
   64MOL   C19014176   1.510   6.803   4.827  0.2710  0.5753 -0.5368
   64MOL   C19114177   1.404   6.814   4.735 -0.2578 -0.1426 -0.6361
   64MOL   C19214178   1.379   6.707   4.649  0.4687  0.0446  0.4763
   64MOL   C19314179   1.457   6.595   4.643 -0.2789 -1.0392 -0.0859
   64MOL   C19414180   1.571   6.588   4.724  0.7096 -0.3640 -0.9702
   64MOL   O19514181   1.644   6.470   4.724 -0.1268  0.1712 -0.5084
   64MOL   H19614182   1.676   6.677   4.888 -0.5694 -1.4156 -0.6847
   64MOL   H19714183   1.529   6.874   4.907  0.9852 -1.0917  0.7981
   64MOL   H19814184   1.295   6.721   4.582  0.4974  1.4436  0.7108
   64MOL   H19914185   1.430   6.513   4.580  1.5810 -2.9456  1.5306
   64MOL   C20014186   1.553   6.271   5.020 -0.6317 -0.4296 -0.0267
   64MOL   C20114187   1.548   6.365   4.917  0.4393 -0.3308  0.3884
   64MOL   C20214188   1.655   6.395   4.838 -0.0174  0.4933 -0.0047
   64MOL   C20314189   1.779   6.321   4.862 -0.3161  0.1054  0.1248
   64MOL   C20414190   1.789   6.228   4.964  0.4786 -0.2594  0.0471
   64MOL   C20514191   1.674   6.202   5.038 -0.0421  0.6187 -0.6056
   64MOL   O20614192   1.677   6.096   5.130  0.0243  0.4323 -0.1853
   64MOL   H20714193   1.478   6.268   5.098 -0.2531 -0.2480  0.3471
   64MOL   H20814194   1.452   6.411   4.900 -0.5384 -2.9188 -1.5051
   64MOL   H20914195   1.866   6.341   4.802 -3.1471  2.0767 -3.5345
   64MOL   H21014196   1.878   6.170   4.983 -0.2110 -1.3375  0.0469
   64MOL   C21114197   1.740   5.777   4.942 -0.1406 -0.0358  1.1098
   64MOL   C21214198   1.706   5.916   4.960  0.2590 -0.1512  0.1766
   64MOL   C21314199   1.711   5.969   5.090 -0.3087  0.2970  0.8870
   64MOL   C21414200   1.768   5.887   5.194  0.0791  0.7613  0.0443
   64MOL   C21514201   1.809   5.754   5.170  0.3983 -0.4799  0.3719
   64MOL   C21614202   1.789   5.695   5.046  0.0459 -0.3484 -0.0998
   64MOL   O21714203   1.814   5.564   5.030 -0.3725 -0.5544 -0.5364
   64MOL   H21814204   1.710   5.741   4.844 -0.2329  0.2034  1.0494
   64MOL   H21914205   1.669   5.975   4.878  1.6499  0.8040  0.2257
   64MOL   H22014206   1.774   5.926   5.294 -1.0219 -0.7289  0.7170
   64MOL   H22114207   1.851   5.694   5.249  2.0631  2.3864  1.7430
   64MOL   H22214208   1.763   5.519   4.964  2.2718 -0.5997 -2.6568
   65MOL     C114209   1.546   5.283   4.308  0.0437 -0.5988  0.4695
   65MOL     C214210   1.550   5.281   4.447  0.2343 -0.0355  0.0737
   65MOL     C314211   1.643   5.199   4.522 -0.1302  0.1454 -0.1693
   65MOL     C414212   1.737   5.124   4.448  0.3549 -0.0339  0.4625
   65MOL     C514213   1.743   5.130   4.308 -0.3912 -0.1090 -0.0580
   65MOL     C614214   1.644   5.208   4.239 -0.2231 -0.4083  0.3032
   65MOL     O714215   1.652   5.213   4.099 -0.0828 -0.1879  0.0889
   65MOL     H814216   1.469   5.336   4.254  0.3020 -0.5877  0.1112
   65MOL     H914217   1.476   5.338   4.503  1.2156  0.4086  0.9443
   65MOL    H1014218   1.795   5.050   4.502  0.4729 -0.8458 -0.7466
   65MOL    H1114219   1.820   5.072   4.259  1.8944  0.3091  2.8880
   65MOL    H1214220   1.637   5.192   4.630  0.3585 -0.7048 -0.1938
   65MOL    C1314221   1.923   5.277   3.851 -0.3927 -0.2823 -0.2028
   65MOL    C1414222   1.826   5.207   3.928  0.3649 -0.5413  0.2963
   65MOL    C1514223   1.761   5.277   4.038  0.5213 -0.0039  0.0533
   65MOL    C1614224   1.812   5.403   4.078  0.0609  0.0572  0.0627
   65MOL    C1714225   1.915   5.460   4.007 -0.3238  0.2006 -0.0077
   65MOL    C1814226   1.979   5.397   3.897  0.0602  0.3390 -0.1353
   65MOL    O1914227   2.075   5.455   3.822 -0.6310  0.4851 -0.1446
   65MOL    H2014228   1.958   5.219   3.767 -2.3305 -2.7871  0.6765
   65MOL    H2114229   1.796   5.107   3.901  0.3706 -0.3451 -0.4482
   65MOL    H2214230   1.769   5.442   4.168 -0.2792 -2.6529  1.1383
   65MOL    H2314231   1.949   5.562   4.023  2.3169 -0.7211  0.6047
   65MOL    C2414232   1.928   5.739   3.641  0.6154 -0.0081  0.0988
   65MOL    C2514233   1.934   5.614   3.702  0.3533 -0.0603 -0.0012
   65MOL    C2614234   2.059   5.575   3.757  0.0492 -0.3756 -0.0063
   65MOL    C2714235   2.175   5.655   3.740  0.7101  0.3148  0.3770
   65MOL    C2814236   2.167   5.775   3.669 -0.6887 -0.2679  0.0295
   65MOL    C2914237   2.042   5.826   3.618  0.0715 -0.7408 -0.5352
   65MOL    O3014238   2.032   5.944   3.541 -0.7605 -0.2418  0.3386
   65MOL    H3114239   1.833   5.767   3.598 -0.9210 -3.4382  1.0309
   65MOL    H3214240   1.840   5.561   3.707  0.6961 -0.8121 -1.2627
   65MOL    H3314241   2.269   5.618   3.778  1.2690 -1.2655 -2.3958
   65MOL    H3414242   2.264   5.821   3.651 -0.7384  0.1859  0.8702
   65MOL    C3514243   2.194   6.092   3.245 -0.1916 -0.6725  0.6017
   65MOL    C3614244   2.125   6.073   3.368 -0.2724 -0.4993  0.6134
   65MOL    C3714245   2.092   5.947   3.417  0.6728 -0.6270 -0.6488
   65MOL    C3814246   2.114   5.834   3.339 -0.4194  0.1936 -0.3941
   65MOL    C3914247   2.170   5.845   3.214 -0.7603  0.5046 -0.2169
   65MOL    C4014248   2.207   5.974   3.165  0.4154 -0.3497 -0.2769
   65MOL    O4114249   2.253   5.984   3.042  0.1668  0.4059  0.0155
   65MOL    H4214250   2.213   6.190   3.203 -2.0549  0.0971  1.4997
   65MOL    H4314251   2.125   6.154   3.438  1.0892 -0.6649  0.8217
   65MOL    H4414252   2.085   5.735   3.371 -0.0828  0.2878  0.2205
   65MOL    H4514253   2.185   5.759   3.150  1.2294  0.5740  0.1107
   65MOL    C4614254   2.575   6.144   2.969  0.1732 -0.7516  0.0416
   65MOL    C4714255   2.439   6.118   2.978 -0.0693 -0.3584  0.0369
   65MOL    C4814256   2.386   5.998   3.027  0.1564 -0.8880 -0.0849
   65MOL    C4914257   2.475   5.890   3.050 -0.0060 -0.3436  0.0301
   65MOL    C5014258   2.617   5.911   3.028  0.3108 -0.7163 -0.2136
   65MOL    C5114259   2.664   6.039   2.993 -0.4181  0.4480  0.2457
   65MOL    O5214260   2.798   6.067   2.998 -0.6869  0.0479  0.1504
   65MOL    H5314261   2.609   6.243   2.944 -0.3208 -0.8104 -0.8581
   65MOL    H5414262   2.374   6.204   2.971 -0.0570 -0.2691  1.0164
   65MOL    H5514263   2.439   5.793   3.082 -0.3580  0.2360  1.4364
   65MOL    H5614264   2.688   5.833   3.053 -1.5991 -2.5222 -0.2828
   65MOL    C5714265   2.997   6.074   2.694  0.5048  0.3106  0.3050
   65MOL    C5814266   2.910   6.116   2.794 -0.2526  0.0755  0.0431
   65MOL    C5914267   2.874   6.021   2.898 -0.3587 -0.4388 -0.2475
   65MOL    C6014268   2.922   5.888   2.896  0.6067 -0.7456 -0.2304
   65MOL    C6114269   3.005   5.845   2.793 -0.7451  0.1938  1.0349
   65MOL    C6214270   3.043   5.943   2.694 -0.2572  0.4848 -0.3189
   65MOL    O6314271   3.131   5.911   2.602 -0.7960  0.4107 -0.0339
   65MOL    H6414272   3.037   6.149   2.628 -0.6711 -0.1006 -0.9147
   65MOL    H6514273   2.883   6.221   2.799 -1.2495 -0.0793 -1.5076
   65MOL    H6614274   2.890   5.812   2.966  1.6559 -2.1795 -1.2802
   65MOL    H6714275   3.040   5.743   2.792 -2.5046 -0.4560  2.2922
   65MOL    C6814276   3.044   5.947   2.244 -0.0463  0.0095  0.4037
   65MOL    C6914277   3.083   5.991   2.375  0.2425  0.4070 -0.3076
   65MOL    C7014278   3.084   5.897   2.472 -0.5831 -0.6627 -0.1262
   65MOL    C7114279   3.045   5.760   2.453 -0.7614 -0.1541 -0.5063
   65MOL    C7214280   2.998   5.721   2.325 -0.4786 -0.3615  0.5732
   65MOL    C7314281   3.002   5.818   2.226 -0.6889 -0.4095 -0.6497
   65MOL    O7414282   2.961   5.769   2.099  0.6131 -0.0578  0.3056
   65MOL    H7514283   3.037   6.019   2.164 -1.2105  0.5139  0.9467
   65MOL    H7614284   3.122   6.092   2.383 -0.1655  0.4259  1.5850
   65MOL    H7714285   3.063   5.693   2.537 -1.5285  0.2514 -0.0158
   65MOL    H7814286   2.961   5.625   2.293 -2.3570  0.1804  1.0232
   65MOL    C7914287   2.969   5.974   1.782  0.5844 -0.3075 -0.3317
   65MOL    C8014288   2.939   5.936   1.913  0.6120  0.3602 -0.6696
   65MOL    C8114289   2.996   5.819   1.977 -0.4185  0.2896  0.2613
   65MOL    C8214290   3.089   5.747   1.895 -0.2348  0.3793 -0.0970
   65MOL    C8314291   3.126   5.787   1.766 -0.3671 -0.4734  0.0747
   65MOL    C8414292   3.064   5.902   1.707  0.2314  0.1613  0.0587
   65MOL    O8514293   3.102   5.952   1.580 -0.1766 -0.1170 -0.5010
   65MOL    H8614294   2.930   6.060   1.731 -0.0738 -0.3876  0.0343
   65MOL    H8714295   2.866   5.996   1.965  0.4784  1.2229 -1.8214
   65MOL    H8814296   3.128   5.652   1.928 -2.9453 -1.7731 -2.8014
   65MOL    H8914297   3.199   5.730   1.710  0.1943 -2.1502  2.4399
   65MOL    C9014298   3.473   6.024   1.592  0.0931 -0.2241  0.3602
   65MOL    C9114299   3.336   6.016   1.635  0.2560 -0.4671  1.1687
   65MOL    C9214300   3.236   5.960   1.548  0.3783  0.0463  0.3983
   65MOL    C9314301   3.276   5.898   1.427  0.5737  0.0373 -1.0932
   65MOL    C9414302   3.410   5.906   1.389  0.7574  0.4973  0.1779
   65MOL    C9514303   3.509   5.963   1.469 -0.2169  0.1771  0.0031
   65MOL    O9614304   3.637   5.968   1.428  0.2706 -0.0360 -0.0046
   65MOL    H9714305   3.549   6.065   1.658 -1.5792 -0.3175  2.3870
   65MOL    H9814306   3.306   6.054   1.732 -1.3888  0.8919  0.1517
   65MOL    H9914307   3.199   5.861   1.362  0.6899 -0.6735 -0.8356
   65MOL   H10014308   3.449   5.860   1.299  0.4332 -1.4184  0.9988
   65MOL   C10114309   3.681   6.286   1.225 -0.0897  0.5231 -0.1191
   65MOL   C10214310   3.645   6.204   1.341  0.5435 -0.4100  0.1455
   65MOL   C10314311   3.680   6.065   1.339 -0.4113 -0.4059  0.3569
   65MOL   C10414312   3.767   6.021   1.235  0.5164  0.3351 -0.2977
   65MOL   C10514313   3.798   6.102   1.124 -0.4316 -0.4462 -0.1994
   65MOL   C10614314   3.756   6.236   1.120  0.2935  0.6117  0.5570
   65MOL   O10714315   3.794   6.309   1.009 -0.6241  0.8881 -0.5973
   65MOL   H10814316   3.637   6.385   1.224 -0.8070  0.2044 -0.0880
   65MOL   H10914317   3.574   6.239   1.415  1.1589 -0.3030  0.6929
   65MOL   H11014318   3.800   5.918   1.230  1.9369  0.6005  2.8361
   65MOL   H11114319   3.866   6.064   1.050  1.7807  1.1765  0.9524
   65MOL   C11214320   3.955   6.633   0.967  0.6478 -0.2822 -0.4824
   65MOL   C11314321   3.864   6.525   0.958  1.0006  0.4171 -0.6286
   65MOL   C11414322   3.885   6.407   1.026 -0.6390  0.3102  0.3579
   65MOL   C11514323   4.005   6.388   1.097  0.1974 -0.7139 -0.6837
   65MOL   C11614324   4.099   6.494   1.103 -0.5713 -0.7399  0.1947
   65MOL   C11714325   4.075   6.616   1.042  0.2913 -0.5871  0.6842
   65MOL   O11814326   4.171   6.706   1.049  0.2257 -0.0033 -0.1545
   65MOL   H11914327   3.925   6.721   0.912 -1.8723 -1.3077 -0.8099
   65MOL   H12014328   3.782   6.541   0.890 -2.2074 -1.2315  2.6715
   65MOL   H12114329   4.020   6.296   1.153 -1.4971 -1.2839 -1.1335
   65MOL   H12214330   4.191   6.471   1.154  0.2975  1.8335 -0.1392
   65MOL   C12314331   4.334   6.705   0.714 -0.0441 -0.2044  1.0065
   65MOL   C12414332   4.265   6.659   0.832  0.0072 -0.0315 -0.2108
   65MOL   C12514333   4.229   6.745   0.934  0.0518 -0.2935  1.0210
   65MOL   C12614334   4.272   6.876   0.931  0.1628  0.2908 -0.6591
   65MOL   C12714335   4.340   6.924   0.814  0.3735  0.0501 -0.2704
   65MOL   C12814336   4.363   6.844   0.706 -0.1923 -0.2238  0.0255
   65MOL   O12914337   4.413   6.896   0.584 -0.5706  0.1251 -0.5417
   65MOL   H13014338   4.352   6.642   0.628 -0.6527  0.1744  0.5973
   65MOL   H13114339   4.240   6.554   0.828  1.9558 -0.5001 -0.5582
   65MOL   H13214340   4.252   6.948   1.009  1.5222 -0.4282  0.3610
   65MOL   H13314341   4.375   7.026   0.807  0.6009  0.1512  2.1305
   65MOL   C13414342   4.106   6.957   0.383 -0.6914 -0.2329  0.4960
   65MOL   C13514343   4.199   6.961   0.492  0.4322 -0.3360 -0.3965
   65MOL   C13614344   4.330   6.913   0.481  1.4210 -0.4742  0.0810
   65MOL   C13714345   4.378   6.878   0.353  0.1868 -0.0395 -0.6291
   65MOL   C13814346   4.296   6.897   0.242 -0.0368  0.8690 -0.6474
   65MOL   C13914347   4.159   6.926   0.257 -0.3931 -0.2859 -0.1000
   65MOL   O14014348   4.082   6.898   0.144  0.3507 -0.7891 -0.0443
   65MOL   H14114349   3.999   6.971   0.387 -0.4134  2.7674 -1.1706
   65MOL   H14214350   4.156   6.983   0.589  0.3970  1.3721 -0.7827
   65MOL   H14314351   4.478   6.839   0.336  0.3333  0.4778 -0.9741
   65MOL   H14414352   4.339   6.879   0.144  1.1114 -0.6128  0.1025
   65MOL   C14514353   3.983   6.572   0.007  0.4334 -0.1363  0.1875
   65MOL   C14614354   4.057   6.693   0.030  0.0990 -0.1913 -0.5323
   65MOL   C14714355   4.030   6.773   0.140  0.1413  0.1323  0.4775
   65MOL   C14814356   3.936   6.722   0.241  0.2755  0.5159 -0.2184
   65MOL   C14914357   3.872   6.594   0.222 -0.8664 -0.8439 -0.4699
   65MOL   C15014358   3.897   6.520   0.108 -0.1150 -0.8239 -0.4398
   65MOL   O15114359   3.824   6.409   0.080 -0.2314  0.4577  0.1575
   65MOL   H15214360   3.993   6.518   8.168  0.7563  0.9124 -0.3884
   65MOL   H15314361   4.125   6.727   8.208  0.6009 -0.7286 -0.3298
   65MOL   H15414362   3.899   6.789   0.317  1.8658  0.5588  0.5352
   65MOL   H15514363   3.796   6.563   0.292 -0.4372 -0.2017  0.2886
   65MOL   C15614364   3.774   6.186   0.372  0.1264  0.0657 -0.4417
   65MOL   C15714365   3.835   6.261   0.267 -0.1991  0.0670 -0.3623
   65MOL   C15814366   3.758   6.345   0.183  0.5115  0.7670 -0.3223
   65MOL   C15914367   3.622   6.349   0.197 -0.2478 -0.1397 -0.2123
   65MOL   C16014368   3.556   6.269   0.290  0.6889  0.4130 -0.0140
   65MOL   C16114369   3.631   6.196   0.382  0.2058  0.5841 -0.1400
   65MOL   O16214370   3.571   6.121   0.481  0.0471 -0.6895  0.6001
   65MOL   H16314371   3.842   6.130   0.434  0.6018 -1.2812 -2.1597
   65MOL   H16414372   3.943   6.259   0.273 -0.2404  0.8447  0.8567
   65MOL   H16514373   3.561   6.403   0.125  0.0382 -4.2321 -3.7062
   65MOL   H16614374   3.448   6.264   0.292  0.5606  1.3534 -2.5092
   65MOL   C16714375   3.521   6.242   0.816  0.6152 -0.2986 -0.6126
   65MOL   C16814376   3.585   6.196   0.701  0.0324  0.0635 -0.0329
   65MOL   C16914377   3.508   6.188   0.582  1.1125  0.2166  0.3717
   65MOL   C17014378   3.369   6.218   0.576  0.1713  0.4849  0.0617
   65MOL   C17114379   3.309   6.269   0.692 -0.3189 -0.1429  0.1456
   65MOL   C17214380   3.379   6.275   0.816 -0.0638 -0.1546  0.0127
   65MOL   O17314381   3.311   6.322   0.924 -0.4546  0.5085  0.0914
   65MOL   H17414382   3.569   6.231   0.912 -1.8726  1.4793  0.9042
   65MOL   H17514383   3.689   6.166   0.702 -0.2344 -0.8730 -0.5874
   65MOL   H17614384   3.313   6.211   0.484  2.5238 -1.7332 -1.2655
   65MOL   H17714385   3.205   6.300   0.692 -0.5857 -0.9403 -1.2849
   65MOL   C17814386   3.500   6.613   1.037  0.0141  0.2984 -0.0794
   65MOL   C17914387   3.440   6.523   0.949  0.4921  0.0115  0.0760
   65MOL   C18014388   3.377   6.411   1.001  0.4409 -0.1660 -0.3507
   65MOL   C18114389   3.355   6.399   1.140  0.1762  0.5631  0.1263
   65MOL   C18214390   3.417   6.487   1.233 -0.0012  1.2884  1.2100
   65MOL   C18314391   3.490   6.593   1.179 -0.7044  0.0247 -0.8005
   65MOL   O18414392   3.539   6.691   1.263  0.2888  0.0309 -0.3626
   65MOL   H18514393   3.545   6.706   1.006 -0.4733  0.6171  0.1494
   65MOL   H18614394   3.465   6.538   0.845  0.8602 -0.7676  0.0476
   65MOL   H18714395   3.296   6.316   1.178  0.1497  0.7400  0.4786
   65MOL   H18814396   3.406   6.472   1.339 -1.8457 -0.2482  0.8417
   65MOL   C18914397   3.878   6.600   1.370 -0.1596  0.3028 -0.2796
   65MOL   C19014398   3.772   6.645   1.292  0.2762 -0.3977  0.2163
   65MOL   C19114399   3.641   6.655   1.351  0.0702 -0.1234 -0.0225
   65MOL   C19214400   3.624   6.631   1.489  0.8072 -0.9607  0.1682
   65MOL   C19314401   3.741   6.592   1.562  0.1706  1.0175  0.5182
   65MOL   C19414402   3.868   6.563   1.505 -0.0387 -1.1584 -0.4251
   65MOL   O19514403   3.966   6.502   1.581 -0.0128  0.1677  0.5665
   65MOL   H19614404   3.972   6.572   1.323  0.6249  2.0911  0.1845
   65MOL   H19714405   3.799   6.664   1.189  2.8959 -1.0460  0.7373
   65MOL   H19814406   3.528   6.638   1.539  1.4519  1.1854  1.1507
   65MOL   H19914407   3.719   6.564   1.664  0.7128 -3.9847 -0.6197
   65MOL   C20014408   4.012   6.163   1.454  0.0920 -0.0433  0.6121
   65MOL   C20114409   3.954   6.272   1.510 -0.6396 -0.3370 -0.1711
   65MOL   C20214410   4.026   6.395   1.524  0.6567 -0.3061 -0.3690
   65MOL   C20314411   4.160   6.395   1.492 -0.4543 -0.1566 -0.2838
   65MOL   C20414412   4.219   6.285   1.435 -0.2815 -0.3523 -1.0329
   65MOL   C20514413   4.143   6.169   1.411  0.3294 -0.1301  1.1564
   65MOL   O20614414   4.208   6.058   1.351  0.4566  0.2699  0.1053
   65MOL   H20714415   3.949   6.077   1.435  0.7191 -0.0797 -1.5114
   65MOL   H20814416   3.853   6.256   1.542 -0.0283  0.6863  2.4056
   65MOL   H20914417   4.227   6.479   1.509  1.3212 -0.8988 -3.2003
   65MOL   H21014418   4.324   6.274   1.409  0.2833 -3.2225  2.1334
   65MOL   C21114419   4.035   5.738   1.307 -0.8167 -0.7940 -0.3655
   65MOL   C21214420   4.075   5.856   1.375 -0.3784  0.1057  0.1133
   65MOL   C21314421   4.143   5.952   1.298  0.0441 -0.3300 -0.0927
   65MOL   C21414422   4.153   5.939   1.156 -0.0452 -0.3640  0.5006
   65MOL   C21514423   4.106   5.824   1.090 -0.8877 -0.3159  0.1324
   65MOL   C21614424   4.056   5.718   1.167 -0.2299 -0.2705  0.3634
   65MOL   O21714425   4.004   5.605   1.116 -0.0534  0.3488  0.0470
   65MOL   H21814426   3.987   5.660   1.364  3.4870 -1.6545  2.2900
   65MOL   H21914427   4.060   5.876   1.480 -1.3393  1.7425 -0.3155
   65MOL   H22014428   4.199   6.021   1.103 -3.2276  0.5054 -1.0546
   65MOL   H22114429   4.119   5.835   0.984 -0.3520 -0.6006  0.1677
   65MOL   H22214430   3.992   5.603   1.022 -1.1248  1.9286  0.1233
   66MOL     C114431   1.181   6.289   3.378  0.3734  0.1580  0.4141
   66MOL     C214432   1.104   6.409   3.374 -0.0329 -0.0650 -0.2307
   66MOL     C314433   0.965   6.396   3.328 -0.2151 -0.3326  0.2206
   66MOL     C414434   0.910   6.270   3.302 -0.1697 -0.4294 -0.5832
   66MOL     C514435   0.990   6.153   3.311 -0.5726  0.2387 -1.2240
   66MOL     C614436   1.123   6.162   3.351  0.7696  0.6787  0.2094
   66MOL     O714437   1.211   6.052   3.350 -0.0225  0.1258  0.1437
   66MOL     H814438   1.287   6.306   3.390 -0.0242  2.4372  0.9247
   66MOL     H914439   1.150   6.504   3.394 -0.2515 -0.3363  1.6534
   66MOL    H1014440   0.808   6.268   3.268 -0.1457  0.2813 -0.7074
   66MOL    H1114441   0.955   6.058   3.273  0.3071 -0.4794 -0.2482
   66MOL    H1214442   0.902   6.481   3.306 -1.3573 -0.4122  3.0262
   66MOL    C1314443   1.195   5.878   3.677 -0.5303  0.1351  0.9064
   66MOL    C1414444   1.188   5.976   3.572  0.2938  0.1741  0.2783
   66MOL    C1514445   1.186   5.946   3.437 -0.6097 -0.0703  0.3209
   66MOL    C1614446   1.197   5.814   3.401 -0.6812  0.0153  0.2649
   66MOL    C1714447   1.185   5.715   3.494 -0.8380  0.5564  1.3358
   66MOL    C1814448   1.184   5.747   3.632  0.6059  0.0393 -0.1554
   66MOL    O1914449   1.193   5.643   3.720  0.0564  0.3030  0.2090
   66MOL    H2014450   1.204   5.908   3.780 -2.4359 -0.3449  1.2291
   66MOL    H2114451   1.195   6.078   3.605 -0.4417 -0.2004  1.6424
   66MOL    H2214452   1.218   5.787   3.298 -1.7056  0.3105 -0.0344
   66MOL    H2314453   1.207   5.615   3.460  0.1626  0.3360  2.5806
   66MOL    C2414454   0.867   5.535   3.846 -0.4732  0.1351 -0.3411
   66MOL    C2514455   0.972   5.619   3.809  0.6687 -0.2346  0.1159
   66MOL    C2614456   1.081   5.567   3.734 -0.1161 -0.2105 -0.2307
   66MOL    C2714457   1.083   5.431   3.700  0.3984 -0.0047 -0.1465
   66MOL    C2814458   0.977   5.342   3.742 -0.2631  0.1208  0.5292
   66MOL    C2914459   0.864   5.395   3.813 -0.1746 -0.2602  0.3354
   66MOL    O3014460   0.764   5.318   3.863  0.4908  0.1565 -0.7141
   66MOL    H3114461   0.784   5.579   3.901 -2.8301 -2.4051 -1.7297
   66MOL    H3214462   0.978   5.723   3.838 -0.5551 -0.1487  0.0984
   66MOL    H3314463   1.167   5.380   3.655  0.0817  0.8735 -1.7752
   66MOL    H3414464   0.987   5.236   3.728  0.9260  0.2495  0.3079
   66MOL    C3514465   0.548   5.059   3.703  1.0233  0.0973 -1.1737
   66MOL    C3614466   0.630   5.127   3.797 -0.4457  0.3956  0.1520
   66MOL    C3714467   0.663   5.265   3.783 -0.0629 -0.5316 -0.0646
   66MOL    C3814468   0.607   5.333   3.667  0.1075 -0.2727  0.6477
   66MOL    C3914469   0.515   5.267   3.582  0.2168  0.4151 -0.7855
   66MOL    C4014470   0.484   5.132   3.606 -0.1680  0.0625  0.4613
   66MOL    O4114471   0.388   5.064   3.534 -0.1451 -0.2543 -0.1551
   66MOL    H4214472   0.538   4.952   3.709 -2.7177  0.4064 -0.2235
   66MOL    H4314473   0.671   5.067   3.877  1.2186  0.7824 -0.3932
   66MOL    H4414474   0.645   5.432   3.647 -0.2379  0.2019  2.3411
   66MOL    H4514475   0.463   5.335   3.515  0.6789  0.7669 -0.7946
   66MOL    C4614476   0.525   4.911   3.223 -0.1154  0.4743 -0.5822
   66MOL    C4714477   0.488   5.002   3.321  0.4389 -0.0757 -0.3188
   66MOL    C4814478   0.424   4.965   3.443 -0.0101  0.7379  0.6657
   66MOL    C4914479   0.395   4.826   3.465 -0.0404  0.8844 -0.5167
   66MOL    C5014480   0.429   4.734   3.359 -0.3634  0.5887 -0.0735
   66MOL    C5114481   0.497   4.769   3.241 -0.0618 -0.6784  0.5311
   66MOL    O5214482   0.523   4.676   3.142  0.1922  0.7697 -0.1686
   66MOL    H5314483   0.582   4.941   3.136  0.2900  3.1339  0.5401
   66MOL    H5414484   0.504   5.107   3.303 -0.0515  0.5870  2.7279
   66MOL    H5514485   0.346   4.794   3.555  2.2442 -0.7567  0.1940
   66MOL    H5614486   0.398   4.633   3.380  0.0249  0.3472 -0.6271
   66MOL    C5714487   0.328   4.695   2.829  0.2702  0.5520  0.1868
   66MOL    C5814488   0.354   4.669   2.965 -0.6728  0.6302  0.3233
   66MOL    C5914489   0.479   4.707   3.016  0.4371 -0.4530 -0.4043
   66MOL    C6014490   0.574   4.775   2.937  0.7248 -0.5856  0.1171
   66MOL    C6114491   0.532   4.818   2.810 -0.3663 -0.1869 -0.0219
   66MOL    C6214492   0.409   4.776   2.754  0.1998  0.1636 -0.2223
   66MOL    O6314493   0.375   4.804   2.623  0.1033 -0.3154 -0.0960
   66MOL    H6414494   0.234   4.664   2.787 -0.8921  1.2380  2.2101
   66MOL    H6514495   0.281   4.627   3.033 -0.1750 -1.3542 -0.3300
   66MOL    H6614496   0.674   4.804   2.966  0.7492  0.6484 -1.1205
   66MOL    H6714497   0.596   4.887   2.757 -0.3375 -0.1909  0.0080
   66MOL    C6814498   0.413   5.149   2.503 -0.0222 -0.3972  0.4708
   66MOL    C6914499   0.360   5.031   2.559 -0.0574 -0.4466 -0.3276
   66MOL    C7014500   0.431   4.911   2.557 -0.6262 -0.0732 -0.2054
   66MOL    C7114501   0.544   4.903   2.475 -0.0751 -0.9567 -0.6549
   66MOL    C7214502   0.603   5.018   2.422  0.9030 -0.1114  0.2829
   66MOL    C7314503   0.540   5.149   2.437  0.3935  0.3456  0.7454
   66MOL    O7414504   0.605   5.266   2.390 -0.2819  0.4700 -0.1071
   66MOL    H7514505   0.359   5.242   2.515 -0.2430 -0.6480  1.4998
   66MOL    H7614506   0.261   5.032   2.602  0.6448 -2.0500  1.3555
   66MOL    H7714507   0.586   4.808   2.448 -0.6766 -0.7032 -2.5913
   66MOL    H7814508   0.685   5.005   2.354 -0.2709  1.7659 -1.5567
   66MOL    C7914509   0.449   5.596   2.380 -0.6713 -0.3195  0.8869
   66MOL    C8014510   0.520   5.488   2.422  0.3178  0.4231 -0.6259
   66MOL    C8114511   0.524   5.371   2.351  0.1902  0.9993  0.4534
   66MOL    C8214512   0.459   5.360   2.230  0.4506  0.0234 -0.0110
   66MOL    C8314513   0.392   5.476   2.180  0.7567 -0.0015  0.0819
   66MOL    C8414514   0.386   5.600   2.252  0.3605  0.3825 -0.0744
   66MOL    O8514515   0.315   5.710   2.211 -0.1193 -0.5634  0.2866
   66MOL    H8614516   0.454   5.686   2.439  1.0622  0.2902 -0.1575
   66MOL    H8714517   0.581   5.491   2.511 -0.8928 -1.4611  0.3056
   66MOL    H8814518   0.459   5.266   2.178 -0.5233  1.1014 -2.0458
   66MOL    H8914519   0.343   5.469   2.085  1.0278 -0.2528 -0.0391
   66MOL    C9014520   8.207   5.710   2.185  0.1890  0.0847 -0.2891
   66MOL    C9114521   0.090   5.674   2.179  0.0559 -0.2009  0.3738
   66MOL    C9214522   0.188   5.733   2.254 -0.2393 -0.5261  0.2719
   66MOL    C9314523   0.154   5.814   2.361 -0.0304 -0.0013  0.7288
   66MOL    C9414524   0.019   5.842   2.376 -0.5204  0.4394  0.0638
   66MOL    C9514525   8.172   5.798   2.291  0.5315  0.1245 -1.1805
   66MOL    O9614526   8.041   5.842   2.309 -0.1026 -0.4888  0.3786
   66MOL    H9714527   8.142   5.678   2.105 -0.5276  2.0380 -0.5039
   66MOL    H9814528   0.118   5.606   2.100 -1.7946  0.3670 -0.8162
   66MOL    H9914529   0.227   5.856   2.427  1.5663 -3.0893  1.0508
   66MOL   H10014530   8.247   5.911   2.454  0.6439 -0.4449  1.2514
   66MOL   C10114531   7.915   5.678   2.622 -0.0081  0.2145  0.1192
   66MOL   C10214532   7.974   5.697   2.499  0.0969  0.2433  0.4767
   66MOL   C10314533   7.988   5.825   2.440  0.2158  0.1612  0.2159
   66MOL   C10414534   7.928   5.934   2.506 -0.1424 -0.8924 -0.1552
   66MOL   C10514535   7.867   5.920   2.633  0.4758 -0.5828 -0.3689
   66MOL   C10614536   7.860   5.784   2.689  0.3441  0.1886  0.0192
   66MOL   O10714537   7.782   5.757   2.800  0.3961 -0.1741  0.2008
   66MOL   H10814538   7.909   5.581   2.669 -0.3807 -0.7199 -1.8038
   66MOL   H10914539   8.011   5.612   2.444 -1.3208 -1.3926  1.9884
   66MOL   H11014540   7.925   6.036   2.470 -0.4675 -0.8255  0.0538
   66MOL   H11114541   7.836   6.006   2.690 -0.3649 -1.0306 -0.1460
   66MOL   C11214542   7.666   5.959   3.094  0.0785 -0.6354 -0.5633
   66MOL   C11314543   7.662   5.894   2.967 -0.6140  0.1064  0.4289
   66MOL   C11414544   7.780   5.842   2.910  0.2189 -0.1130 -0.5236
   66MOL   C11514545   7.900   5.861   2.984  0.8180  0.2500  0.3482
   66MOL   C11614546   7.904   5.930   3.106  0.3223  0.0464  0.9220
   66MOL   C11714547   7.790   5.982   3.165  0.3022  0.2962 -0.8959
   66MOL   O11814548   7.792   6.030   3.292 -0.0408 -0.8643  0.1813
   66MOL   H11914549   7.582   6.003   3.145  1.0895 -0.0717  0.6471
   66MOL   H12014550   7.571   5.875   2.913  1.6226 -3.0784 -2.4796
   66MOL   H12114551   7.985   5.796   2.969  2.9263  1.8349  4.7313
   66MOL   H12214552   8.003   5.946   3.144  0.7352  0.6868 -0.3806
   66MOL   C12314553   7.920   6.357   3.405 -0.6679 -0.0116 -0.8574
   66MOL   C12414554   7.921   6.225   3.362  0.8703  0.6997 -0.0715
   66MOL   C12514555   7.796   6.162   3.313 -0.5807 -0.6313 -0.2014
   66MOL   C12614556   7.677   6.240   3.303 -0.1352  0.0703  0.1339
   66MOL   C12714557   7.678   6.375   3.349 -0.0044  0.1512 -0.6846
   66MOL   C12814558   7.800   6.433   3.396 -0.3894 -0.1785 -0.1984
   66MOL   O12914559   7.804   6.564   3.438  0.4498 -0.4433  0.5099
   66MOL   H13014560   8.008   6.404   3.446  0.6114 -3.0114 -0.0609
   66MOL   H13114561   8.014   6.172   3.376  1.2864  1.4633  0.0187
   66MOL   H13214562   7.588   6.183   3.281 -0.2294 -0.7142  2.5081
   66MOL   H13314563   7.588   6.435   3.343  0.5513  0.9904 -0.6381
   66MOL   C13414564   7.683   6.538   3.784 -0.5208  0.0983  0.5016
   66MOL   C13514565   7.757   6.503   3.668 -0.3668  0.6242  0.1662
   66MOL   C13614566   7.736   6.579   3.551 -0.2862  0.0233 -0.1094
   66MOL   C13714567   7.637   6.681   3.553  0.0819  0.8115 -0.1449
   66MOL   C13814568   7.561   6.704   3.667  0.3393 -0.5349  0.5432
   66MOL   C13914569   7.589   6.639   3.785  0.3086  1.0553  0.2257
   66MOL   O14014570   7.525   6.658   3.903 -0.0803 -0.0713  0.1231
   66MOL   H14114571   7.702   6.484   3.876  1.4628  0.3105  0.2333
   66MOL   H14214572   7.830   6.423   3.666 -0.6763  0.3083  1.3785
   66MOL   H14314573   7.620   6.739   3.463  2.7884 -1.0934 -1.9842
   66MOL   H14414574   7.484   6.780   3.663  0.5205 -0.3249  0.9653
   66MOL   C14514575   7.717   6.920   4.068 -0.1516  0.2365 -0.1169
   66MOL   C14614576   7.682   6.821   3.979 -0.7998 -0.8955  0.9433
   66MOL   C14714577   7.559   6.757   3.987 -0.5149 -0.3214  0.2590
   66MOL   C14814578   7.459   6.801   4.082 -0.0172 -0.1716 -0.1245
   66MOL   C14914579   7.493   6.905   4.169 -0.5458 -0.0780 -0.1106
   66MOL   C15014580   7.618   6.962   4.158 -0.2056  0.0450 -0.7342
   66MOL   O15114581   7.655   7.069   4.236 -0.3700  0.3022 -0.1804
   66MOL   H15214582   7.820   6.948   4.087 -1.2956  3.3096  2.1121
   66MOL   H15314583   7.759   6.786   3.911  0.2787 -1.3097  2.3676
   66MOL   H15414584   7.363   6.752   4.080 -0.2294  0.0581  2.5120
   66MOL   H15514585   7.418   6.951   4.232  1.6315  2.5519  0.6471
   66MOL   C15614586   7.468   7.321   4.419 -0.1144 -0.2186 -0.3445
   66MOL   C15714587   7.559   7.216   4.394  0.9929  0.0172 -0.3575
   66MOL   C15814588   7.573   7.174   4.261 -0.0809  0.5868  0.6781
   66MOL   C15914589   7.497   7.228   4.162  0.0678 -0.2646  0.5121
   66MOL   C16014590   7.398   7.322   4.189  0.0425 -0.1512  0.2057
   66MOL   C16114591   7.381   7.375   4.320 -0.0596 -0.2722  0.0940
   66MOL   O16214592   7.304   7.485   4.346 -0.1343  0.8600  0.1503
   66MOL   H16314593   7.456   7.363   4.518 -0.9105  0.1248 -0.5817
   66MOL   H16414594   7.609   7.165   4.475 -1.4127 -0.6660  0.7596
   66MOL   H16514595   7.523   7.198   4.061  0.4681  1.0166  0.2225
   66MOL   H16614596   7.338   7.354   4.105  1.8956 -0.5269 -1.3115
   66MOL   C16714597   7.116   7.552   4.650  0.3699 -0.1655  0.1502
   66MOL   C16814598   7.222   7.553   4.552 -0.0406  0.1466  0.4292
   66MOL   C16914599   7.211   7.470   4.444  0.3131 -0.3454  0.1445
   66MOL   C17014600   7.104   7.385   4.423 -0.2236  0.7003 -0.3178
   66MOL   C17114601   7.004   7.367   4.528 -0.8183 -0.4201  0.3063
   66MOL   C17214602   7.012   7.459   4.637  0.7988 -0.1581  0.0696
   66MOL   O17314603   6.916   7.452   4.732  0.1391  0.2720  0.2495
   66MOL   H17414604   7.123   7.616   4.736 -0.5837  1.2832 -0.8175
   66MOL   H17514605   7.305   7.619   4.573  1.2484 -2.0020  2.3330
   66MOL   H17614606   7.098   7.324   4.334  1.5564  1.9326 -1.3141
   66MOL   H17714607   6.921   7.298   4.517  0.4504 -1.7949 -0.7646
   66MOL   C17814608   6.791   7.740   4.919 -0.1307 -0.5394 -0.5868
   66MOL   C17914609   6.884   7.651   4.865  0.2053  0.6392 -0.0717
   66MOL   C18014610   6.844   7.559   4.763  0.0093  0.4838 -0.4828
   66MOL   C18114611   6.713   7.577   4.713  0.0937  0.9116 -0.7811
   66MOL   C18214612   6.622   7.676   4.761  0.7490  0.4106 -0.3247
   66MOL   C18314613   6.662   7.759   4.863 -0.2747 -0.4015  0.4229
   66MOL   O18414614   6.575   7.862   4.902 -0.6101 -0.0019  0.3378
   66MOL   H18514615   6.830   7.797   5.002 -1.0566 -0.7033 -0.0300
   66MOL   H18614616   6.989   7.648   4.891 -0.0747  0.3994  1.0283
   66MOL   H18714617   6.687   7.515   4.629 -0.7901  1.1893 -0.7123
   66MOL   H18814618   6.523   7.691   4.720  0.5950 -1.9936 -0.9243
   66MOL   C18914619   6.680   8.178   4.736  0.1251 -0.0160 -0.5446
   66MOL   C19014620   6.632   8.047   4.751  0.0396 -1.1356 -0.3223
   66MOL   C19114621   6.620   7.995   4.886  0.1867 -0.3498 -0.1409
   66MOL   C19214622   6.645   8.075   4.997 -0.2727 -0.1091 -0.2875
   66MOL   C19314623   6.709   8.202   4.976  0.0373 -0.0039  0.2782
   66MOL   C19414624   6.728   8.253   4.848 -0.2884 -0.3035  0.7424
   66MOL   O19514625   6.796   0.119   4.832 -0.2662  0.0896  0.1446
   66MOL   H19614626   6.706   8.207   4.636 -0.1045  1.7367 -0.1168
   66MOL   H19714627   6.598   7.992   4.664 -2.9348  0.3128 -0.1547
   66MOL   H19814628   6.645   8.033   5.096  3.3888  2.4847  0.9282
   66MOL   H19914629   6.736   0.008   5.062  0.7921 -0.6964  0.5272
   66MOL   C20014630   6.892   0.226   4.487  0.0337  0.0740 -0.0006
   66MOL   C20114631   6.814   0.201   4.603 -0.0715  0.5068 -0.8134
   66MOL   C20214632   6.870   0.143   4.718 -0.6602  0.4569 -0.5642
   66MOL   C20314633   7.004   0.110   4.718 -0.0798  0.1822  0.0686
   66MOL   C20414634   7.084   0.125   4.599 -0.4777 -0.5732  0.3651
   66MOL   C20514635   7.026   0.190   4.488 -0.0457 -0.2483 -0.1775
   66MOL   O20614636   7.105   0.224   4.384 -0.0382 -0.0835  0.6885
   66MOL   H20714637   6.851   0.258   4.392  4.0510  1.0197 -1.4997
   66MOL   H20814638   6.713   0.240   4.603 -0.8417 -1.3244  2.2673
   66MOL   H20914639   7.051   0.061   4.802 -1.0415 -0.8913 -0.0058
   66MOL   H21014640   7.191   0.112   4.603 -0.5640 -0.9013  2.2063
   66MOL   C21114641   7.250   0.552   4.290 -0.2174 -0.7792 -0.1631
   66MOL   C21214642   7.170   0.432   4.282 -0.5935 -0.4646  0.0628
   66MOL   C21314643   7.177   0.338   4.391 -0.0236  0.0438  0.0534
   66MOL   C21414644   7.268   0.374   4.495  0.1004  0.5738  0.3711
   66MOL   C21514645   7.340   0.496   4.506 -0.2268 -0.5201 -0.2908
   66MOL   C21614646   7.335   0.578   4.397  0.2502  0.2458  0.3426
   66MOL   O21714647   7.412   0.691   4.395 -0.0286 -0.5412  0.2751
   66MOL   H21814648   7.237   0.624   4.211 -2.3902  1.3201  2.0506
   66MOL   H21914649   7.100   0.404   4.205  2.1128 -1.5082 -2.1063
   66MOL   H22014650   7.278   0.299   4.572  0.3275 -2.9848 -2.9352
   66MOL   H22114651   7.404   0.509   4.593  0.9149 -1.4716 -0.9716
   66MOL   H22214652   7.471   0.692   4.469  1.5989 -0.3477 -0.9775
   67MOL     C114653   6.683   0.798   4.153  0.3282  0.2614 -0.6622
   67MOL     C214654   6.558   0.748   4.111 -0.4505 -0.6839 -0.0437
   67MOL     C314655   6.454   0.833   4.080 -0.2037  0.1979  0.2297
   67MOL     C414656   6.473   0.972   4.102  0.0445 -0.6289 -0.6407
   67MOL     C514657   6.599   1.020   4.138  0.4002  0.3245 -0.4387
   67MOL     C614658   6.706   0.935   4.171  0.2776 -0.3613 -0.2463
   67MOL     O714659   6.834   0.982   4.195 -0.6340  0.2450 -0.3570
   67MOL     H814660   6.761   0.730   4.184 -0.7956 -1.0343 -0.6720
   67MOL     H914661   6.549   0.641   4.106 -1.2162 -0.6056 -0.4070
   67MOL    H1014662   6.396   1.045   4.084  0.5881 -0.5468 -2.7118
   67MOL    H1114663   6.615   1.127   4.136 -1.6179  0.6724  0.2696
   67MOL    H1214664   6.356   0.805   4.045  0.6102  0.8860 -2.7310
   67MOL    C1314665   6.972   1.022   3.852  0.6509 -0.6164  0.1244
   67MOL    C1414666   6.883   1.039   3.963 -0.0190  0.0667 -0.2900
   67MOL    C1514667   6.915   0.989   4.089  0.0020  0.7304  0.2577
   67MOL    C1614668   7.044   0.941   4.107 -1.0249  0.6920 -0.6168
   67MOL    C1714669   7.143   0.931   4.005 -0.1618  0.3386 -0.2474
   67MOL    C1814670   7.104   0.970   3.873  0.2528 -0.4543 -0.0674
   67MOL    O1914671   7.187   0.972   3.767  0.0419  0.6585  0.9867
   67MOL    H2014672   6.943   1.059   3.755  0.0468 -2.4853 -0.4276
   67MOL    H2114673   6.783   1.077   3.951  0.1404  1.0646  1.5088
   67MOL    H2214674   7.084   0.920   4.206 -1.8645  2.0424  0.0248
   67MOL    H2314675   7.239   0.885   4.022 -1.2325 -1.5140  1.0545
   67MOL    C2414676   7.309   0.636   3.676  0.2776 -0.0224  0.3417
   67MOL    C2514677   7.220   0.737   3.716  0.2799  0.2654  0.2245
   67MOL    C2614678   7.273   0.863   3.744 -0.3827  0.1972  0.0939
   67MOL    C2714679   7.415   0.879   3.768 -0.8490 -0.0829  0.3617
   67MOL    C2814680   7.498   0.766   3.752 -0.8045 -0.0580  0.7620
   67MOL    C2914681   7.441   0.650   3.702 -0.4039 -0.4268  0.0586
   67MOL    O3014682   7.513   0.536   3.685 -0.3743 -0.2276  0.0640
   67MOL    H3114683   7.274   0.539   3.645  0.0928 -0.7280  2.6845
   67MOL    H3214684   7.114   0.722   3.706  0.1145  2.0059 -0.6465
   67MOL    H3314685   7.457   0.976   3.790 -0.6437  0.5318 -2.4774
   67MOL    H3414686   7.604   0.770   3.774  0.3551  0.0304 -4.1978
   67MOL    C3514687   7.558   0.418   4.027  0.7277 -1.6033 -0.2109
   67MOL    C3614688   7.494   0.478   3.917  0.2801  0.5629  0.0197
   67MOL    C3714689   7.565   0.469   3.796  0.6981  0.2906 -0.4723
   67MOL    C3814690   7.687   0.400   3.779 -0.0659  0.2991 -0.7070
   67MOL    C3914691   7.738   0.328   3.887 -0.5205  0.1081 -0.2503
   67MOL    C4014692   7.678   0.344   4.017  0.1148  0.1493  0.1814
   67MOL    O4114693   7.743   0.286   4.123  0.0693  0.1743  0.5738
   67MOL    H4214694   7.514   0.430   4.124  0.5353  0.9459 -0.5681
   67MOL    H4314695   7.398   0.525   3.932  0.1041  0.8690 -1.8868
   67MOL    H4414696   7.732   0.411   3.681  0.2070  0.5811 -0.5516
   67MOL    H4514697   7.831   0.273   3.886 -1.5960 -1.8630  1.9326
   67MOL    C4614698   7.558   0.069   4.350 -0.9082 -0.3636 -0.5751
   67MOL    C4714699   7.619   0.116   4.237 -0.8357  0.0264  0.3044
   67MOL    C4814700   7.679   0.242   4.232 -0.2124 -0.2489  0.5718
   67MOL    C4914701   7.680   0.319   4.349  0.2520  0.2321 -0.1896
   67MOL    C5014702   7.606   0.278   4.457  0.0133 -0.9573  0.1498
   67MOL    C5114703   7.547   0.148   4.467 -0.9391  0.0759  0.0676
   67MOL    O5214704   7.493   0.103   4.584 -0.4930 -0.5593  0.1775
   67MOL    H5314705   7.516   8.225   4.361 -0.5319 -0.5067 -0.3776
   67MOL    H5414706   7.631   0.046   4.156 -0.9371  0.9487 -0.5206
   67MOL    H5514707   7.727   0.416   4.357 -2.4627  1.5536  0.6878
   67MOL    H5614708   7.598   0.331   4.551 -0.5094 -0.7411 -0.0174
   67MOL    C5714709   7.737   8.168   4.785 -0.0564  0.3518  0.2183
   67MOL    C5814710   7.675   0.020   4.727 -0.6221  0.0618  0.3032
   67MOL    C5914711   7.552   0.006   4.664 -0.2823 -0.1960 -0.1945
   67MOL    C6014712   7.486   8.132   4.670 -0.0102 -0.3468  0.5243
   67MOL    C6114713   7.556   8.014   4.717 -0.5139 -0.0133 -0.2111
   67MOL    C6214714   7.682   8.034   4.788  0.7360  0.2217 -0.0509
   67MOL    O6314715   7.741   7.923   4.850  0.5582  0.1534  0.2897
   67MOL    H6414716   7.819   8.194   4.852 -0.9598 -0.8169  1.8155
   67MOL    H6514717   7.724   0.117   4.732  1.8061 -1.0762 -0.8169
   67MOL    H6614718   7.389   8.123   4.624  0.7898 -0.1229 -1.2469
   67MOL    H6714719   7.515   7.914   4.720  0.4054 -0.3754  0.5489
   67MOL    C6814720   8.089   7.852   4.770 -0.4792 -0.6103 -0.6985
   67MOL    C6914721   7.974   7.909   4.830 -0.2178 -0.0000 -0.2318
   67MOL    C7014722   7.846   7.874   4.789 -0.5351  0.2999  0.7992
   67MOL    C7114723   7.836   7.799   4.667  0.1280 -0.3038  0.1263
   67MOL    C7214724   7.946   7.762   4.591  0.0374  0.3084 -0.9666
   67MOL    C7314725   8.075   7.783   4.650  0.8735  0.3959  0.1161
   67MOL    O7414726   8.186   7.732   4.592 -0.2037  0.0546  0.0210
   67MOL    H7514727   8.183   7.867   4.822 -0.7472 -1.9879  0.2094
   67MOL    H7614728   7.973   7.979   4.912  0.2280 -1.8560  1.4024
   67MOL    H7714729   7.738   7.778   4.625  0.3427  0.2370 -0.6556
   67MOL    H7814730   7.938   7.713   4.495 -1.0342  0.1868 -0.8191
   67MOL    C7914731   0.248   7.890   4.477  0.5326  0.6792  0.9327
   67MOL    C8014732   0.157   7.808   4.550 -0.1008 -0.2971 -0.0403
   67MOL    C8114733   0.019   7.817   4.526  0.2706  0.0027 -0.0696
   67MOL    C8214734   8.226   7.917   4.441  0.9025  0.2053  0.3220
   67MOL    C8314735   0.061   8.004   4.377 -1.0275  0.0844 -0.2495
   67MOL    C8414736   0.202   7.991   4.396 -0.2913  0.0391  0.5879
   67MOL    O8514737   0.287   8.077   4.330 -0.0871  0.1405  0.9934
   67MOL    H8614738   0.355   7.872   4.477  1.1041  3.3988 -2.5953
   67MOL    H8714739   0.207   7.739   4.616 -0.0954 -1.8705 -1.6501
   67MOL    H8814740   8.119   7.910   4.428  1.1746 -0.6635 -1.7673
   67MOL    H8914741   0.019   8.078   4.311  0.6757  1.2650 -0.0331
   67MOL    C9014742   0.361   8.053   3.963  0.0591  0.5809 -0.0181
   67MOL    C9114743   0.300   8.094   4.085  0.1865 -0.4694 -0.0096
   67MOL    C9214744   0.344   8.034   4.210 -0.6767  0.0746  0.3872
   67MOL    C9314745   0.451   7.945   4.207 -0.8950 -0.0816  0.3364
   67MOL    C9414746   0.507   7.900   4.085  0.4977 -0.0999 -0.1262
   67MOL    C9514747   0.459   7.952   3.963  0.6261  0.0733  0.2335
   67MOL    O9614748   0.517   7.908   3.847  0.0204 -0.6959 -0.6403
   67MOL    H9714749   0.328   8.100   3.871 -0.2806 -0.1875 -0.2941
   67MOL    H9814750   0.221   8.166   4.100  0.6398  0.0493 -0.0997
   67MOL    H9914751   0.484   7.888   4.293  0.9784 -1.4995 -1.2760
   67MOL   H10014752   0.580   7.821   4.071 -0.0330 -0.4518 -0.9672
   67MOL   C10114753   0.743   8.157   3.694 -0.3176 -0.7883 -0.1816
   67MOL   C10214754   0.625   8.096   3.732  0.1194 -0.7541 -0.1577
   67MOL   C10314755   0.628   7.980   3.815 -0.1784 -0.3585 -0.4285
   67MOL   C10414756   0.752   7.936   3.856 -0.7989  0.3230 -0.6423
   67MOL   C10514757   0.868   7.995   3.817  0.2716  0.3737 -0.4850
   67MOL   C10614758   0.864   8.106   3.734 -0.2969  0.2464 -0.0740
   67MOL   O10714759   0.983   8.172   3.711  0.3393  0.5971 -0.5313
   67MOL   H10814760   0.737   0.001   3.649  0.8886 -1.1674 -1.1946
   67MOL   H10914761   0.539   8.147   3.691  2.3563  2.9383 -0.4629
   67MOL   H11014762   0.761   7.852   3.924  3.2714 -0.4915 -2.0580
   67MOL   H11114763   0.961   7.967   3.865 -1.1091 -1.3774  1.2751
   67MOL   C11214764   0.996   0.193   3.459  0.4343 -0.9681 -0.1806
   67MOL   C11314765   1.006   0.118   3.582  0.4541 -0.3201 -0.3220
   67MOL   C11414766   1.002   8.230   3.595 -0.1333 -0.2207  0.5993
   67MOL   C11514767   1.001   8.158   3.472 -0.4190  1.1710 -0.4767
   67MOL   C11614768   0.990   8.229   3.350 -0.1969 -0.5805 -0.7158
   67MOL   C11714769   0.988   0.115   3.347  0.0182 -0.5151  0.0954
   67MOL   O11814770   0.987   0.178   3.223  0.2360  0.6113 -0.4335
   67MOL   H11914771   1.004   0.300   3.452  2.3681 -1.0089  0.9055
   67MOL   H12014772   0.983   0.164   3.677 -0.4277 -0.3389 -0.5205
   67MOL   H12114773   1.004   8.050   3.474  2.1972  1.2156  0.5532
   67MOL   H12214774   0.997   8.163   3.265 -1.6556 -3.0656  1.0223
   67MOL   C12314775   1.310   0.091   3.072  0.3704  0.0967 -0.2199
   67MOL   C12414776   1.216   0.130   3.170  0.3219  0.0503  0.1235
   67MOL   C12514777   1.080   0.140   3.132 -0.1602 -0.2512 -0.3696
   67MOL   C12614778   1.033   0.114   3.001  0.0813 -0.3312  0.1895
   67MOL   C12714779   1.129   0.093   2.900 -0.7716  0.6435 -0.6994
   67MOL   C12814780   1.265   0.071   2.937  0.1009 -0.7533  0.3255
   67MOL   O12914781   1.349   0.013   2.842 -0.4456  0.2131  1.0030
   67MOL   H13014782   1.412   0.063   3.095  0.2002 -0.9873 -0.7798
   67MOL   H13114783   1.243   0.148   3.273  0.3638 -1.1729  0.3283
   67MOL   H13214784   0.930   0.109   2.971 -0.1875 -1.0718  1.2002
   67MOL   H13314785   1.101   0.079   2.796 -3.3633  1.0959 -0.0854
   67MOL   C13414786   1.540   0.290   2.682  0.6042 -0.5142 -1.4205
   67MOL   C13514787   1.447   0.220   2.766 -0.2739 -0.6873  0.2216
   67MOL   C13614788   1.450   0.083   2.766  0.5386  0.2127 -1.1747
   67MOL   C13714789   1.554   0.013   2.707 -0.7867 -0.2732 -0.1608
   67MOL   C13814790   1.654   0.080   2.632  0.1881  0.3840 -0.4462
   67MOL   C13914791   1.644   0.222   2.616  0.1677 -0.0411 -0.3577
   67MOL   O14014792   1.719   0.297   2.537 -0.7618 -0.3000 -0.0915
   67MOL   H14114793   1.530   0.398   2.675 -1.0920 -0.5080  0.4422
   67MOL   H14214794   1.381   0.276   2.831  0.1388  1.7323 -1.3728
   67MOL   H14314795   1.570   8.160   2.708  2.2312  0.1432 -0.0689
   67MOL   H14414796   1.725   0.017   2.580 -1.2611 -1.3607 -0.3565
   67MOL   C14514797   2.008   0.213   2.330 -0.0782  0.0204 -0.0146
   67MOL   C14614798   1.878   0.251   2.368  0.0228  0.7256 -0.1292
   67MOL   C14714799   1.845   0.266   2.502 -0.6630 -0.3979 -0.5592
   67MOL   C14814800   1.942   0.258   2.605  0.2217 -0.4387  0.5997
   67MOL   C14914801   2.072   0.223   2.568  0.5988  0.3766  0.6589
   67MOL   C15014802   2.104   0.199   2.431  0.6121 -0.2557  0.4489
   67MOL   O15114803   2.228   0.145   2.405  0.0218  0.2628  0.8309
   67MOL   H15214804   2.029   0.192   2.226  1.2623  1.2196 -0.0078
   67MOL   H15314805   1.804   0.271   2.291  0.5552 -0.6922 -1.0300
   67MOL   H15414806   1.919   0.284   2.707 -1.7972  2.9127 -0.6360
   67MOL   H15514807   2.150   0.217   2.643  1.4641 -1.4836 -0.3445
   67MOL   C15614808   2.435   0.023   2.684 -0.4864 -0.1037 -0.3406
   67MOL   C15714809   2.390   0.107   2.577  0.0235  0.3844 -0.2776
   67MOL   C15814810   2.290   0.057   2.489  0.0643  0.3413 -0.4097
   67MOL   C15914811   2.232   8.185   2.509  0.0825 -0.0122  0.0086
   67MOL   C16014812   2.281   8.102   2.613  0.3225  0.4484  0.3116
   67MOL   C16114813   2.382   8.149   2.704  0.0012  0.4406 -0.0911
   67MOL   O16214814   2.420   8.082   2.823  0.0237  0.0440  0.0361
   67MOL   H16314815   2.511   0.063   2.750 -0.2346  2.6649 -2.2203
   67MOL   H16414816   2.426   0.208   2.566  3.1947 -0.5633  0.7251
   67MOL   H16514817   2.143   8.147   2.462  0.6170 -1.2522 -0.0047
   67MOL   H16614818   2.248   8.001   2.634  2.9383  0.3361  4.4180
   67MOL   C16714819   2.244   7.903   3.092 -0.4403  0.8090 -0.0215
   67MOL   C16814820   2.340   7.936   2.995 -0.2548  0.7168 -0.1287
   67MOL   C16914821   2.318   8.044   2.910 -0.2569  0.0613  0.2669
   67MOL   C17014822   2.208   8.129   2.935 -0.4537 -0.4540 -0.4399
   67MOL   C17114823   2.112   8.094   3.033 -0.6901  0.1467  0.3996
   67MOL   C17214824   2.128   7.982   3.112 -0.5836  0.0132  0.0740
   67MOL   O17314825   2.027   7.944   3.199  0.2105  0.1838  0.3346
   67MOL   H17414826   2.253   7.813   3.150  0.2149  0.5633 -0.5040
   67MOL   H17514827   2.429   7.875   2.987 -0.5375 -0.0511  2.1482
   67MOL   H17614828   2.197   8.219   2.875  1.5280 -0.1092 -0.3284
   67MOL   H17714829   2.027   8.160   3.047 -1.9980 -1.3659 -0.2525
   67MOL   C17814830   2.007   7.571   3.235  0.3676 -0.4987  0.5311
   67MOL   C17914831   1.984   7.699   3.176 -0.8779 -0.5861 -0.0434
   67MOL   C18014832   2.019   7.815   3.251  0.7001 -0.4232  0.5672
   67MOL   C18114833   2.043   7.803   3.386  0.5489 -0.8017  0.2058
   67MOL   C18214834   2.049   7.682   3.449  0.1565  1.2414  0.1847
   67MOL   C18314835   2.038   7.560   3.370  0.6949  0.1524 -0.3375
   67MOL   O18414836   2.041   7.434   3.420 -0.4021 -0.2419  0.0433
   67MOL   H18514837   2.002   7.488   3.166  1.5860 -0.0245 -0.1346
   67MOL   H18614838   1.960   7.702   3.070 -2.2718 -1.2398  0.2409
   67MOL   H18714839   2.051   7.886   3.454  1.2706 -0.7589  0.0738
   67MOL   H18814840   2.074   7.692   3.553 -0.4701  1.5185  0.3083
   67MOL   C18914841   2.160   7.410   3.767  0.2106 -0.4557 -0.0678
   67MOL   C19014842   2.075   7.429   3.655  0.1722 -0.3693  0.5356
   67MOL   C19114843   2.123   7.418   3.526  0.7126 -0.2347  0.0959
   67MOL   C19214844   2.262   7.395   3.505  0.2354  0.0011  0.0903
   67MOL   C19314845   2.349   7.373   3.618  0.4238  0.1876 -0.6079
   67MOL   C19414846   2.297   7.378   3.748  0.7183  0.1046  0.7174
   67MOL   O19514847   2.367   7.350   3.860  0.6283 -0.0426  0.5254
   67MOL   H19614848   2.123   7.412   3.868 -1.0266 -2.5060 -0.4604
   67MOL   H19714849   1.969   7.433   3.674 -0.1958  1.1074 -1.7385
   67MOL   H19814850   2.297   7.389   3.403 -0.9850  0.2856 -0.3617
   67MOL   H19914851   2.454   7.346   3.611  0.2017 -0.8189 -0.2491
   67MOL   C20014852   2.601   7.622   3.960  0.0661 -0.2955 -0.0861
   67MOL   C20114853   2.479   7.556   3.926 -0.2975 -0.4046  0.5125
   67MOL   C20214854   2.480   7.419   3.885 -0.9197  0.3007 -0.1990
   67MOL   C20314855   2.604   7.362   3.863 -0.6945  0.8478  0.0239
   67MOL   C20414856   2.719   7.444   3.875  0.1459  0.1503  0.0682
   67MOL   C20514857   2.722   7.571   3.920  0.2208  0.0183 -0.2496
   67MOL   O20614858   2.841   7.648   3.929  0.3000 -0.1546  0.2730
   67MOL   H20714859   2.585   7.724   3.993  1.0306 -0.3827  0.6793
   67MOL   H20814860   2.379   7.595   3.941 -0.6013 -0.3724 -1.4182
   67MOL   H20914861   2.604   7.261   3.825 -4.2873  0.3496  1.1068
   67MOL   H21014862   2.816   7.409   3.842 -0.5205  0.0496 -1.8263
   67MOL   C21114863   3.190   7.578   3.881  0.2125 -0.4864  0.1397
   67MOL   C21214864   3.052   7.595   3.856  0.6179 -0.0388  0.0883
   67MOL   C21314865   2.961   7.599   3.961  0.4745 -0.1970 -0.2939
   67MOL   C21414866   3.005   7.576   4.094  0.4892 -0.6253  0.4726
   67MOL   C21514867   3.134   7.528   4.116 -0.3003  0.3701  0.5816
   67MOL   C21614868   3.226   7.530   4.007 -0.4972  0.0110  0.8360
   67MOL   O21714869   3.350   7.486   4.037  0.2033  0.0010  0.8256
   67MOL   H21814870   3.267   7.597   3.807 -1.1959  1.4144 -0.8900
   67MOL   H21914871   3.011   7.624   3.760 -2.2326  1.7300  1.7961
   67MOL   H22014872   2.947   7.589   4.185  1.4207 -0.0264  0.9908
   67MOL   H22114873   3.162   7.501   4.217  0.3087 -1.4803 -0.0586
   67MOL   H22214874   3.413   7.477   3.966 -0.0485 -1.4710  0.7780
   68MOL     C114875   3.967   2.537   5.459 -0.8496 -0.5650  0.1902
   68MOL     C214876   3.969   2.543   5.319  0.4093 -0.0384 -0.1429
   68MOL     C314877   3.943   2.658   5.252 -0.4547  0.3106 -0.2868
   68MOL     C414878   3.939   2.779   5.326 -0.5582 -0.2379  0.3007
   68MOL     C514879   3.944   2.779   5.466 -0.8325  0.2036  0.6067
   68MOL     C614880   3.958   2.654   5.534 -0.6903 -0.2069 -0.1160
   68MOL     O714881   3.956   2.660   5.668  0.5275 -0.0397  0.0050
   68MOL     H814882   3.994   2.445   5.508 -1.4461 -2.0364 -2.1383
   68MOL     H914883   3.974   2.449   5.265  1.0351 -1.0569  1.6382
   68MOL    H1014884   3.923   2.876   5.281 -0.4073 -0.2301  0.2618
   68MOL    H1114885   3.926   2.871   5.519 -3.9029 -1.2710  2.2367
   68MOL    H1214886   3.955   2.663   5.145  1.3969 -0.2989 -0.1082
   68MOL    C1314887   4.284   2.605   5.820 -0.4026 -0.2250 -0.6181
   68MOL    C1414888   4.168   2.574   5.748 -0.3421 -0.1069  0.8410
   68MOL    C1514889   4.069   2.677   5.742  0.3573 -0.5824  0.4333
   68MOL    C1614890   4.093   2.804   5.800  0.5815 -0.2389 -0.3194
   68MOL    C1714891   4.218   2.835   5.854 -0.0822  0.2134 -1.6101
   68MOL    C1814892   4.317   2.736   5.867 -0.1986 -0.4068  0.4202
   68MOL    O1914893   4.448   2.760   5.902  0.3033 -0.0001 -0.2873
   68MOL    H2014894   4.355   2.524   5.821 -0.1380  0.0057  0.1709
   68MOL    H2114895   4.154   2.475   5.706  1.9164  0.4606 -1.3122
   68MOL    H2214896   4.029   2.887   5.773 -1.1509 -1.4154  0.0848
   68MOL    H2314897   4.236   2.937   5.885 -2.1185  0.0475  0.1977
   68MOL    C2414898   4.609   3.088   5.854  0.4243 -0.2397 -0.2979
   68MOL    C2514899   4.545   2.975   5.921 -0.1230 -0.5044  0.9743
   68MOL    C2614900   4.510   2.870   5.842  0.3225 -0.0242 -0.5456
   68MOL    C2714901   4.539   2.863   5.707 -0.1814 -0.2665 -0.7861
   68MOL    C2814902   4.599   2.972   5.643 -0.0203  0.2616 -0.9798
   68MOL    C2914903   4.635   3.088   5.715  0.8044 -0.1915 -0.1620
   68MOL    O3014904   4.676   3.206   5.656 -0.2094  0.1630  0.3933
   68MOL    H3114905   4.628   3.177   5.911 -0.6267 -0.6066  0.6491
   68MOL    H3214906   4.522   2.987   6.026 -1.7369 -0.4520  0.6283
   68MOL    H3314907   4.508   2.773   5.656  0.8852 -0.3804 -1.2376
   68MOL    H3414908   4.627   2.958   5.540  1.2145 -0.7893 -0.5241
   68MOL    C3514909   4.642   3.290   5.304 -0.4670 -0.3496  0.2092
   68MOL    C3614910   4.708   3.244   5.422 -0.8563 -0.3427  0.2627
   68MOL    C3714911   4.626   3.241   5.536  0.9815 -0.0938 -0.5049
   68MOL    C3814912   4.484   3.273   5.525  0.0533  0.5047 -0.7717
   68MOL    C3914913   4.429   3.316   5.403  0.3623  0.3246 -0.1678
   68MOL    C4014914   4.513   3.330   5.288  0.3213 -0.3229 -0.6388
   68MOL    O4114915   4.460   3.362   5.168 -0.2416  0.7680 -0.1184
   68MOL    H4214916   4.712   3.274   5.224 -0.3119  0.1888  0.2369
   68MOL    H4314917   4.813   3.220   5.417 -1.1196 -1.2188 -1.3607
   68MOL    H4414918   4.423   3.251   5.611  3.1915 -1.8893  0.9825
   68MOL    H4514919   4.323   3.333   5.389  0.4792  1.4955  0.3565
   68MOL    C4614920   4.228   3.640   5.169  0.9058 -0.1262 -0.4367
   68MOL    C4714921   4.276   3.511   5.186 -0.0509  0.0317  0.1443
   68MOL    C4814922   4.411   3.488   5.157 -0.6161  0.4617  0.4532
   68MOL    C4914923   4.493   3.589   5.109 -0.1266 -0.7173 -0.6004
   68MOL    C5014924   4.444   3.722   5.093 -0.0271 -0.4817  0.2826
   68MOL    C5114925   4.309   3.747   5.119  1.3754 -0.2402  0.2195
   68MOL    O5214926   4.258   3.874   5.109 -0.2733  0.0383 -0.1520
   68MOL    H5314927   4.123   3.654   5.186  0.8054 -0.1376 -1.0242
   68MOL    H5414928   4.217   3.429   5.225 -0.9121 -0.1227 -1.4730
   68MOL    H5514929   4.598   3.571   5.088 -0.5019 -2.5788 -0.9313
   68MOL    H5614930   4.501   3.798   5.043 -0.4391  1.2265  2.3622
   68MOL    C5714931   4.310   4.109   4.827  0.4959 -0.4461 -0.2516
   68MOL    C5814932   4.324   4.048   4.956  0.2149  0.6336  0.0493
   68MOL    C5914933   4.256   3.927   4.982  0.0058  0.3663  0.0624
   68MOL    C6014934   4.182   3.867   4.877 -0.9918 -0.1150 -0.2070
   68MOL    C6114935   4.165   3.932   4.758  0.4593 -0.6541 -0.1595
   68MOL    C6214936   4.226   4.049   4.733 -0.3278 -0.8403  0.2152
   68MOL    O6314937   4.212   4.102   4.608  0.7890 -1.4751 -0.1722
   68MOL    H6414938   4.356   4.206   4.818  0.6038 -0.3339  1.3850
   68MOL    H6514939   4.387   4.109   5.018  1.2342 -1.2407  0.9064
   68MOL    H6614940   4.126   3.775   4.887 -2.0993  0.2608 -2.5685
   68MOL    H6714941   4.099   3.888   4.684  0.2515  0.2879 -0.5371
   68MOL    C6814942   4.513   4.213   4.419  0.2460  0.3002  0.3035
   68MOL    C6914943   4.418   4.130   4.479 -0.5549 -0.1139 -0.2921
   68MOL    C7014944   4.303   4.183   4.542 -0.5438  0.9723 -0.1073
   68MOL    C7114945   4.275   4.326   4.527  0.6139 -0.1431  0.5633
   68MOL    C7214946   4.379   4.407   4.477 -0.2316 -0.3322 -0.0468
   68MOL    C7314947   4.499   4.352   4.424 -0.0841 -0.5384  0.8351
   68MOL    O7414948   4.595   4.427   4.364 -0.1247  0.5223  0.3447
   68MOL    H7514949   4.603   4.172   4.375  0.4717  0.0774  0.9712
   68MOL    H7614950   4.446   4.026   4.477 -1.8950 -0.5585  2.0686
   68MOL    H7714951   4.182   4.364   4.565  0.0971  0.7972 -1.5840
   68MOL    H7814952   4.366   4.513   4.485 -0.0175 -0.4155  1.5005
   68MOL    C7914953   4.796   4.660   4.576 -0.7992 -0.0878 -0.0696
   68MOL    C8014954   4.685   4.596   4.518  0.3560 -0.0009  0.2264
   68MOL    C8114955   4.696   4.479   4.446  0.0769 -0.2437  0.3921
   68MOL    C8214956   4.818   4.418   4.451  0.7571  0.0563  1.2680
   68MOL    C8314957   4.937   4.478   4.500  0.5137  0.5275 -0.1261
   68MOL    C8414958   4.924   4.596   4.571 -0.2335 -0.5977 -0.7707
   68MOL    O8514959   5.031   4.647   4.641 -0.2255 -0.2897 -0.0046
   68MOL    H8614960   4.784   4.750   4.633  1.8172  1.0526 -1.2168
   68MOL    H8714961   4.591   4.649   4.512  1.1371  1.4745  1.0342
   68MOL    H8814962   4.835   4.328   4.393 -0.3024  0.5264  0.2069
   68MOL    H8914963   5.022   4.412   4.507 -1.9298 -2.8273 -0.6571
   68MOL    C9014964   5.092   5.002   4.694 -0.8765  0.0940 -0.2528
   68MOL    C9114965   5.083   4.877   4.630  0.0174  0.3103 -0.7054
   68MOL    C9214966   5.033   4.769   4.706  0.5510  0.0717  0.5884
   68MOL    C9314967   4.981   4.782   4.833 -0.0889 -0.3095 -0.0589
   68MOL    C9414968   4.991   4.905   4.895  0.1072  0.4245 -0.0789
   68MOL    C9514969   5.055   5.012   4.830 -0.8490 -0.5244 -0.7806
   68MOL    O9614970   5.072   5.140   4.885  0.0239 -0.2751  0.0659
   68MOL    H9714971   5.136   5.082   4.636 -1.2085  0.6789  0.2927
   68MOL    H9814972   5.107   4.853   4.528 -0.2828  0.5998 -0.8433
   68MOL    H9914973   4.943   4.692   4.880  0.9343  0.0492  1.5001
   68MOL   H10014974   4.941   4.924   4.989 -1.3203 -1.5198 -0.4269
   68MOL   C10114975   5.377   5.339   4.901 -0.7088  0.4184 -0.0176
   68MOL   C10214976   5.253   5.297   4.859  0.7200 -0.2838  0.3755
   68MOL   C10314977   5.200   5.174   4.914 -0.5792 -0.1771 -0.1345
   68MOL   C10414978   5.285   5.090   4.997  0.3944 -0.3639 -0.0068
   68MOL   C10514979   5.417   5.124   5.019  0.0752 -0.6009  0.1679
   68MOL   C10614980   5.464   5.253   4.980  0.0456  0.1168  0.4392
   68MOL   O10714981   5.592   5.283   4.999 -0.3335 -0.7122 -0.4766
   68MOL   H10814982   5.408   5.439   4.873  0.3598  0.5035  1.4190
   68MOL   H10914983   5.193   5.367   4.801  2.8256 -0.2793 -1.8594
   68MOL   H11014984   5.245   5.003   5.047  0.4859 -0.7701 -0.6285
   68MOL   H11114985   5.477   5.052   5.072 -0.3186 -1.3450 -0.3924
   68MOL   C11214986   5.733   5.628   5.082 -0.3986 -0.2749 -0.1051
   68MOL   C11314987   5.704   5.506   5.008  0.0741  0.2638  0.6441
   68MOL   C11414988   5.624   5.400   5.069 -0.5529  0.5873 -0.4577
   68MOL   C11514989   5.590   5.421   5.208  0.4803 -1.2802 -0.3569
   68MOL   C11614990   5.616   5.541   5.277  0.4060  0.6295  0.1027
   68MOL   C11714991   5.694   5.642   5.219  0.1464  1.3913 -0.4120
   68MOL   O11814992   5.729   5.755   5.296  0.4281 -0.0094 -0.1583
   68MOL   H11914993   5.807   5.701   5.053  0.7142 -0.8395  1.2084
   68MOL   H12014994   5.752   5.497   4.912  1.0491  2.6030  0.8635
   68MOL   H12114995   5.540   5.339   5.256 -0.0012 -1.0087 -0.3914
   68MOL   H12214996   5.591   5.558   5.381  1.5873 -0.8103  0.6400
   68MOL   C12314997   5.842   5.830   5.632 -0.0070  0.2443 -0.4686
   68MOL   C12414998   5.769   5.834   5.513 -0.3904  0.1332 -1.7578
   68MOL   C12514999   5.785   5.730   5.420 -0.0400  0.7374 -0.0738
   68MOL   C12615000   5.870   5.623   5.444  0.4432  0.6312  1.2604
   68MOL   C12715001   5.935   5.618   5.576 -0.5925 -0.0889  0.1530
   68MOL   C12815002   5.920   5.718   5.666  0.5025 -0.0565  0.4485
   68MOL   O12915003   5.993   5.708   5.784 -0.4504  0.3793 -0.5674
   68MOL   H13015004   5.825   5.904   5.708 -1.6048 -0.5979  0.0160
   68MOL   H13115005   5.698   5.914   5.503 -1.5051 -0.5379  0.4430
   68MOL   H13215006   5.887   5.545   5.372  0.0499  3.0728 -1.5414
   68MOL   H13315007   6.003   5.539   5.603 -1.0071  0.2299  2.2029
   68MOL   C13415008   5.735   5.660   6.046  0.1154  0.7884 -0.1668
   68MOL   C13515009   5.793   5.657   5.921  0.6376 -0.3862 -0.4499
   68MOL   C13615010   5.923   5.703   5.905  0.2918  0.0875 -0.2175
   68MOL   C13715011   6.000   5.737   6.018 -0.9554 -0.4809 -0.5264
   68MOL   C13815012   5.943   5.743   6.148  0.3257 -0.6527  0.4343
   68MOL   C13915013   5.812   5.703   6.161 -0.8250 -0.4469  0.1059
   68MOL   O14015014   5.751   5.718   6.282 -0.6143 -1.2041 -0.1834
   68MOL   H14115015   5.633   5.634   6.069 -0.6620  0.9525 -3.1312
   68MOL   H14215016   5.741   5.625   5.832  1.2714  0.3637 -1.0941
   68MOL   H14315017   6.097   5.784   6.022 -1.1768 -0.0595  0.1434
   68MOL   H14415018   6.005   5.780   6.228 -0.4718  1.0500  0.2744
   68MOL   C14515019   5.940   5.531   6.534  0.1813 -0.0446  0.3401
   68MOL   C14615020   5.862   5.561   6.423  0.7168  0.0079  0.3838
   68MOL   C14715021   5.820   5.694   6.397 -0.3933  0.2510 -0.9623
   68MOL   C14815022   5.845   5.794   6.490 -0.4232  0.1401  0.0020
   68MOL   C14915023   5.917   5.759   6.606  0.0777  0.6400 -0.3120
   68MOL   C15015024   5.962   5.627   6.632 -0.0530  0.1952 -0.0742
   68MOL   O15115025   6.039   5.600   6.737 -0.3706 -0.2357  0.6963
   68MOL   H15215026   5.980   5.433   6.555  0.8656 -0.3257 -2.1334
   68MOL   H15315027   5.835   5.497   6.341 -3.1486 -1.9428  3.0094
   68MOL   H15415028   5.806   5.894   6.475  0.1917  0.0663 -2.4241
   68MOL   H15515029   5.934   5.833   6.682 -1.1757  0.0174  0.5870
   68MOL   C15615030   6.338   5.821   6.773  0.3568 -0.1467 -0.1890
   68MOL   C15715031   6.206   5.774   6.776  0.5215 -0.0508 -0.3574
   68MOL   C15815032   6.168   5.647   6.728 -0.1017  0.8196 -0.1875
   68MOL   C15915033   6.265   5.568   6.668 -0.5870 -0.0290 -0.3966
   68MOL   C16015034   6.401   5.613   6.664  0.3401  0.6857 -0.0896
   68MOL   C16115035   6.434   5.740   6.712 -0.0053  0.2953  0.3629
   68MOL   O16215036   6.562   5.779   6.702 -0.0177 -0.2889  0.1550
   68MOL   H16315037   6.356   5.924   6.799  0.5596  0.0051 -0.9260
   68MOL   H16415038   6.124   5.834   6.814 -0.4750 -0.0642 -2.4074
   68MOL   H16515039   6.240   5.477   6.616 -1.6772 -1.2923  2.2332
   68MOL   H16615040   6.481   5.552   6.626 -1.7669 -2.2886  0.1053
   68MOL   C16715041   6.729   5.554   6.948 -0.4514 -0.0492 -0.0562
   68MOL   C16815042   6.631   5.614   6.874 -0.4670 -0.0226  0.2949
   68MOL   C16915043   6.661   5.721   6.783  0.9726 -0.1941  0.5825
   68MOL   C17015044   6.796   5.765   6.772  0.9865  0.5153  0.1568
   68MOL   C17115045   6.894   5.703   6.847 -0.0771 -0.1444 -0.3874
   68MOL   C17215046   6.865   5.597   6.942  0.1566 -0.3050  1.1329
   68MOL   O17315047   6.964   5.533   7.002  0.2935  0.0279 -0.1335
   68MOL   H17415048   6.709   5.467   7.009  1.7452  0.0061  0.7814
   68MOL   H17515049   6.533   5.569   6.881 -0.3508  0.0095  2.6577
   68MOL   H17615050   6.821   5.839   6.697  0.9577 -2.2954 -2.7282
   68MOL   H17715051   6.998   5.733   6.844 -0.5112  1.5994  1.1760
   68MOL   C17815052   7.080   5.269   6.764 -0.0179  1.1349  0.0167
   68MOL   C17915053   7.001   5.371   6.816 -0.6800 -0.3030 -0.9581
   68MOL   C18015054   7.040   5.439   6.932 -0.3047 -0.7520  0.3021
   68MOL   C18115055   7.170   5.414   6.973  0.1700  0.1083  0.3634
   68MOL   C18215056   7.262   5.328   6.910  0.3132  0.7141 -0.8831
   68MOL   C18315057   7.213   5.248   6.808 -0.1538 -0.4390  0.5322
   68MOL   O18415058   7.292   5.159   6.735 -0.2466 -0.3590  0.0124
   68MOL   H18515059   7.043   5.217   6.678 -0.0435 -1.9247  1.8128
   68MOL   H18615060   6.903   5.387   6.774 -0.3802  0.9040 -1.2259
   68MOL   H18715061   7.204   5.480   7.052  0.9443  0.0681  0.0700
   68MOL   H18815062   7.363   5.320   6.946 -0.0342  0.3124  0.0248
   68MOL   C18915063   7.637   5.208   6.615 -0.1285 -0.1917  0.5271
   68MOL   C19015064   7.531   5.160   6.691  0.0719 -0.2816 -0.4253
   68MOL   C19115065   7.396   5.206   6.666  0.0347  0.2302  0.2680
   68MOL   C19215066   7.373   5.308   6.574  1.1112  0.4001  0.2031
   68MOL   C19315067   7.486   5.359   6.508  0.4990 -0.7099  0.3747
   68MOL   C19415068   7.618   5.315   6.529  0.4344 -0.1695 -0.3637
   68MOL   O19515069   7.730   5.368   6.465 -0.2690 -0.3393  0.4089
   68MOL   H19615070   7.738   5.169   6.617 -0.3370 -0.7387  0.4124
   68MOL   H19715071   7.549   5.084   6.765  1.0644  0.2329 -0.1218
   68MOL   H19815072   7.274   5.350   6.563  1.0419  0.3290  0.5428
   68MOL   H19915073   7.478   5.441   6.438  2.4815 -1.6655 -1.0141
   68MOL   C20015074   7.781   5.687   6.626 -0.0956 -0.3017  0.0468
   68MOL   C20115075   7.726   5.583   6.554 -0.1582 -0.5504 -0.0456
   68MOL   C20215076   7.793   5.465   6.536  0.5188 -0.2668  0.2053
   68MOL   C20315077   7.935   5.456   6.566 -0.0718  1.0214 -0.1270
   68MOL   C20415078   7.985   5.558   6.646 -0.4429 -0.7298 -0.2883
   68MOL   C20515079   7.906   5.668   6.685  0.2736 -0.0765  0.0556
   68MOL   O20615080   7.966   5.754   6.776 -0.0087  0.3658 -0.5644
   68MOL   H20715081   7.728   5.781   6.631  1.3641  0.5585 -0.2851
   68MOL   H20815082   7.623   5.592   6.523  0.9265  2.3184 -3.1729
   68MOL   H20915083   7.998   5.374   6.537  1.5835  1.6258  1.5869
   68MOL   H21015084   8.085   5.551   6.688 -0.6645  1.1279  0.5721
   68MOL   C21115085   7.722   6.017   6.877  0.0258  0.8805  0.3444
   68MOL   C21215086   7.780   5.893   6.877 -0.5896  0.8075  0.9605
   68MOL   C21315087   7.902   5.869   6.806  0.3336  0.7951  0.6947
   68MOL   C21415088   7.970   5.980   6.753 -0.4883  0.2116 -0.5159
   68MOL   C21515089   7.911   6.109   6.761 -0.2861 -0.2054  0.0545
   68MOL   C21615090   7.783   6.125   6.816  0.2280  0.1064 -0.0142
   68MOL   O21715091   7.728   6.251   6.831  0.8202 -0.0630 -0.0061
   68MOL   H21815092   7.628   6.032   6.928 -0.0000 -0.2167  0.6311
   68MOL   H21915093   7.737   5.810   6.932 -0.7687 -0.3094 -0.7911
   68MOL   H22015094   8.062   5.961   6.698 -0.1383 -0.0510  0.1490
   68MOL   H22115095   7.966   6.197   6.731 -0.4058  0.4132  1.5780
   68MOL   H22215096   7.638   6.256   6.858  0.2983  0.4487 -1.7561
   69MOL     C115097   5.738   4.193   1.934 -0.0224 -0.0684 -0.5924
   69MOL     C215098   5.876   4.166   1.923  0.4700  0.2808  0.3493
   69MOL     C315099   5.942   4.086   2.019 -0.2870  0.0842  0.1428
   69MOL     C415100   5.872   4.043   2.134  0.5863 -0.0737  0.0717
   69MOL     C515101   5.738   4.088   2.153 -0.0045  0.3513  1.0322
   69MOL     C615102   5.675   4.155   2.057  0.3173 -0.1787  0.7566
   69MOL     O715103   5.547   4.187   2.086 -0.5096  0.5478  0.2776
   69MOL     H815104   5.687   4.259   1.865  0.2718 -0.2671 -1.0032
   69MOL     H915105   5.932   4.196   1.836  0.5301 -3.2800 -0.9327
   69MOL    H1015106   5.922   3.985   2.210  1.8359 -0.4969 -1.0497
   69MOL    H1115107   5.687   4.062   2.244 -0.3815  1.3608  1.1199
   69MOL    H1215108   6.043   4.054   1.996 -0.7495 -0.4415 -1.2166
   69MOL    C1315109   5.340   4.451   1.920  0.0462 -0.5798  0.2309
   69MOL    C1415110   5.394   4.325   1.959 -0.4504  0.6021 -0.3045
   69MOL    C1515111   5.496   4.313   2.058  0.3716 -0.0235  0.1869
   69MOL    C1615112   5.535   4.430   2.123  0.3379  0.2172 -0.7979
   69MOL    C1715113   5.481   4.557   2.093  0.6887  0.0764  0.0507
   69MOL    C1815114   5.383   4.570   1.992 -0.0093  0.3311 -0.4627
   69MOL    O1915115   5.337   4.693   1.952  0.0550  0.0671  0.7314
   69MOL    H2015116   5.264   4.463   1.844 -0.4046  4.8808  1.3313
   69MOL    H2115117   5.357   4.239   1.906 -0.7486  1.3320 -1.3076
   69MOL    H2215118   5.617   4.432   2.192 -0.6378  0.4633  0.3672
   69MOL    H2315119   5.531   4.641   2.139  0.3331  0.5260 -0.3729
   69MOL    C2415120   4.975   4.722   2.017  0.1179 -0.0536 -0.3662
   69MOL    C2515121   5.102   4.661   2.010 -0.1387  0.3805 -0.7179
   69MOL    C2615122   5.208   4.739   1.966 -0.1689 -0.0594 -0.5313
   69MOL    C2715123   5.192   4.876   1.928 -0.5157 -0.8459  0.1027
   69MOL    C2815124   5.060   4.931   1.919 -0.0321 -0.1735 -0.6677
   69MOL    C2915125   4.954   4.858   1.981  0.3035  0.1486  1.1701
   69MOL    O3015126   4.832   4.918   2.003 -0.4318  0.3336  0.2373
   69MOL    H3115127   4.898   4.652   2.045  1.1588 -1.4476 -0.9271
   69MOL    H3215128   5.116   4.558   2.041 -0.6866  0.7253  0.7140
   69MOL    H3315129   5.280   4.929   1.895  0.0244 -1.7334  0.1143
   69MOL    H3415130   5.047   5.026   1.869  0.6679  0.5450  0.4781
   69MOL    C3515131   4.884   5.189   2.251  0.3002 -0.5164 -0.0134
   69MOL    C3615132   4.909   5.072   2.174  0.0784  0.0173 -0.1446
   69MOL    C3715133   4.821   5.036   2.069 -0.5603 -0.3704  0.1748
   69MOL    C3815134   4.712   5.121   2.041  0.2226  0.0815 -0.4121
   69MOL    C3915135   4.682   5.231   2.116  0.5669  0.1654 -0.2024
   69MOL    C4015136   4.765   5.267   2.222  0.0458  0.1905  0.6776
   69MOL    O4115137   4.745   5.378   2.287 -0.1645 -0.1346 -0.9051
   69MOL    H4215138   4.950   5.211   2.333 -0.5821  2.1951  0.0252
   69MOL    H4315139   4.996   5.008   2.179 -0.5951 -0.7942  1.6380
   69MOL    H4415140   4.634   5.093   1.971  1.1148 -1.0203 -0.9780
   69MOL    H4515141   4.593   5.284   2.086 -0.2262  0.1774  2.0554
   69MOL    C4615142   4.720   5.742   2.224 -0.2156 -0.2701  0.9805
   69MOL    C4715143   4.684   5.614   2.263  0.0832 -0.0922 -0.0206
   69MOL    C4815144   4.769   5.501   2.230 -0.3836  0.0742 -0.8974
   69MOL    C4915145   4.877   5.526   2.144 -0.0861 -0.1860  0.1834
   69MOL    C5015146   4.905   5.649   2.093  0.3829  0.1165  0.8679
   69MOL    C5115147   4.825   5.762   2.134 -1.0427 -0.2743  0.4357
   69MOL    O5215148   4.847   5.886   2.083  0.0068 -0.1343  0.5400
   69MOL    H5315149   4.666   5.825   2.267 -1.1432  0.6221 -1.7908
   69MOL    H5415150   4.610   5.593   2.338  0.8143  0.7438  0.9399
   69MOL    H5515151   4.941   5.442   2.122 -0.5606 -1.8903  4.7387
   69MOL    H5615152   4.989   5.671   2.029 -1.4061  0.1115 -1.5380
   69MOL    C5715153   4.579   5.997   1.859 -0.1418 -0.2945  0.0197
   69MOL    C5815154   4.681   5.916   1.910 -0.2786  0.2312 -1.0615
   69MOL    C5915155   4.747   5.959   2.029  0.7093  0.1704  0.7714
   69MOL    C6015156   4.705   6.073   2.097 -0.4360  0.4514 -0.4988
   69MOL    C6115157   4.594   6.148   2.047  0.5691  0.5752 -0.5978
   69MOL    C6215158   4.530   6.110   1.929  0.2119  0.0638 -0.8081
   69MOL    O6315159   4.409   6.170   1.901 -0.3140 -0.0143 -0.5594
   69MOL    H6415160   4.522   5.981   1.768 -0.3583  0.8147 -0.0486
   69MOL    H6515161   4.711   5.821   1.866 -0.1396 -0.8135  1.2035
   69MOL    H6615162   4.748   6.108   2.190  2.1069 -0.6809 -1.2132
   69MOL    H6715163   4.558   6.237   2.095 -1.1886 -0.3998 -0.0847
   69MOL    C6815164   4.477   6.472   1.700 -0.4344 -0.3240  0.0550
   69MOL    C6915165   4.498   6.340   1.747 -1.3505  1.0011  0.0116
   69MOL    C7015166   4.409   6.299   1.854 -0.1558  0.2055 -0.9157
   69MOL    C7115167   4.308   6.387   1.904 -0.8984 -0.3005 -0.5773
   69MOL    C7215168   4.304   6.519   1.859  0.2200 -0.8495 -1.0983
   69MOL    C7315169   4.387   6.567   1.758  0.0390  0.5995 -0.1672
   69MOL    O7415170   4.390   6.698   1.730 -0.5372 -0.5153 -0.7012
   69MOL    H7515171   4.548   6.489   1.621  0.8088 -0.3184  1.1561
   69MOL    H7615172   4.569   6.270   1.706 -0.6618  1.5863  0.1804
   69MOL    H7715173   4.240   6.352   1.981 -0.1873  0.2410  0.3115
   69MOL    H7815174   4.232   6.585   1.905  0.9957  0.6154 -1.9514
   69MOL    C7915175   4.085   6.882   1.588  0.4716  0.5441  0.0463
   69MOL    C8015176   4.177   6.826   1.678 -0.9131  0.5023 -0.8869
   69MOL    C8115177   4.292   6.751   1.644  0.0439  0.2701 -0.1139
   69MOL    C8215178   4.311   6.735   1.504 -0.3695 -0.1624  0.5008
   69MOL    C8315179   4.227   6.800   1.409  0.3703  0.3637  0.4269
   69MOL    C8415180   4.114   6.872   1.452  0.2721  0.5503 -0.0714
   69MOL    O8515181   4.038   6.941   1.363 -0.0608  0.0547 -0.4529
   69MOL    H8615182   3.997   6.936   1.621 -1.6899 -2.7267 -0.1367
   69MOL    H8715183   4.157   6.850   1.782  1.4407  2.2482 -0.7838
   69MOL    H8815184   4.399   6.681   1.475 -0.6393  0.8302 -2.2418
   69MOL    H8915185   4.239   6.784   1.303 -2.2509  2.6057 -0.2491
   69MOL    C9015186   4.237   7.211   1.225  0.1726 -0.4475 -0.6281
   69MOL    C9115187   4.200   7.083   1.257  0.1777 -0.3707 -0.1170
   69MOL    C9215188   4.083   7.064   1.338 -0.2755 -0.6198  0.5798
   69MOL    C9315189   4.016   7.181   1.394  0.3655  0.3275  0.4586
   69MOL    C9415190   4.059   7.311   1.355  0.0743 -0.7731 -0.5967
   69MOL    C9515191   4.173   7.324   1.279 -0.9093 -0.0930  1.1437
   69MOL    O9615192   4.239   7.448   1.271 -0.1726  0.2546 -0.2027
   69MOL    H9715193   4.327   7.222   1.165  0.5303  0.1858  0.0252
   69MOL    H9815194   4.248   6.997   1.213 -0.4635 -0.5054 -0.5653
   69MOL    H9915195   3.946   7.157   1.472 -0.2444 -1.9526 -0.7412
   69MOL   H10015196   4.023   7.399   1.407  1.6897 -0.1828 -0.4367
   69MOL   C10115197   4.535   7.430   1.481 -0.7214 -0.7923 -0.1268
   69MOL   C10215198   4.409   7.406   1.431  0.0485 -0.0436 -0.0460
   69MOL   C10315199   4.365   7.466   1.309 -1.4692 -0.3499 -0.7973
   69MOL   C10415200   4.456   7.544   1.228 -0.0503 -0.1590  0.6018
   69MOL   C10515201   4.581   7.571   1.282 -0.0455 -0.2622 -0.2775
   69MOL   C10615202   4.615   7.522   1.413 -0.4975  0.2839  0.1340
   69MOL   O10715203   4.726   7.574   1.473  0.1866  0.8190 -0.2017
   69MOL   H10815204   4.571   7.400   1.578  1.4200 -1.0053 -0.9536
   69MOL   H10915205   4.342   7.339   1.484 -0.5583  0.8061  0.2833
   69MOL   H11015206   4.416   7.585   1.136  0.0340 -2.6624 -0.6025
   69MOL   H11115207   4.650   7.640   1.235 -0.0093  0.4983  0.8678
   69MOL   C11215208   4.703   7.738   1.801  0.5651 -0.6229 -0.1253
   69MOL   C11315209   4.721   7.640   1.704  0.1690 -0.0810 -0.4678
   69MOL   C11415210   4.709   7.671   1.566 -0.0398 -0.4029  0.2982
   69MOL   C11515211   4.680   7.800   1.528 -0.1197  0.1242  0.1773
   69MOL   C11615212   4.671   7.901   1.630  0.0609 -0.2632 -0.1286
   69MOL   C11715213   4.688   7.874   1.769  0.1671  1.2249  0.5459
   69MOL   O11815214   4.674   7.972   1.863  0.3872 -0.1616 -0.1014
   69MOL   H11915215   4.710   7.711   1.905  1.2623 -0.4940 -0.1392
   69MOL   H12015216   4.741   7.538   1.732 -0.3136 -0.0613 -0.0195
   69MOL   H12115217   4.668   7.820   1.423 -1.2789  0.6128  0.3987
   69MOL   H12215218   4.635   7.998   1.599  0.9917  0.4450  0.9678
   69MOL   C12315219   4.769   7.933   2.223  0.1609  0.1697 -0.3657
   69MOL   C12415220   4.780   7.966   2.087 -0.2942  0.1106 -0.3464
   69MOL   C12515221   4.670   7.940   1.996 -0.0107 -0.1585 -0.3387
   69MOL   C12615222   4.551   7.885   2.046 -0.5771 -0.5323 -0.4061
   69MOL   C12715223   4.544   7.852   2.182 -0.1967 -0.0555 -0.1696
   69MOL   C12815224   4.652   7.875   2.271  0.3923  0.6923  0.0774
   69MOL   O12915225   4.654   7.826   2.399 -0.2170  0.1716 -0.2357
   69MOL   H13015226   4.854   7.934   2.289 -1.1519 -0.6576  1.3721
   69MOL   H13115227   4.878   7.999   2.057  0.0036  2.1441  2.6407
   69MOL   H13215228   4.460   7.866   1.992 -0.4745  0.8696 -1.1056
   69MOL   H13315229   4.452   7.809   2.218 -0.3275  1.6537  1.6346
   69MOL   C13415230   4.497   8.071   2.626  0.5272 -0.0068  0.4709
   69MOL   C13515231   4.512   7.983   2.514  0.0595  0.1996  0.2862
   69MOL   C13615232   4.634   7.924   2.496 -0.6304  0.1791  0.2401
   69MOL   C13715233   4.744   7.954   2.588  0.4597 -0.1902 -0.2593
   69MOL   C13815234   4.725   8.031   2.700  0.4506  0.2185  0.4026
   69MOL   C13915235   4.599   8.090   2.721  0.0992 -0.1019 -0.0455
   69MOL   O14015236   4.578   8.176   2.825  0.1029  0.6360 -0.3466
   69MOL   H14115237   4.398   8.112   2.644  0.6501  0.2722  0.5017
   69MOL   H14215238   4.427   7.960   2.452  0.2502 -1.7448  0.7358
   69MOL   H14315239   4.845   7.917   2.574  1.0292  1.3248 -0.1596
   69MOL   H14415240   4.804   8.043   2.772  0.8021 -0.2769  0.1116
   69MOL   C14515241   4.287   8.210   3.038  0.7121  0.3167 -0.0713
   69MOL   C14615242   4.375   8.220   2.929  0.1325 -0.7087  0.4631
   69MOL   C14715243   4.493   8.142   2.919  0.4241 -0.4928 -0.3295
   69MOL   C14815244   4.517   8.044   3.012 -0.2508 -0.2566  0.3985
   69MOL   C14915245   4.423   8.025   3.120 -0.1626 -0.3119  0.1187
   69MOL   C15015246   4.311   8.109   3.138 -0.2586  0.4024  0.1791
   69MOL   O15115247   4.224   8.088   3.238 -0.1820 -0.1793 -0.0241
   69MOL   H15215248   4.194   0.011   3.030  0.2190 -0.3464  0.9387
   69MOL   H15315249   4.345   0.030   2.846  0.3619 -1.5232 -0.2573
   69MOL   H15415250   4.604   7.985   2.987  0.8189  0.2212  2.8432
   69MOL   H15515251   4.441   7.939   3.183 -0.7063 -1.9691 -1.9608
   69MOL   C15615252   4.171   0.127   3.455  0.5773 -0.5766 -0.2094
   69MOL   C15715253   4.171   0.047   3.336  0.2856 -0.7905  0.8033
   69MOL   C15815254   4.229   8.173   3.343  0.0833 -0.4299 -0.7140
   69MOL   C15915255   4.297   8.130   3.454  0.4856  0.1324 -0.4295
   69MOL   C16015256   4.307   8.214   3.570 -0.6870 -0.0907  0.1220
   69MOL   C16115257   4.240   0.083   3.571  0.2151 -0.2541 -0.5064
   69MOL   O16215258   4.245   0.158   3.684  0.3191  0.4485  0.2184
   69MOL   H16315259   4.116   0.218   3.436  0.5289 -0.9698 -2.0289
   69MOL   H16415260   4.138   0.087   3.241 -1.1613  0.3049  1.7435
   69MOL   H16515261   4.337   8.030   3.447  0.5902  0.2325 -1.3798
   69MOL   H16615262   4.362   8.186   3.658 -1.6164  1.6602  1.2852
   69MOL   C16715263   4.424   0.477   3.639  0.3817 -0.0103  0.0047
   69MOL   C16815264   4.320   0.382   3.641 -0.0787  0.6532  0.5142
   69MOL   C16915265   4.344   0.251   3.692 -0.1195 -0.4328  0.4760
   69MOL   C17015266   4.468   0.228   3.754 -0.3832 -0.0937  0.9126
   69MOL   C17115267   4.571   0.324   3.747  0.1458 -0.1361  0.1161
   69MOL   C17215268   4.548   0.450   3.690 -0.0677 -0.7137  0.1918
   69MOL   O17315269   4.651   0.546   3.687 -0.4888  0.5389  0.4581
   69MOL   H17415270   4.410   0.578   3.603  0.4941  1.3231  3.4962
   69MOL   H17515271   4.223   0.402   3.598 -0.1395 -1.0148 -0.1404
   69MOL   H17615272   4.478   0.142   3.819 -0.6272 -1.7644 -1.1978
   69MOL   H17715273   4.662   0.303   3.801  0.2894 -0.2562 -0.1705
   69MOL   C17815274   4.913   0.678   3.467  0.0146 -0.1616 -0.1048
   69MOL   C17915275   4.809   0.671   3.562  0.8940  0.7643  0.1480
   69MOL   C18015276   4.743   0.546   3.585 -0.7453  0.2682 -0.7571
   69MOL   C18115277   4.794   0.431   3.516  0.6525  0.7742 -0.0340
   69MOL   C18215278   4.890   0.439   3.416 -0.2137 -0.1551  0.4154
   69MOL   C18315279   4.952   0.565   3.392  0.2958 -0.7672  0.2653
   69MOL   O18415280   5.046   0.598   3.292 -0.7458  0.0849  0.2547
   69MOL   H18515281   4.953   0.775   3.439 -0.4829 -0.3837 -1.6182
   69MOL   H18615282   4.783   0.766   3.608  0.2043  0.8947 -0.5021
   69MOL   H18715283   4.748   0.333   3.526  1.2047  0.3877 -1.2192
   69MOL   H18815284   4.920   0.353   3.357 -1.2057  1.4217 -2.4851
   69MOL   C18915285   5.001   0.378   2.995  0.1759 -0.1354  0.4286
   69MOL   C19015286   4.971   0.471   3.097 -0.5983 -0.7086 -0.1450
   69MOL   C19115287   5.072   0.508   3.189  0.5271  0.3900 -0.0867
   69MOL   C19215288   5.199   0.451   3.190 -0.0052  0.2122 -0.5340
   69MOL   C19315289   5.236   0.365   3.085 -0.0101  0.0815 -0.2225
   69MOL   C19415290   5.143   0.330   2.984  0.0171 -0.3817 -0.4489
   69MOL   O19515291   5.177   0.241   2.885 -0.1161 -0.1113 -0.3402
   69MOL   H19615292   4.929   0.346   2.921  0.5177  0.6200 -0.2402
   69MOL   H19715293   4.870   0.510   3.105 -0.1337  0.3165  0.7859
   69MOL   H19815294   5.271   0.493   3.259  0.8221 -1.0429 -0.6187
   69MOL   H19915295   5.336   0.325   3.071 -0.0495  0.1569 -0.7188
   69MOL   C20015296   5.225   8.166   3.054 -0.3415 -0.0903 -0.2272
   69MOL   C20115297   5.173   0.044   3.029  0.2227  0.4142  0.2858
   69MOL   C20215298   5.230   0.120   2.923 -0.3526 -0.0940  0.2590
   69MOL   C20315299   5.330   0.063   2.840 -0.0666 -0.2001  0.1909
   69MOL   C20415300   5.375   8.193   2.867 -0.4237  0.7512  0.8884
   69MOL   C20515301   5.331   8.117   2.978  0.6562 -0.2744 -0.4096
   69MOL   O20615302   5.390   7.998   3.013 -0.2351  0.0665  0.7968
   69MOL   H20715303   5.189   8.103   3.134  1.9241 -0.0410  0.8635
   69MOL   H20815304   5.094   0.090   3.086  0.4878  0.6012  0.5011
   69MOL   H20915305   5.363   0.121   2.755 -1.3427 -0.5506 -0.5531
   69MOL   H21015306   5.449   8.153   2.799  1.7911 -0.0582  3.6684
   69MOL   C21115307   5.692   7.850   2.884 -0.0336 -0.0230  0.5694
   69MOL   C21215308   5.556   7.888   2.899  0.1152 -0.5326  0.2267
   69MOL   C21315309   5.523   7.979   2.995  0.3398 -0.9700  0.2744
   69MOL   C21415310   5.622   8.035   3.077 -0.6671 -0.0359  0.0689
   69MOL   C21515311   5.760   8.004   3.063 -0.0792  0.4650  0.0395
   69MOL   C21615312   5.793   7.909   2.961 -0.3806  0.2397 -0.1511
   69MOL   O21715313   5.915   7.853   2.957  0.2286  0.1958  0.2881
   69MOL   H21815314   5.707   7.777   2.806 -0.3024 -0.1046  0.5943
   69MOL   H21915315   5.486   7.835   2.835 -0.5522 -0.5061  0.9211
   69MOL   H22015316   5.590   8.095   3.161  0.3844  1.4975 -0.6119
   69MOL   H22115317   5.825   8.040   3.141  1.2245  0.9029 -1.2321
   69MOL   H22215318   5.916   7.802   2.878  2.1358 -0.0174  0.4293
   70MOL     C115319   5.324   0.116   0.513 -0.4297 -0.6299 -0.7604
   70MOL     C215320   5.269   0.047   0.402 -0.6521  0.2440 -0.1212
   70MOL     C315321   5.278   0.108   0.275 -0.9790  0.1675  0.3143
   70MOL     C415322   5.336   0.240   0.254  0.1069  0.3241 -0.1035
   70MOL     C515323   5.394   0.300   0.365  0.0629 -0.1320  0.6429
   70MOL     C615324   5.386   0.245   0.497  0.2809  0.4895  0.0940
   70MOL     O715325   5.450   0.314   0.598 -0.4278  0.2629 -0.3721
   70MOL     H815326   5.316   0.080   0.614  1.3308 -0.9660 -0.7176
   70MOL     H915327   5.230   8.201   0.414  2.8269 -0.9751  1.8460
   70MOL    H1015328   5.348   0.281   0.155 -1.7886  1.6556  0.1878
   70MOL    H1115329   5.439   0.398   0.357 -1.8810  0.6596 -1.0017
   70MOL    H1215330   5.238   0.056   0.189  0.0205 -0.6246  0.3214
   70MOL    C1315331   5.784   0.190   0.695  0.2577  0.0956 -0.4873
   70MOL    C1415332   5.645   0.209   0.695 -0.8786 -0.7523 -0.1152
   70MOL    C1515333   5.588   0.295   0.600 -0.4242 -0.5156 -0.4720
   70MOL    C1615334   5.667   0.372   0.514  0.4311 -0.3269 -0.4994
   70MOL    C1715335   5.809   0.358   0.520 -0.1396 -0.1942  0.1546
   70MOL    C1815336   5.871   0.264   0.608  0.5219  0.3037 -0.5764
   70MOL    O1915337   6.007   0.235   0.605  0.2586 -0.0132 -0.7846
   70MOL    H2015338   5.821   0.114   0.761 -0.4275  1.6859  1.8099
   70MOL    H2115339   5.571   0.166   0.761 -1.3749 -0.7248 -0.6464
   70MOL    H2215340   5.621   0.442   0.446  0.7813  0.2186 -0.1744
   70MOL    H2315341   5.869   0.418   0.454 -1.5578  1.6011  0.4573
   70MOL    C2415342   6.236   0.477   0.447 -0.3058 -0.1431  0.4927
   70MOL    C2515343   6.146   0.413   0.532 -0.4493 -0.3724 -0.6842
   70MOL    C2615344   6.094   0.286   0.511 -0.5396 -0.2107 -1.0788
   70MOL    C2715345   6.141   0.212   0.399 -0.3138  0.3133 -0.3583
   70MOL    C2815346   6.224   0.277   0.308  1.0357 -0.6774 -0.2466
   70MOL    C2915347   6.270   0.414   0.328  0.2546  0.2443  0.0369
   70MOL    O3015348   6.345   0.483   0.234  0.0355  0.2588  0.1552
   70MOL    H3115349   6.283   0.570   0.475 -0.9972  0.0419  1.0355
   70MOL    H3215350   6.116   0.469   0.620  1.8252 -0.2801  0.0525
   70MOL    H3315351   6.103   0.111   0.390 -0.6323  0.6025 -2.4732
   70MOL    H3415352   6.263   0.228   0.219 -0.1842 -2.6498  0.2655
   70MOL    C3515353   6.702   0.397   0.230 -0.0538  0.2396 -0.1151
   70MOL    C3615354   6.564   0.381   0.236  0.1084  0.8564 -0.3274
   70MOL    C3715355   6.483   0.492   0.237 -0.0179  0.0398 -0.8906
   70MOL    C3815356   6.536   0.622   0.232  0.5027  0.5002  0.8853
   70MOL    C3915357   6.677   0.635   0.244  1.0487  0.1255  0.0685
   70MOL    C4015358   6.763   0.524   0.247  0.1866  0.0205 -0.1816
   70MOL    O4115359   6.901   0.532   0.259  0.3554  0.0738 -0.6525
   70MOL    H4215360   6.769   0.312   0.222 -1.4524 -0.8631 -0.2962
   70MOL    H4315361   6.528   0.279   0.236  1.2715  0.4356 -1.4319
   70MOL    H4415362   6.470   0.708   0.235  0.5926  0.5740  0.7335
   70MOL    H4515363   6.731   0.728   0.235  0.1168  0.7249  0.5911
   70MOL    C4615364   7.004   0.373   0.576  0.2466 -0.8831  0.3707
   70MOL    C4715365   6.936   0.457   0.492  0.9632  1.3018  0.7943
   70MOL    C4815366   6.963   0.455   0.353 -0.2841 -0.2984 -0.2921
   70MOL    C4915367   7.076   0.376   0.309  0.2043  0.4374 -0.3479
   70MOL    C5015368   7.145   0.285   0.392  0.0256  0.7377 -0.2118
   70MOL    C5115369   7.113   0.292   0.527 -0.5449 -0.8799 -0.1326
   70MOL    O5215370   7.196   0.222   0.611  0.9676 -0.1283  0.4103
   70MOL    H5315371   6.973   0.369   0.680 -0.6909  2.8793  0.3173
   70MOL    H5415372   6.848   0.511   0.524  0.2849 -0.7750  2.5887
   70MOL    H5515373   7.113   0.391   0.209  2.0178  2.6808  0.6095
   70MOL    H5615374   7.227   0.221   0.365  1.8303  1.4764  3.2660
   70MOL    C5715375   6.989   8.206   0.753  0.0853  0.2034 -0.1606
   70MOL    C5815376   7.048   0.083   0.734 -0.2595  0.5237 -0.0318
   70MOL    C5915377   7.158   0.099   0.644  0.0284 -0.0896  0.4774
   70MOL    C6015378   7.208   8.242   0.581  0.1562  0.0969  0.0374
   70MOL    C6115379   7.158   8.114   0.612  0.1385 -0.2992 -0.3248
   70MOL    C6215380   7.050   8.094   0.700 -0.1704 -0.0571 -0.7220
   70MOL    O6315381   6.997   7.971   0.719 -0.0048 -0.6497  0.0350
   70MOL    H6415382   6.899   8.186   0.808 -0.1301 -0.2317 -0.6695
   70MOL    H6515383   6.998   0.170   0.772  0.8504  1.0532  0.2371
   70MOL    H6615384   7.290   0.005   0.513 -1.3353  3.0260 -1.1430
   70MOL    H6715385   7.205   8.024   0.575  2.4996  0.8983 -0.3562
   70MOL    C6815386   7.176   7.823   1.006  1.1765 -0.0932  0.7965
   70MOL    C6915387   7.142   7.915   0.909  0.4317 -0.5996  1.0208
   70MOL    C7015388   7.029   7.884   0.825 -0.4130 -0.3808  0.6482
   70MOL    C7115389   6.956   7.767   0.843  0.2738 -0.1847 -0.0560
   70MOL    C7215390   6.995   7.669   0.936 -0.1024 -0.4244 -0.7194
   70MOL    C7315391   7.108   7.703   1.022 -0.5086  0.2223 -0.2495
   70MOL    O7415392   7.130   7.619   1.127 -0.2967 -0.1289  0.0016
   70MOL    H7515393   7.254   7.851   1.075  1.3650  0.3702  0.3984
   70MOL    H7615394   7.201   8.005   0.904 -0.1485 -0.2480  0.2440
   70MOL    H7715395   6.865   7.751   0.787  0.1273  0.1887  0.0727
   70MOL    H7815396   6.914   7.600   0.954  0.1720 -0.4866  0.3001
   70MOL    C7915397   7.418   7.445   1.268  0.3190  0.0717 -0.2769
   70MOL    C8015398   7.304   7.524   1.254 -0.3944 -0.3491  0.4127
   70MOL    C8115399   7.245   7.546   1.130  0.0989  0.0142 -0.5053
   70MOL    C8215400   7.309   7.498   1.019 -0.1532 -0.0349 -0.8855
   70MOL    C8315401   7.428   7.425   1.030  0.6711  0.1946 -0.3550
   70MOL    C8415402   7.481   7.392   1.155  0.4662 -0.3981  0.2155
   70MOL    O8515403   7.596   7.317   1.165 -0.3575 -0.5728 -0.2118
   70MOL    H8615404   7.472   7.438   1.362 -1.1889  0.9611  0.6801
   70MOL    H8715405   7.254   7.575   1.335  1.7994  0.9563  0.9829
   70MOL    H8815406   7.254   7.508   0.927 -0.7853  0.7518 -0.4266
   70MOL    H8915407   7.473   7.392   0.938 -0.0381  0.2226 -0.7074
   70MOL    C9015408   7.701   6.980   1.276 -0.0930 -0.6897  0.2477
   70MOL    C9115409   7.705   7.112   1.233 -0.2328 -0.7498  0.2499
   70MOL    C9215410   7.585   7.180   1.193  0.4375 -0.0139  0.5522
   70MOL    C9315411   7.473   7.103   1.177 -0.3731  0.4693 -0.0942
   70MOL    C9415412   7.473   6.969   1.212 -0.0536 -0.1908  0.0397
   70MOL    C9515413   7.585   6.902   1.261  0.4854  0.3316 -1.0269
   70MOL    O9615414   7.581   6.770   1.287 -0.0417 -0.4080  0.2045
   70MOL    H9715415   7.796   6.940   1.309  0.2587  0.2097  0.3186
   70MOL    H9815416   7.794   7.173   1.239 -0.5143 -0.2661 -0.3898
   70MOL    H9915417   7.381   7.149   1.143  2.3251  4.6580 -2.1299
   70MOL   H10015418   7.381   6.912   1.206  0.8877 -1.7555  0.1845
   70MOL   C10115419   7.707   6.558   1.562 -0.3463 -0.7284  0.4277
   70MOL   C10215420   7.658   6.592   1.431 -0.2634  0.1592  0.0312
   70MOL   C10315421   7.617   6.726   1.412  0.1297  0.1064  0.5979
   70MOL   C10415422   7.609   6.811   1.526  0.1290  0.2932 -0.0196
   70MOL   C10515423   7.653   6.775   1.649  0.8307 -0.3389  0.0200
   70MOL   C10615424   7.701   6.651   1.670  0.1107  0.6046  0.5135
   70MOL   O10715425   7.750   6.605   1.786  0.4869  0.3506 -0.0740
   70MOL   H10815426   7.732   6.455   1.587 -1.0231 -0.3502  2.7673
   70MOL   H10915427   7.645   6.514   1.358 -2.3236  0.2673  0.2316
   70MOL   H11015428   7.559   6.907   1.512 -0.0556  0.1610 -0.2762
   70MOL   H11115429   7.644   6.851   1.725 -1.0446 -1.2238  0.7163
   70MOL   C11215430   8.060   6.761   1.913  0.3417 -0.6250  0.1472
   70MOL   C11315431   7.919   6.745   1.875 -0.1130  0.2400 -0.2686
   70MOL   C11415432   7.882   6.625   1.817  0.4240 -0.6242  0.2128
   70MOL   C11515433   7.972   6.525   1.782 -0.5237 -0.3894  0.2202
   70MOL   C11615434   8.108   6.551   1.806  0.4560  0.0939  0.2515
   70MOL   C11715435   8.152   6.666   1.870  0.3075 -0.2756  0.7164
   70MOL   O11815436   0.032   6.673   1.906  0.2693 -0.4507  0.4156
   70MOL   H11915437   8.096   6.849   1.964 -0.1255 -2.4598  3.8626
   70MOL   H12015438   7.842   6.817   1.900 -0.7505 -0.1939 -0.9556
   70MOL   H12115439   7.938   6.445   1.719 -2.1471  0.0539  0.5186
   70MOL   H12215440   8.182   6.481   1.771 -0.5232 -0.7858 -0.0798
   70MOL   C12315441   0.261   6.914   1.747 -0.5735 -0.1466  0.3351
   70MOL   C12415442   0.160   6.863   1.835  0.3817 -0.0168 -0.5608
   70MOL   C12515443   0.112   6.727   1.810  0.3307  0.1328 -0.3061
   70MOL   C12615444   0.158   6.650   1.701  0.5857 -0.1619  0.3371
   70MOL   C12715445   0.248   6.708   1.616 -0.4563 -0.6316  0.1112
   70MOL   C12815446   0.304   6.835   1.636  0.3892 -0.7215 -0.0736
   70MOL   O12915447   0.395   6.898   1.556  0.0749  0.2787  0.0530
   70MOL   H13015448   0.305   7.012   1.757  0.1647 -0.6858  2.6373
   70MOL   H13115449   0.119   6.922   1.916 -1.2144  0.2658 -1.5494
   70MOL   H13215450   0.119   6.552   1.679  2.9169 -1.5386  2.1204
   70MOL   H13315451   0.287   6.657   1.529 -1.6612 -1.3018 -0.0426
   70MOL   C13415452   0.219   6.992   1.242  0.3122 -0.3973  0.4252
   70MOL   C13515453   0.239   6.932   1.370 -0.2927 -0.3848  0.2386
   70MOL   C13615454   0.355   6.962   1.444 -1.1120 -0.3924  0.0510
   70MOL   C13715455   0.456   7.043   1.377 -0.2652  0.1604 -0.3468
   70MOL   C13815456   0.437   7.095   1.250  0.7332 -0.2308  0.2454
   70MOL   C13915457   0.317   7.071   1.181 -0.5731 -0.1641  0.2293
   70MOL   O14015458   0.296   7.128   1.057 -0.2027  0.1054 -0.4444
   70MOL   H14115459   0.120   6.975   1.203 -0.1327 -0.8318  1.7070
   70MOL   H14215460   0.159   6.869   1.406 -0.2886  0.1315  1.1721
   70MOL   H14315461   0.545   7.059   1.437 -0.5791  2.6597 -0.5050
   70MOL   H14415462   0.510   7.160   1.204 -2.0749  2.1943 -0.8921
   70MOL   C14515463   8.240   7.028   0.883 -0.5675  0.3313  0.0519
   70MOL   C14615464   0.119   7.025   0.923  0.5606 -0.2195 -0.3083
   70MOL   C14715465   0.176   7.130   1.000  0.8097 -0.0494  0.0900
   70MOL   C14815466   0.086   7.235   1.033  0.7239  0.1918  0.0924
   70MOL   C14915467   8.204   7.242   0.988 -0.2621  0.3389 -0.4861
   70MOL   C15015468   8.150   7.133   0.913 -0.3375 -0.3224  0.0945
   70MOL   O15115469   8.025   7.145   0.858  0.9182  0.1007 -0.5537
   70MOL   H15215470   8.209   6.946   0.819  1.9614  1.1431 -2.2892
   70MOL   H15315471   0.186   6.953   0.879  0.8328  0.1337 -0.4701
   70MOL   H15415472   0.118   7.313   1.101  0.4240 -0.1012  0.5807
   70MOL   H15515473   8.140   7.327   1.007  0.1239  0.6321 -0.4808
   70MOL   C15615474   7.868   6.849   0.700  0.1436 -0.5693  0.5789
   70MOL   C15715475   7.931   6.972   0.717  0.4444  0.2747 -0.4910
   70MOL   C15815476   7.954   7.027   0.843  0.7133 -0.0786  0.0856
   70MOL   C15915477   7.917   6.955   0.958 -0.0825  0.1149 -0.0825
   70MOL   C16015478   7.863   6.826   0.944  0.4761  0.5495 -0.3662
   70MOL   C16115479   7.834   6.777   0.814 -1.0392 -0.2570  0.4209
   70MOL   O16215480   7.794   6.647   0.789 -0.1372  0.2028 -0.1311
   70MOL   H16315481   7.859   6.803   0.603 -2.8434 -1.0895  1.0549
   70MOL   H16415482   7.957   7.019   0.623  0.6017  2.7354  0.7549
   70MOL   H16515483   7.938   7.001   1.053 -0.0975  1.0783 -0.5388
   70MOL   H16615484   7.833   6.770   1.031  0.4564  1.7804  0.4335
   70MOL   C16715485   7.573   6.438   1.007  0.4140 -0.4616  0.3888
   70MOL   C16815486   7.688   6.477   0.934  0.0488  0.2411 -0.3220
   70MOL   C16915487   7.683   6.593   0.852  0.0720  0.2596 -0.2183
   70MOL   C17015488   7.561   6.655   0.831 -0.1059  0.3210 -0.1590
   70MOL   C17115489   7.442   6.593   0.882 -0.6422  0.4950  0.3596
   70MOL   C17215490   7.446   6.480   0.965 -0.5169 -0.4259  0.2911
   70MOL   O17315491   7.337   6.433   1.029 -0.4403  0.4015 -0.0943
   70MOL   H17415492   7.578   6.352   1.073 -1.1840 -0.5329  0.4315
   70MOL   H17515493   7.781   6.423   0.946 -1.1998 -1.7693  0.6166
   70MOL   H17615494   7.561   6.745   0.771  3.3549 -0.6194 -1.6381
   70MOL   H17715495   7.348   6.637   0.854 -0.1252  0.4781 -1.4746
   70MOL   C17815496   7.296   6.590   1.356 -0.4094 -0.2248 -0.4256
   70MOL   C17915497   7.355   6.536   1.242  0.3255 -0.4265  0.1918
   70MOL   C18015498   7.279   6.504   1.126  0.8554  0.0426 -0.2533
   70MOL   C18115499   7.140   6.538   1.131 -0.3713 -0.7924  0.8227
   70MOL   C18215500   7.083   6.597   1.245 -0.9399 -0.4487 -0.2501
   70MOL   C18315501   7.163   6.636   1.351  0.3764 -0.2299 -0.7161
   70MOL   O18415502   7.114   6.697   1.468  0.3928 -0.0738  0.1794
   70MOL   H18515503   7.360   6.617   1.439 -1.1559 -1.6959  0.6368
   70MOL   H18615504   7.462   6.524   1.243  0.1689 -1.8710  1.2608
   70MOL   H18715505   7.082   6.515   1.042  1.1482 -0.5752 -0.2418
   70MOL   H18815506   6.977   6.616   1.255 -0.0448  3.9568  2.1996
   70MOL   C18915507   7.308   6.935   1.678 -0.0353  0.1585  0.5994
   70MOL   C19015508   7.270   6.813   1.616  0.1556  0.1056 -0.2701
   70MOL   C19115509   7.174   6.815   1.517 -0.0684  0.3623 -0.2086
   70MOL   C19215510   7.138   6.938   1.465  0.5988 -0.2523  0.4664
   70MOL   C19315511   7.177   7.061   1.525 -0.2127 -0.4406 -0.1322
   70MOL   C19415512   7.265   7.062   1.635 -0.2561  0.4912  0.0407
   70MOL   O19515513   7.309   7.176   1.690 -0.2856  0.3632 -0.4039
   70MOL   H19615514   7.384   6.924   1.754  2.2326  1.3474 -1.4680
   70MOL   H19715515   7.317   6.723   1.654  0.2207 -0.8222 -2.4671
   70MOL   H19815516   7.081   6.947   1.373 -0.6764 -1.5211  1.1132
   70MOL   H19915517   7.144   7.158   1.489  2.0946  0.0144 -1.1472
   70MOL   C20015518   7.613   7.199   1.890 -0.1932 -0.1724 -0.3100
   70MOL   C20115519   7.475   7.184   1.857 -0.6409 -0.2457  0.4631
   70MOL   C20215520   7.440   7.189   1.722 -0.3305 -0.6967 -0.3597
   70MOL   C20315521   7.533   7.226   1.620 -0.6021 -0.2161 -0.0189
   70MOL   C20415522   7.667   7.249   1.655  0.3084  0.9236  0.0386
   70MOL   C20515523   7.705   7.244   1.789 -1.1996  0.4599  0.4594
   70MOL   O20615524   7.838   7.266   1.825  0.2572  0.8247 -0.3355
   70MOL   H20715525   7.651   7.195   1.991 -1.0162  1.8650  0.0998
   70MOL   H20815526   7.405   7.161   1.936 -0.2724 -0.9199  0.5906
   70MOL   H20915527   7.504   7.219   1.516 -1.1052 -0.1136  0.1125
   70MOL   H21015528   7.727   7.291   1.576 -0.2065  2.3537  0.3959
   70MOL   C21115529   7.886   7.637   1.868  0.0054  0.0379  0.0269
   70MOL   C21215530   7.822   7.507   1.855 -0.8550 -0.0947 -0.1413
   70MOL   C21315531   7.893   7.387   1.816 -0.1661  0.1944  0.4713
   70MOL   C21415532   8.028   7.399   1.794 -0.1942  0.4909 -0.3894
   70MOL   C21515533   8.090   7.525   1.792  0.2632 -0.1049 -0.5372
   70MOL   C21615534   8.020   7.640   1.830  0.4344 -0.3708  0.6055
   70MOL   O21715535   8.088   7.756   1.829  0.3817  0.2354  0.1823
   70MOL   H21815536   7.828   7.723   1.898 -0.3908  0.2539 -1.3275
   70MOL   H21915537   7.718   7.498   1.883 -1.2302  0.8809 -1.1705
   70MOL   H22015538   8.083   7.307   1.778 -3.3005 -1.5442  0.3131
   70MOL   H22115539   8.196   7.531   1.770  0.1819  0.3352 -0.8276
   70MOL   H22215540   8.050   7.837   1.860 -0.3811  0.5426 -1.5172
   71MOL     C115541   4.210   8.122   4.023 -0.4130  0.0010  0.2643
   71MOL     C215542   4.339   8.129   4.082  0.3238  0.2821 -0.1558
   71MOL     C315543   4.402   8.250   4.084 -0.1050 -0.3414  0.3673
   71MOL     C415544   4.347   0.115   4.034  0.1588  0.1486  0.3443
   71MOL     C515545   4.212   0.112   3.977  0.2619  0.3204 -0.0417
   71MOL     C615546   4.144   8.240   3.973  0.5941  0.6603  0.9244
   71MOL     O715547   4.022   8.230   3.912  0.4913  0.2682  0.4273
   71MOL     H815548   4.162   8.025   4.018 -1.8813  0.6803  0.9738
   71MOL     H915549   4.379   8.035   4.117  1.3191 -0.5608 -3.3368
   71MOL    H1015550   4.410   0.203   4.030  1.0044 -0.4692  0.0239
   71MOL    H1115551   4.160   0.194   3.932  0.8831  0.2366 -0.9193
   71MOL    H1215552   4.501   0.009   4.126 -0.4638 -0.3717  1.2359
   71MOL    C1315553   3.769   8.156   4.163  0.3981  0.2656 -0.5490
   71MOL    C1415554   3.882   8.211   4.104 -0.5636  0.0344  0.4873
   71MOL    C1515555   3.916   8.167   3.974 -0.9705  0.1562 -0.7598
   71MOL    C1615556   3.839   8.067   3.905 -0.4728  0.4546  0.3660
   71MOL    C1715557   3.721   8.012   3.966 -0.0759  0.0496  0.4252
   71MOL    C1815558   3.692   8.057   4.101 -0.1036  0.5195  0.9189
   71MOL    O1915559   3.592   8.001   4.174  0.6253 -0.1095 -0.5443
   71MOL    H2015560   3.740   8.189   4.262  0.6560  0.6958 -0.6172
   71MOL    H2115561   3.936   0.040   4.148 -0.2182 -0.4572  0.9930
   71MOL    H2215562   3.870   8.045   3.804  1.8952  1.2938  0.8756
   71MOL    H2315563   3.676   7.924   3.922  2.2358 -0.2228 -1.4928
   71MOL    C2415564   3.286   8.215   4.104  0.1817  0.4673 -0.6623
   71MOL    C2515565   3.419   8.178   4.128  0.1488 -0.1248  0.0848
   71MOL    C2615566   3.463   8.042   4.145  0.0089 -0.3828  0.1600
   71MOL    C2715567   3.360   7.946   4.144  0.0102 -0.5100 -0.0598
   71MOL    C2815568   3.227   7.984   4.124  0.1438 -0.2856 -0.0884
   71MOL    C2915569   3.188   8.112   4.108 -0.3333  0.1424 -0.4139
   71MOL    O3015570   3.051   8.135   4.079 -0.0813 -0.0636  0.1871
   71MOL    H3115571   3.261   0.065   4.091 -2.6287 -0.1128 -0.1120
   71MOL    H3215572   3.494   8.253   4.146 -0.5349  0.7930 -0.8193
   71MOL    H3315573   3.381   7.840   4.150  0.2383 -0.4726 -0.2204
   71MOL    H3415574   3.161   7.900   4.110 -0.5412 -0.1887  2.1839
   71MOL    C3515575   3.005   0.039   3.746 -0.4580 -0.1354 -0.5921
   71MOL    C3615576   3.030   0.023   3.886 -0.7618  0.2973 -0.1408
   71MOL    C3715577   3.017   8.151   3.945 -0.3779 -0.6661 -0.6492
   71MOL    C3815578   2.973   8.038   3.864 -0.2964 -0.8100  1.2246
   71MOL    C3915579   2.951   8.057   3.723  0.3124 -0.2765  0.0652
   71MOL    C4015580   2.977   8.186   3.666  0.7235 -0.2838  0.5705
   71MOL    O4115581   2.958   8.196   3.534 -0.1112 -0.0123  0.8522
   71MOL    H4215582   3.016   0.140   3.709  1.4441  0.6424  1.9184
   71MOL    H4315583   3.060   0.112   3.939  0.2073  0.3107 -0.6897
   71MOL    H4415584   2.956   7.939   3.903 -2.1973 -1.0276 -0.0822
   71MOL    H4515585   2.912   7.978   3.660 -2.4209 -0.0572  1.4530
   71MOL    C4615586   3.133   8.229   3.221  0.2412 -0.4364  0.6670
   71MOL    C4715587   3.033   8.232   3.317  0.6050  0.7035  0.1121
   71MOL    C4815588   3.055   8.182   3.443 -0.4708 -0.3810 -0.1612
   71MOL    C4915589   3.179   8.141   3.484  0.1164  0.7108  0.1132
   71MOL    C5015590   3.280   8.129   3.387 -0.3216 -0.6826 -0.2830
   71MOL    C5115591   3.258   8.164   3.253 -0.2457  0.4492 -0.0886
   71MOL    O5215592   3.361   8.155   3.160  0.4464  0.7003  0.6853
   71MOL    H5315593   3.120   0.019   3.123  2.0142 -2.4767 -0.5294
   71MOL    H5415594   2.936   0.018   3.294 -0.3550 -1.8308 -0.3459
   71MOL    H5515595   3.193   8.109   3.586  0.5155  2.0911  0.5064
   71MOL    H5615596   3.373   8.082   3.417  0.0615  1.7515  2.5669
   71MOL    C5715597   3.324   8.078   2.805  0.2040 -0.5345  0.4419
   71MOL    C5815598   3.342   8.153   2.924  0.8544  0.3210 -0.2350
   71MOL    C5915599   3.333   8.090   3.048 -0.5676  0.2101  0.6642
   71MOL    C6015600   3.306   7.948   3.056  0.1765 -0.4072 -0.1139
   71MOL    C6115601   3.288   7.880   2.937 -0.2198  0.5454  0.5283
   71MOL    C6215602   3.298   7.939   2.810  0.1988  0.2277 -0.5874
   71MOL    O6315603   3.281   7.862   2.696 -0.0446  0.4915  0.2058
   71MOL    H6415604   3.327   8.128   2.710  0.3889  1.4011  1.4410
   71MOL    H6515605   3.362   0.005   2.918 -0.5290  0.6271  0.4495
   71MOL    H6615606   3.305   7.895   3.149 -0.0116  0.3795  0.3391
   71MOL    H6715607   3.271   7.773   2.942  1.1592  0.2904 -0.0208
   71MOL    C6815608   3.442   7.649   2.438  0.6959 -0.3862 -0.4831
   71MOL    C6915609   3.352   7.722   2.516  0.5721  0.1419  0.3758
   71MOL    C7015610   3.382   7.793   2.633 -0.5997 -0.3826  0.0926
   71MOL    C7115611   3.517   7.782   2.674  0.9613 -0.6001 -0.1393
   71MOL    C7215612   3.609   7.696   2.612 -0.0969 -0.0699 -0.7968
   71MOL    C7315613   3.565   7.623   2.502 -0.6413 -0.2425  0.2516
   71MOL    O7415614   3.650   7.524   2.457  0.3346  0.3903  0.0444
   71MOL    H7515615   3.404   7.590   2.355 -1.4505  1.5425 -0.9320
   71MOL    H7615616   3.254   7.734   2.472  0.1909  0.1533  1.2106
   71MOL    H7715617   3.540   7.842   2.761 -2.1760  0.5907 -0.0471
   71MOL    H7815618   3.712   7.698   2.647  0.0760 -0.6762 -1.2660
   71MOL    C7915619   3.782   7.569   2.111  0.3432  0.1873  0.5414
   71MOL    C8015620   3.760   7.592   2.250  1.2771  0.6457  0.2140
   71MOL    C8115621   3.662   7.521   2.322  0.0997  1.1317 -0.6710
   71MOL    C8215622   3.578   7.428   2.253 -0.6321 -0.2167 -0.0180
   71MOL    C8315623   3.598   7.407   2.115  0.4134  0.2452  0.6358
   71MOL    C8415624   3.701   7.474   2.044 -0.4443  0.0895 -0.2779
   71MOL    O8515625   3.716   7.448   1.910  0.5276  0.3118 -0.1838
   71MOL    H8615626   3.860   7.629   2.065 -1.1735  0.4718 -1.7496
   71MOL    H8715627   3.821   7.660   2.307 -1.6184  3.7052 -0.1928
   71MOL    H8815628   3.500   7.378   2.308  0.0166 -0.6784  0.5019
   71MOL    H8915629   3.535   7.347   2.052  0.9842 -0.6373  0.8976
   71MOL    C9015630   4.006   7.232   1.835 -0.1487 -0.1338 -0.0163
   71MOL    C9115631   3.883   7.275   1.887 -0.1600  0.1261 -0.7628
   71MOL    C9215632   3.832   7.406   1.857  0.3663  0.2499  0.3638
   71MOL    C9315633   3.909   7.485   1.771  0.2604 -0.3795 -0.2078
   71MOL    C9415634   4.020   7.434   1.705  0.4124  0.0120 -0.4057
   71MOL    C9515635   4.070   7.308   1.737  0.4032  0.0481  0.2372
   71MOL    O9615636   4.181   7.259   1.674  0.2369  0.0282  0.7321
   71MOL    H9715637   4.038   7.132   1.860 -2.6795 -0.7843  0.8310
   71MOL    H9815638   3.831   7.203   1.948  0.2811  0.3698 -0.0808
   71MOL    H9915639   3.868   7.582   1.745  0.6310  0.6755  2.9708
   71MOL   H10015640   4.053   7.489   1.618  2.0505  1.2735  0.9926
   71MOL   C10115641   4.467   7.372   1.869 -0.0728 -0.3203 -0.0952
   71MOL   C10215642   4.350   7.370   1.798  0.4574  0.8002  0.0098
   71MOL   C10315643   4.300   7.254   1.741  0.7361 -0.1772  0.4920
   71MOL   C10415644   4.372   7.134   1.753  0.0922 -0.4421  0.5413
   71MOL   C10515645   4.495   7.134   1.826  0.2815  0.0783 -0.3819
   71MOL   C10615646   4.543   7.253   1.888 -0.2269 -1.1486 -0.0432
   71MOL   O10715647   4.656   7.263   1.956  0.4940 -0.8066  0.3788
   71MOL   H10815648   4.512   7.462   1.907 -2.9733 -0.3816  3.7453
   71MOL   H10915649   4.297   7.463   1.782  1.3742  1.2594 -0.3871
   71MOL   H11015650   4.322   7.054   1.702 -1.8314  1.1227 -0.1090
   71MOL   H11115651   4.549   7.040   1.832 -2.7046 -1.7108 -0.9000
   71MOL   C11215652   4.977   7.079   1.943  0.5759  0.1791  0.4897
   71MOL   C11315653   4.850   7.127   1.992 -0.4686  0.2529 -0.5769
   71MOL   C11415654   4.771   7.207   1.908  0.2167 -0.0100  0.0408
   71MOL   C11515655   4.816   7.242   1.779 -0.4763  0.2017 -0.0268
   71MOL   C11615656   4.940   7.206   1.730  0.2764  0.1973  0.2469
   71MOL   C11715657   5.022   7.114   1.811 -0.4783  0.2755  0.2108
   71MOL   O11815658   5.140   7.063   1.762 -0.0312 -0.1105  0.3292
   71MOL   H11915659   5.038   7.010   1.999  1.2001 -0.5310 -1.0408
   71MOL   H12015660   4.831   7.095   2.093  0.8308 -1.5421 -0.8876
   71MOL   H12115661   4.753   7.304   1.717  0.5594  0.4013 -0.8836
   71MOL   H12215662   4.976   7.250   1.638  2.5137 -0.1963  0.8977
   71MOL   C12315663   5.472   7.077   1.910 -0.1332  0.2671 -0.5691
   71MOL   C12415664   5.340   7.032   1.887 -0.1293 -0.1153 -0.1612
   71MOL   C12515665   5.257   7.114   1.811  0.5706 -0.1333 -0.0312
   71MOL   C12615666   5.300   7.244   1.780  0.8129 -0.2792  0.1328
   71MOL   C12715667   5.418   7.296   1.829 -0.3909  0.3947 -0.3716
   71MOL   C12815668   5.512   7.209   1.885 -0.1701  0.6518 -0.7124
   71MOL   O12915669   5.638   7.247   1.917  0.1215 -0.0886  0.3223
   71MOL   H13015670   5.537   7.004   1.956 -0.5282 -1.3222 -2.4319
   71MOL   H13115671   5.320   6.929   1.913  0.7020 -0.1993  0.1473
   71MOL   H13215672   5.253   7.311   1.709  0.8735  0.7057  1.0131
   71MOL   H13315673   5.458   7.392   1.799  2.8839 -0.6416  0.4387
   71MOL   C13415674   5.927   7.434   1.803  0.4367  0.4131 -0.6772
   71MOL   C13515675   5.837   7.356   1.880 -0.9272 -0.3783 -0.6440
   71MOL   C13615676   5.724   7.306   1.828 -0.1700 -0.1658  0.5084
   71MOL   C13715677   5.705   7.319   1.693  0.5210 -0.3238 -0.3527
   71MOL   C13815678   5.791   7.386   1.607 -0.2122  0.1021 -0.2633
   71MOL   C13915679   5.900   7.449   1.663  0.9852  0.5409 -0.0651
   71MOL   O14015680   5.982   7.527   1.591  0.4045  0.1543  0.1316
   71MOL   H14115681   6.015   7.474   1.852  0.6222 -1.1216  0.2744
   71MOL   H14215682   5.864   7.340   1.983  0.2092  1.8236 -0.5514
   71MOL   H14315683   5.623   7.277   1.636  0.7300  0.4145 -1.2171
   71MOL   H14415684   5.769   7.400   1.502  0.0510  1.0807 -0.1935
   71MOL   C14515685   6.173   7.383   1.302  0.1469  0.2875 -0.0690
   71MOL   C14615686   6.076   7.459   1.372  0.1800 -0.2628 -0.0674
   71MOL   C14715687   6.078   7.460   1.516  0.0364  0.4597  0.6591
   71MOL   C14815688   6.181   7.387   1.583  0.0116  0.3283 -0.0184
   71MOL   C14915689   6.283   7.327   1.503 -0.2596 -0.0137 -0.5189
   71MOL   C15015690   6.282   7.315   1.365  0.7026  0.0062 -0.8143
   71MOL   O15115691   6.380   7.245   1.304  0.2456 -0.0420 -0.0732
   71MOL   H15215692   6.177   7.383   1.194  0.9535 -0.9542 -0.0564
   71MOL   H15315693   5.996   7.503   1.314 -0.3639  0.0965  0.9593
   71MOL   H15415694   6.184   7.398   1.690  0.3852 -2.5578  0.3251
   71MOL   H15515695   6.362   7.277   1.557  2.1199  2.4759 -1.6167
   71MOL   C15615696   6.387   7.198   0.941 -0.3916 -0.4677  0.5639
   71MOL   C15715697   6.345   7.204   1.077 -0.6650 -0.6560 -0.2104
   71MOL   C15815698   6.414   7.276   1.176  0.0610  0.1859 -0.3152
   71MOL   C15915699   6.523   7.354   1.133  0.3405 -0.2077 -0.5923
   71MOL   C16015700   6.547   7.373   0.994  0.3259  0.7474  0.3170
   71MOL   C16115701   6.486   7.287   0.896  0.0609  0.0489 -0.6864
   71MOL   O16215702   6.525   7.289   0.760 -0.4350 -0.0679 -0.2180
   71MOL   H16315703   6.329   7.134   0.876 -2.4475  3.5035 -1.7132
   71MOL   H16415704   6.263   7.143   1.111  0.5686 -2.0833  0.2543
   71MOL   H16515705   6.562   7.421   1.208 -0.7436 -0.8323  0.5602
   71MOL   H16615706   6.613   7.445   0.948  1.1404 -0.5937 -0.6586
   71MOL   C16715707   6.652   6.954   0.669 -0.2008 -0.0723  0.7868
   71MOL   C16815708   6.618   7.059   0.750 -0.7319 -0.5163 -0.1826
   71MOL   C16915709   6.558   7.172   0.697  0.4368 -0.2970  0.6967
   71MOL   C17015710   6.534   7.177   0.559 -0.4522 -0.7034  0.0418
   71MOL   C17115711   6.560   7.065   0.475 -0.5493  0.0821 -0.0325
   71MOL   C17215712   6.615   6.947   0.532 -0.5460 -0.0425 -0.6053
   71MOL   O17315713   6.634   6.836   0.453 -0.6362  0.2150 -0.1111
   71MOL   H17415714   6.695   6.859   0.696 -0.8388 -0.4104  0.6347
   71MOL   H17515715   6.635   7.066   0.856  0.9815  1.4195 -0.5511
   71MOL   H17615716   6.496   7.265   0.510  2.3571  1.6348  1.8830
   71MOL   H17715717   6.536   7.066   0.370  1.3840  2.2019 -0.4723
   71MOL   C17815718   6.989   6.757   0.512 -0.3521  0.4052  0.2459
   71MOL   C17915719   6.874   6.827   0.478  0.4577 -0.7580  0.5976
   71MOL   C18015720   6.749   6.766   0.476  0.2637  0.4438 -0.0503
   71MOL   C18115721   6.745   6.630   0.513 -0.1683  0.2920  0.2799
   71MOL   C18215722   6.855   6.560   0.562  0.1364 -0.3095  0.6763
   71MOL   C18315723   6.979   6.628   0.565 -0.1230 -0.2014 -0.1862
   71MOL   O18415724   7.089   6.564   0.616  0.4673  0.2083 -0.5502
   71MOL   H18515725   7.084   6.807   0.524  0.9192 -1.2467 -2.3837
   71MOL   H18615726   6.889   6.933   0.464  1.7195 -0.8719  1.0672
   71MOL   H18715727   6.650   6.579   0.513 -1.9345  3.4886 -0.0642
   71MOL   H18815728   6.852   6.460   0.602  0.6452  0.2729  2.1895
   71MOL   C18915729   7.329   6.387   0.395  0.0612 -0.0710 -0.7003
   71MOL   C19015730   7.200   6.420   0.463 -0.2116 -0.5522  0.2504
   71MOL   C19115731   7.195   6.538   0.538 -0.0864  0.0948  0.0448
   71MOL   C19215732   7.311   6.611   0.556 -0.0840  0.1381  0.3458
   71MOL   C19315733   7.437   6.577   0.498 -0.0558 -0.4097  0.4077
   71MOL   C19415734   7.446   6.461   0.423 -0.5186 -0.2847 -0.0936
   71MOL   O19515735   7.567   6.425   0.374 -0.1318 -0.1037  0.2939
   71MOL   H19615736   7.333   6.302   0.329  2.3025  1.5228 -2.6924
   71MOL   H19715737   7.110   6.363   0.447 -0.4503 -0.1461  0.1625
   71MOL   H19815738   7.310   6.700   0.617 -0.3290  1.1685 -1.1267
   71MOL   H19915739   7.528   6.632   0.515 -1.3679  2.0490 -0.2511
   71MOL   C20015740   7.737   6.256   0.651 -0.2666  0.1302 -0.5265
   71MOL   C20115741   7.642   6.276   0.552 -0.2263  0.2492  0.1848
   71MOL   C20215742   7.657   6.395   0.475 -0.4190 -0.3855  0.5110
   71MOL   C20315743   7.771   6.473   0.488  0.3796  0.3022 -0.2396
   71MOL   C20415744   7.873   6.447   0.580  0.1629 -0.6734  0.9060
   71MOL   C20515745   7.847   6.340   0.662  0.1936  0.1152 -0.6338
   71MOL   O20615746   7.934   6.324   0.760  0.1224  0.2236 -0.6692
   71MOL   H20715747   7.728   6.174   0.721  2.3438 -0.3697 -0.7103
   71MOL   H20815748   7.550   6.222   0.539 -0.2630  0.2621  0.3894
   71MOL   H20915749   7.787   6.556   0.420 -1.2568  0.5931 -0.2932
   71MOL   H21015750   7.965   6.503   0.588 -1.2375  1.5761  1.7212
   71MOL   C21115751   8.026   6.012   0.918  0.1384  0.4313  0.1713
   71MOL   C21215752   7.961   6.133   0.894  0.4185 -0.5061 -0.1023
   71MOL   C21315753   8.000   6.208   0.783 -0.4645  1.0177 -0.0879
   71MOL   C21415754   8.109   6.161   0.702 -0.7156  0.5437 -0.0667
   71MOL   C21515755   8.176   6.041   0.727  0.1051  0.0397  0.3963
   71MOL   C21615756   8.135   5.969   0.841 -0.2501  0.2213 -0.2014
   71MOL   O21715757   8.199   5.857   0.885 -0.5573  0.1859 -0.4005
   71MOL   H21815758   7.998   5.943   0.997  1.7841 -0.4818 -0.0301
   71MOL   H21915759   7.881   6.169   0.957 -0.4901 -1.3166 -0.7745
   71MOL   H22015760   8.142   6.225   0.621 -1.1093  1.5829  0.5792
   71MOL   H22115761   0.008   6.023   0.664 -0.3710 -1.8702  0.2479
   71MOL   H22215762   0.008   5.813   0.831  1.6589  1.1476  1.3329
   72MOL     C115763   0.615   8.016   2.828  0.1421  0.3933 -0.6996
   72MOL     C215764   0.600   8.145   2.781 -0.7287  0.4845 -0.4134
   72MOL     C315765   0.715   8.222   2.750  0.3033  0.1071 -0.0959
   72MOL     C415766   0.842   8.157   2.747 -0.2107  0.5630  0.2213
   72MOL     C515767   0.857   8.029   2.808 -0.0917 -0.7753  0.0472
   72MOL     C615768   0.743   7.962   2.852  0.0232  0.4327 -0.1157
   72MOL     O715769   0.759   7.841   2.914  0.7189 -0.4592  0.0492
   72MOL     H815770   0.526   7.960   2.854 -0.8944  1.9801 -0.7763
   72MOL     H915771   0.499   8.184   2.782 -0.9962 -0.1814  1.5289
   72MOL    H1015772   0.929   8.209   2.710 -1.4447  2.0475 -0.6208
   72MOL    H1115773   0.956   7.987   2.818 -0.4079 -1.5772 -0.1799
   72MOL    H1215774   0.696   0.063   2.703  0.9319  0.9599  1.3540
   72MOL    C1315775   0.750   7.581   2.657  0.0065 -0.2447  0.0159
   72MOL    C1415776   0.790   7.689   2.738  0.8840  0.2381 -0.3519
   72MOL    C1515777   0.715   7.736   2.847  0.2026 -0.2193  0.0473
   72MOL    C1615778   0.595   7.664   2.877  0.2153  0.6920  0.5844
   72MOL    C1715779   0.555   7.555   2.796  0.7730  0.4094 -0.2512
   72MOL    C1815780   0.632   7.511   2.690  0.3671  0.9020  0.3701
   72MOL    O1915781   0.581   7.407   2.612 -0.2980 -0.0348  0.4502
   72MOL    H2015782   0.820   7.549   2.581  0.5171 -0.8871  0.7384
   72MOL    H2115783   0.885   7.730   2.707  0.4937  0.0372 -1.8622
   72MOL    H2215784   0.529   7.703   2.954 -0.6988  0.6443 -0.1646
   72MOL    H2315785   0.467   7.506   2.834  1.0991 -1.5894 -1.9628
   72MOL    C2415786   0.686   7.067   2.503  1.0705  0.2113  0.2770
   72MOL    C2515787   0.615   7.195   2.510 -0.1936 -0.2064 -0.0859
   72MOL    C2615788   0.646   7.289   2.610 -0.2072  0.2292 -0.4179
   72MOL    C2715789   0.731   7.249   2.720 -0.0915  0.7321 -0.1985
   72MOL    C2815790   0.786   7.119   2.720 -0.0786  0.5970  0.2437
   72MOL    C2915791   0.774   7.036   2.607 -0.3605 -0.5948 -0.0694
   72MOL    O3015792   0.832   6.920   2.600 -0.7833  0.3375 -0.2169
   72MOL    H3115793   0.671   6.999   2.420  0.2721  0.6181  0.0871
   72MOL    H3215794   0.548   7.226   2.432  0.0785  2.1785  0.6068
   72MOL    H3315795   0.747   7.316   2.802  1.6043  0.0695  0.0298
   72MOL    H3415796   0.846   7.101   2.808  0.7096  1.4148 -0.1148
   72MOL    C3515797   1.203   6.971   2.599  0.4036 -0.1210 -0.4679
   72MOL    C3615798   1.064   6.986   2.566  0.2554  0.6755 -0.6309
   72MOL    C3715799   0.965   6.913   2.633 -0.9318 -0.2185  0.2581
   72MOL    C3815800   1.003   6.838   2.742  0.3532 -0.4761  0.3125
   72MOL    C3915801   1.137   6.826   2.782 -1.0298  0.3984  0.1854
   72MOL    C4015802   1.240   6.898   2.713 -0.2394  0.1972 -0.4092
   72MOL    O4115803   1.370   6.883   2.753  0.2062  0.2849 -0.2653
   72MOL    H4215804   1.284   7.022   2.548  0.0077 -1.2654 -2.3047
   72MOL    H4315805   1.027   7.047   2.485 -2.1909  0.4273  0.2732
   72MOL    H4415806   0.925   6.780   2.789  1.0598 -2.4710 -0.9229
   72MOL    H4515807   1.171   6.762   2.862 -1.6329 -2.1706 -1.5631
   72MOL    C4615808   1.440   7.221   2.885 -0.4868  0.5137  0.8303
   72MOL    C4715809   1.368   7.106   2.851  0.2038  0.0976  0.8163
   72MOL    C4815810   1.435   6.993   2.795  0.0536 -0.1987  0.3088
   72MOL    C4915811   1.577   6.998   2.786 -0.1129 -0.9093 -0.2901
   72MOL    C5015812   1.652   7.117   2.820 -0.9718  0.5202  0.3878
   72MOL    C5115813   1.577   7.226   2.864  1.1906 -0.4883  1.0574
   72MOL    O5215814   1.648   7.343   2.882  0.3624  0.8816  0.1155
   72MOL    H5315815   1.379   7.301   2.924  0.3722  1.7616 -0.3156
   72MOL    H5415816   1.261   7.104   2.869  0.0794  0.9135  0.1645
   72MOL    H5515817   1.624   6.910   2.744  0.3771 -0.2593 -1.0970
   72MOL    H5615818   1.759   7.127   2.812 -0.8911 -0.0540  0.7023
   72MOL    C5715819   1.727   7.409   3.231  0.2251 -0.2327 -0.2993
   72MOL    C5815820   1.725   7.336   3.116 -0.4522  0.1428  0.1290
   72MOL    C5915821   1.653   7.397   3.007  0.3565 -0.6366  0.5837
   72MOL    C6015822   1.573   7.514   3.012 -0.8759  0.0263 -0.0602
   72MOL    C6115823   1.567   7.578   3.143 -0.1478  0.3310 -0.4549
   72MOL    C6215824   1.648   7.526   3.249 -0.0724  0.0219 -0.1333
   72MOL    O6315825   1.658   7.605   3.366 -0.2480 -0.0090  0.0141
   72MOL    H6415826   1.793   7.374   3.310 -0.8277  1.6480  1.4610
   72MOL    H6515827   1.780   7.244   3.103 -1.1625 -0.0136 -1.9804
   72MOL    H6615828   1.523   7.549   2.923 -1.6887  0.1306  0.4314
   72MOL    H6715829   1.505   7.664   3.161 -2.6349 -1.8236  1.8949
   72MOL    C6815830   1.622   7.370   3.641  0.6794 -0.7811 -0.8271
   72MOL    C6915831   1.610   7.425   3.515 -0.8054  0.4368 -0.3538
   72MOL    C7015832   1.671   7.547   3.488  0.3305 -0.0088 -0.1801
   72MOL    C7115833   1.745   7.618   3.583 -0.0644 -0.0660  0.2532
   72MOL    C7215834   1.763   7.564   3.714  0.2267  0.4571 -0.4816
   72MOL    C7315835   1.691   7.440   3.746 -0.3934  0.2318 -0.3866
   72MOL    O7415836   1.690   7.395   3.877 -0.3380 -0.1153 -0.6030
   72MOL    H7515837   1.562   7.283   3.660  1.4058 -0.8077  1.3788
   72MOL    H7615838   1.556   7.381   3.433 -0.9629 -2.0384  1.0157
   72MOL    H7715839   1.779   7.719   3.564 -0.9403  0.2275  0.2095
   72MOL    H7815840   1.812   7.622   3.791 -3.3340  1.2141  1.3293
   72MOL    C7915841   1.963   7.178   3.999 -0.8274  0.3073  0.2660
   72MOL    C8015842   1.889   7.296   3.971 -0.1112  0.0395 -0.0171
   72MOL    C8115843   1.760   7.283   3.912 -0.5156  0.0215 -0.1660
   72MOL    C8215844   1.703   7.156   3.892  0.6224  0.3634  0.1502
   72MOL    C8315845   1.779   7.045   3.931 -0.2213  0.4763  0.8551
   72MOL    C8415846   1.897   7.053   3.994  0.1838 -0.0900  0.2978
   72MOL    O8515847   1.958   6.942   4.050 -0.0976 -0.1801 -0.0989
   72MOL    H8615848   2.058   7.189   4.050 -0.8359  0.9702  0.1321
   72MOL    H8715849   1.936   7.390   3.996  1.8184 -0.8319 -0.2750
   72MOL    H8815850   1.605   7.142   3.847  0.1736 -1.6056  1.6809
   72MOL    H8915851   1.735   6.947   3.920  1.4850 -0.3883  1.5384
   72MOL    C9015852   1.969   6.732   4.347 -0.6439  0.1582  0.1177
   72MOL    C9115853   1.992   6.774   4.214  0.3391 -0.1662 -0.4378
   72MOL    C9215854   1.934   6.898   4.171  0.7359  0.7723  0.2184
   72MOL    C9315855   1.843   6.966   4.252  0.0312  0.1834  0.2670
   72MOL    C9415856   1.807   6.920   4.379  0.6546  0.0530  0.7725
   72MOL    C9515857   1.871   6.805   4.431  0.2076  0.2080 -0.5454
   72MOL    O9615858   1.823   6.743   4.549  0.0261  0.0324 -0.8436
   72MOL    H9715859   2.014   6.648   4.396  0.1635  0.0983 -0.7229
   72MOL    H9815860   2.052   6.717   4.145 -1.3688 -0.6402 -1.5492
   72MOL    H9915861   1.792   7.059   4.228 -0.0761 -0.3003 -1.4112
   72MOL   H10015862   1.734   6.977   4.434 -1.1708 -1.6023  0.1305
   72MOL   C10115863   2.036   6.620   4.834  0.3940 -0.1625 -0.6784
   72MOL   C10215864   1.941   6.623   4.726  1.1512  0.6022 -0.2865
   72MOL   C10315865   1.903   6.744   4.660  0.2722  0.2902 -0.1261
   72MOL   C10415866   1.957   6.866   4.708 -0.0320 -0.3754  0.1734
   72MOL   C10515867   2.039   6.867   4.822  0.5995 -0.4131  0.5964
   72MOL   C10615868   2.083   6.743   4.880  0.5865 -0.1706 -0.1654
   72MOL   O10715869   2.155   6.742   4.996 -0.1152 -0.0459 -0.3113
   72MOL   H10815870   2.056   6.525   4.881  0.9601  0.0887 -0.4023
   72MOL   H10915871   1.905   6.532   4.681  0.0552  0.0428  1.6347
   72MOL   H11015872   1.933   6.959   4.657  0.0135 -1.4422 -1.8613
   72MOL   H11115873   2.073   6.955   4.875  2.4384 -1.3321  0.9919
   72MOL   C11215874   2.480   6.573   4.979  0.9013  0.5674  0.5158
   72MOL   C11315875   2.345   6.590   4.997  0.1684 -0.4335 -0.1031
   72MOL   C11415876   2.292   6.720   4.982  0.5977  0.2120 -1.0312
   72MOL   C11515877   2.373   6.829   4.943 -0.5656 -0.1306  0.3361
   72MOL   C11615878   2.513   6.808   4.925 -0.0681 -0.2219  0.4145
   72MOL   C11715879   2.563   6.680   4.941  0.5770  0.3783  0.2395
   72MOL   O11815880   2.697   6.648   4.923  0.0995 -0.4871  0.1654
   72MOL   H11915881   2.536   6.482   4.991  0.8348  0.5210  0.4743
   72MOL   H12015882   2.281   6.510   5.032 -0.8359  0.4844  0.1769
   72MOL   H12115883   2.335   6.930   4.932  1.9562  0.5036 -3.4451
   72MOL   H12215884   2.582   6.883   4.889  0.9383 -0.6870  1.3501
   72MOL   C12315885   2.726   6.638   4.553 -0.1704 -0.6542  0.2735
   72MOL   C12415886   2.691   6.602   4.683  0.0445  0.1834  0.1162
   72MOL   C12515887   2.736   6.681   4.795 -0.5136  0.4409  0.0470
   72MOL   C12615888   2.829   6.781   4.774  0.0711  0.3957  0.6079
   72MOL   C12715889   2.876   6.815   4.645  0.5650 -0.3959 -0.0958
   72MOL   C12815890   2.827   6.740   4.539 -0.0662  0.1439  0.5647
   72MOL   O12915891   2.868   6.767   4.407 -0.3052  0.1934 -0.7159
   72MOL   H13015892   2.685   6.583   4.470  0.9313 -0.9564 -0.0893
   72MOL   H13115893   2.615   6.528   4.706  0.9277 -1.2450 -1.4525
   72MOL   H13215894   2.872   6.830   4.860  0.5556  0.7865  0.1464
   72MOL   H13315895   2.964   6.878   4.634  0.0907  0.6406  1.7096
   72MOL   C13415896   3.176   6.556   4.353 -0.9223  0.5013  0.5682
   72MOL   C13515897   3.042   6.596   4.391 -0.1194 -0.5877  0.0726
   72MOL   C13615898   2.997   6.730   4.377 -0.5400 -0.0895 -0.3049
   72MOL   C13715899   3.078   6.823   4.313 -0.1322  0.4726  0.5581
   72MOL   C13815900   3.212   6.790   4.285 -0.1817  0.0990  0.0612
   72MOL   C13915901   3.262   6.653   4.301  0.9649 -0.3438 -0.6586
   72MOL   O14015902   3.391   6.617   4.258  0.2327 -0.1066  0.4869
   72MOL   H14115903   3.209   6.456   4.373 -1.3763  0.1410 -0.4284
   72MOL   H14215904   2.974   6.526   4.438 -1.0229  1.6003  2.1320
   72MOL   H14315905   3.044   6.923   4.290  0.0675  1.1061  2.8960
   72MOL   H14415906   3.274   6.868   4.245  0.6903 -1.5980 -1.9616
   72MOL   C14515907   3.340   6.470   3.918 -0.1377 -0.7266 -0.1695
   72MOL   C14615908   3.318   6.551   4.035  0.6634 -0.7593 -0.2321
   72MOL   C14715909   3.404   6.535   4.150  1.0394  0.5194  1.3126
   72MOL   C14815910   3.499   6.428   4.154  0.5757  0.2046 -0.2015
   72MOL   C14915911   3.513   6.352   4.038 -0.2629  0.2115  0.1219
   72MOL   C15015912   3.434   6.364   3.925 -0.3666  0.5041 -0.3073
   72MOL   O15115913   3.452   6.281   3.819  0.1603 -0.0825  0.1209
   72MOL   H15215914   3.273   6.498   3.838 -1.0866 -4.0091 -0.5963
   72MOL   H15315915   3.247   6.633   4.030  0.9933 -0.3917  1.0185
   72MOL   H15415916   3.556   6.415   4.244  0.8570  2.6504  0.0181
   72MOL   H15515917   3.581   6.268   4.043  1.1877  1.3174 -0.9856
   72MOL   C15615918   3.192   6.084   3.663  0.1570  0.2525 -0.3172
   72MOL   C15715919   3.283   6.188   3.686  0.2464  0.0722 -0.8210
   72MOL   C15815920   3.361   6.182   3.801  0.0401 -0.3626  0.0276
   72MOL   C15915921   3.340   6.080   3.902 -0.0390 -0.2624  0.1641
   72MOL   C16015922   3.234   5.992   3.891  0.0405 -0.2888  0.6676
   72MOL   C16115923   3.152   6.002   3.773  0.1122 -0.1482  0.0314
   72MOL   O16215924   3.045   5.914   3.758 -0.1827 -0.1659 -0.0319
   72MOL   H16315925   3.130   6.083   3.574  1.6622  1.4668 -1.4132
   72MOL   H16415926   3.302   6.266   3.613 -1.4678  0.8871 -0.4263
   72MOL   H16515927   3.393   6.082   3.996 -0.1146 -0.5528  0.2108
   72MOL   H16615928   3.204   5.937   3.979  0.6640 -0.0745  1.0156
   72MOL   C16715929   3.064   5.587   3.936  0.1493 -0.0276  0.8823
   72MOL   C16815930   3.048   5.727   3.908  0.0059  0.8635  0.6142
   72MOL   C16915931   3.064   5.782   3.778  0.9047 -0.5106 -0.3842
   72MOL   C17015932   3.101   5.693   3.679  0.0018  0.4920  0.1783
   72MOL   C17115933   3.120   5.555   3.702  0.0553  0.2904  0.8248
   72MOL   C17215934   3.098   5.503   3.832  0.5253  0.2435  0.2322
   72MOL   O17315935   3.099   5.371   3.861 -0.4512  0.3774  0.0760
   72MOL   H17415936   3.042   5.548   4.034 -1.3593 -0.1684  0.4929
   72MOL   H17515937   3.017   5.792   3.988 -0.1555 -0.8588  1.9721
   72MOL   H17615938   3.112   5.740   3.582 -0.1835 -1.0453 -0.6073
   72MOL   H17715939   3.132   5.480   3.625  1.2275  1.0503  0.2478
   72MOL   C17815940   2.858   5.118   3.956  0.4490 -0.2497 -0.0106
   72MOL   C17915941   2.971   5.196   3.946 -0.4288 -0.5299  0.5430
   72MOL   C18015942   2.986   5.295   3.851  0.6141 -0.4447 -0.2487
   72MOL   C18115943   2.896   5.312   3.748 -0.5056 -0.3171  0.0740
   72MOL   C18215944   2.787   5.220   3.745  0.1657 -0.2662  0.3785
   72MOL   C18315945   2.762   5.133   3.856 -0.3925 -0.6020  0.4551
   72MOL   O18415946   2.642   5.064   3.871 -0.0970 -0.4266  0.4586
   72MOL   H18515947   2.839   5.044   4.032 -1.0045  1.2018  1.0634
   72MOL   H18615948   3.042   5.180   4.026 -1.2419  0.9065  1.5838
   72MOL   H18715949   2.907   5.372   3.659  1.6687 -0.0501  0.5022
   72MOL   H18815950   2.720   5.218   3.660  0.1246 -0.4847  0.4163
   72MOL   C18915951   2.404   5.192   4.125 -0.0123 -0.3325 -0.0483
   72MOL   C19015952   2.514   5.120   4.069 -0.3329 -0.0738  0.2459
   72MOL   C19115953   2.540   5.129   3.931  0.4730  0.2429 -0.4164
   72MOL   C19215954   2.469   5.219   3.852 -0.2517  0.9647  0.1464
   72MOL   C19315955   2.364   5.287   3.903  0.2171 -0.3990  0.0287
   72MOL   C19415956   2.329   5.279   4.043 -0.6726 -0.0441  0.3928
   72MOL   O19515957   2.217   5.336   4.092 -0.2325 -0.0499 -0.6297
   72MOL   H19615958   2.372   5.170   4.226 -2.9233  1.8735 -0.4101
   72MOL   H19715959   2.584   5.069   4.133  1.1335  0.6714 -0.7440
   72MOL   H19815960   2.501   5.220   3.749  0.2984 -1.3105  0.2545
   72MOL   H19915961   2.305   5.332   3.824  0.3477 -1.5942 -0.7723
   72MOL   C20015962   2.348   5.637   4.267 -0.0472  0.1762 -0.2381
   72MOL   C20115963   2.348   5.524   4.185 -0.3434  0.3051 -0.2602
   72MOL   C20215964   2.228   5.445   4.178 -0.6229  0.3785  0.4392
   72MOL   C20315965   2.115   5.482   4.255 -0.3414  0.2822 -0.2600
   72MOL   C20415966   2.120   5.591   4.349 -0.2735  0.6138  1.0582
   72MOL   C20515967   2.242   5.665   4.353  0.1581 -0.0678 -0.5554
   72MOL   O20615968   2.242   5.774   4.430  0.2711 -0.2561  0.4078
   72MOL   H20715969   2.429   5.707   4.256  0.4495 -0.3863 -0.1809
   72MOL   H20815970   2.435   5.497   4.128  1.2203  2.6151  0.9417
   72MOL   H20915971   2.027   5.421   4.247  1.2657 -2.0200 -1.0522
   72MOL   H21015972   2.038   5.620   4.413  0.4143  0.3082  2.0918
   72MOL   C21115973   2.560   5.816   4.612 -0.1625  0.0593 -0.2641
   72MOL   C21215974   2.435   5.765   4.565 -0.5568  0.5472 -0.4716
   72MOL   C21315975   2.359   5.828   4.467  0.1396 -0.2150  0.1846
   72MOL   C21415976   2.409   5.950   4.411 -0.4754 -0.1869 -0.4410
   72MOL   C21515977   2.524   6.009   4.472  0.3232 -0.7190 -0.2680
   72MOL   C21615978   2.612   5.939   4.558 -0.0987  0.8234 -0.3483
   72MOL   O21715979   2.728   5.997   4.603  0.0239  0.4335  0.5175
   72MOL   H21815980   2.620   5.751   4.675  0.8002  0.1280 -1.0978
   72MOL   H21915981   2.401   5.668   4.599 -0.5259  0.6452 -0.1562
   72MOL   H22015982   2.352   6.017   4.348 -0.6033  1.7284  1.6442
   72MOL   H22115983   2.547   6.109   4.438 -0.8044  0.8975  3.3888
   72MOL   H22215984   2.773   5.954   4.674  0.8567 -0.0927 -0.3208
   73MOL     C115985   0.794   5.566   5.748 -0.7632  0.3220  0.2586
   73MOL     C215986   0.708   5.484   5.825 -0.4959 -0.1251  0.2752
   73MOL     C315987   0.728   5.480   5.963  0.0776 -0.1873 -0.6964
   73MOL     C415988   0.837   5.555   6.014 -0.1603 -0.1579 -0.2807
   73MOL     C515989   0.914   5.643   5.936  0.2788  0.4650  0.0241
   73MOL     C615990   0.890   5.656   5.802  0.4147  0.6107  0.0330
   73MOL     O715991   0.960   5.747   5.725 -0.3439  0.0022 -0.6571
   73MOL     H815992   0.771   5.570   5.643  3.9547  0.7323 -0.8507
   73MOL     H915993   0.633   5.426   5.774  0.6659  0.1079 -1.7793
   73MOL    H1015994   0.870   5.553   6.117 -0.3351  2.2623 -0.1682
   73MOL    H1115995   0.985   5.707   5.985  2.5117 -0.9789 -1.2304
   73MOL    H1215996   0.669   5.424   6.034 -0.4682 -0.2827 -1.2311
   73MOL    C1315997   1.260   5.560   5.584  0.0661  0.1739 -0.6225
   73MOL    C1415998   1.124   5.588   5.617  0.4458 -0.1708 -0.2646
   73MOL    C1515999   1.095   5.715   5.686 -0.1067 -0.4130 -0.0477
   73MOL    C1616000   1.190   5.818   5.705  0.3983  0.2119  0.0548
   73MOL    C1716001   1.313   5.787   5.660  1.0668 -0.6588 -0.5362
   73MOL    C1816002   1.358   5.662   5.599  0.0793  0.7749  0.5880
   73MOL    O1916003   1.493   5.654   5.565 -0.1751 -0.1511  0.2285
   73MOL    H2016004   1.292   5.464   5.545  0.5135  0.5164 -1.0933
   73MOL    H2116005   1.050   5.510   5.610  0.1713  0.1491 -0.9244
   73MOL    H2216006   1.168   5.917   5.743 -0.0349  0.4834 -0.8922
   73MOL    H2316007   1.388   5.864   5.670  1.5787 -1.3314  0.9630
   73MOL    C2416008   1.600   5.449   5.270 -0.6185  1.4272  0.8320
   73MOL    C2516009   1.543   5.551   5.353  0.3476 -0.4263 -0.0057
   73MOL    C2616010   1.538   5.550   5.491  0.3482  0.2307  0.0445
   73MOL    C2716011   1.603   5.442   5.558 -0.5049  0.6289  0.4853
   73MOL    C2816012   1.657   5.339   5.480  0.1221 -0.1979 -0.5809
   73MOL    C2916013   1.656   5.342   5.337 -0.3289 -0.3263 -0.1560
   73MOL    O3016014   1.704   5.232   5.272 -0.0087  0.2764 -0.3668
   73MOL    H3116015   1.614   5.473   5.165  2.6826  0.8671  1.1025
   73MOL    H3216016   1.500   5.631   5.295  0.2429  0.6656  1.5194
   73MOL    H3316017   1.601   5.435   5.665 -1.0185  1.2348  0.5207
   73MOL    H3416018   1.700   5.255   5.533  0.4115  0.2399 -0.1148
   73MOL    C3516019   1.441   4.982   5.241 -0.4600 -0.0180 -0.1688
   73MOL    C3616020   1.504   5.108   5.245  0.0746  0.2519 -0.2209
   73MOL    C3716021   1.636   5.115   5.289  0.2687 -0.1117 -0.7841
   73MOL    C3816022   1.709   4.995   5.312 -0.2454  0.7618 -0.3367
   73MOL    C3916023   1.641   4.873   5.323  1.0304  0.6014 -0.2324
   73MOL    C4016024   1.507   4.863   5.290  0.2567 -0.5486  0.2193
   73MOL    O4116025   1.435   4.745   5.294 -0.7595 -0.1057 -0.2157
   73MOL    H4216026   1.339   4.963   5.209 -0.3536  1.4874 -1.4467
   73MOL    H4316027   1.456   5.199   5.213 -0.5536 -0.0510 -0.1370
   73MOL    H4416028   1.816   5.000   5.329  0.1179  0.1941 -2.3259
   73MOL    H4516029   1.689   4.785   5.364  2.4134  0.9062 -1.1771
   73MOL    C4616030   1.551   4.472   5.077 -1.0486 -0.1784 -0.2505
   73MOL    C4716031   1.543   4.564   5.183  0.7396  0.5351 -0.7238
   73MOL    C4816032   1.437   4.659   5.190  0.3700 -0.0587  0.3593
   73MOL    C4916033   1.349   4.672   5.083  0.3091 -0.8318 -0.8808
   73MOL    C5016034   1.364   4.586   4.971  0.0661 -0.4573 -0.0029
   73MOL    C5116035   1.467   4.484   4.966  0.4571  0.0507  0.3969
   73MOL    O5216036   1.479   4.389   4.865  0.4218  0.1781 -0.3428
   73MOL    H5316037   1.633   4.402   5.083 -2.4048 -1.6569  1.6071
   73MOL    H5416038   1.599   4.542   5.273 -1.4435 -0.8751  0.3453
   73MOL    H5516039   1.269   4.745   5.086  1.1867  0.0899  0.6608
   73MOL    H5616040   1.289   4.579   4.894 -1.6987 -0.6247  1.6783
   73MOL    C5716041   1.416   4.029   4.793 -0.3523  0.6511 -0.1987
   73MOL    C5816042   1.436   4.164   4.769 -0.0549  0.3575  0.1720
   73MOL    C5916043   1.433   4.254   4.882 -0.4792  0.0210  0.3919
   73MOL    C6016044   1.399   4.202   5.003  1.1272  0.4405 -0.9028
   73MOL    C6116045   1.371   4.068   5.024 -0.7402 -0.3775 -0.0445
   73MOL    C6216046   1.386   3.979   4.917  1.2061  0.1051 -0.2140
   73MOL    O6316047   1.368   3.842   4.931 -0.1479  0.2560  0.5006
   73MOL    H6416048   1.403   3.957   4.713  3.5223  1.3332 -1.5116
   73MOL    H6516049   1.467   4.190   4.669 -1.6633 -1.3123 -0.7957
   73MOL    H6616050   1.400   4.265   5.090  1.6786 -0.8767  0.0700
   73MOL    H6716051   1.350   4.031   5.123 -0.0825  0.6630  0.4851
   73MOL    C6816052   1.077   3.757   5.145  0.2283  0.5318 -0.2469
   73MOL    C6916053   1.149   3.808   5.035  0.6022  0.4299 -0.5437
   73MOL    C7016054   1.292   3.796   5.032  0.3957 -0.2488 -0.0196
   73MOL    C7116055   1.358   3.735   5.140 -0.0168 -0.7531  0.9245
   73MOL    C7216056   1.298   3.685   5.253  0.0299  0.2539  0.2603
   73MOL    C7316057   1.152   3.697   5.253  0.3932  0.6807 -0.7419
   73MOL    O7416058   1.080   3.658   5.366  0.1656  0.2641 -0.3466
   73MOL    H7516059   0.970   3.764   5.158  0.3635 -0.4174  1.3590
   73MOL    H7616060   1.092   3.845   4.951  0.3662 -2.0740 -1.4965
   73MOL    H7716061   1.466   3.731   5.135 -0.0903 -0.0568 -1.3877
   73MOL    H7816062   1.347   3.638   5.337 -1.6966  0.7214  1.5538
   73MOL    C7916063   1.160   3.902   5.629 -0.7590  0.1917  0.1739
   73MOL    C8016064   1.117   3.844   5.508  0.0960 -1.3843  0.1565
   73MOL    C8116065   1.127   3.709   5.482  0.3331 -0.4738  0.6884
   73MOL    C8216066   1.191   3.627   5.571  0.0932 -0.3609  0.6941
   73MOL    C8316067   1.234   3.681   5.695  0.4163  0.0440 -0.0864
   73MOL    C8416068   1.224   3.816   5.724 -0.8813 -0.4233 -0.4006
   73MOL    O8516069   1.270   3.864   5.842  0.3579  0.2727 -0.4426
   73MOL    H8616070   1.150   4.008   5.647 -0.8935  0.2015  0.0443
   73MOL    H8716071   1.064   3.906   5.437  1.4220  0.3430  0.6376
   73MOL    H8816072   1.201   3.523   5.544  0.3999 -0.4311  1.0634
   73MOL    H8916073   1.282   3.607   5.758 -1.3644 -1.3158 -0.2605
   73MOL    C9016074   1.582   4.063   5.840  0.4402  0.6970 -0.6246
   73MOL    C9116075   1.495   3.953   5.817  0.3350 -0.4195  0.3292
   73MOL    C9216076   1.357   3.969   5.846 -0.6736  0.7886  0.3047
   73MOL    C9316077   1.310   4.087   5.890 -0.3830 -0.1691  0.1706
   73MOL    C9416078   1.396   4.198   5.911  0.0427  1.0324  0.7772
   73MOL    C9516079   1.533   4.183   5.888 -0.0140 -0.7493  0.3841
   73MOL    O9616080   1.615   4.290   5.894  0.6016 -0.7308  0.5762
   73MOL    H9716081   1.686   4.051   5.811  0.6550  0.3513  0.2620
   73MOL    H9816082   1.541   3.862   5.781  1.9310  1.1576 -1.7316
   73MOL    H9916083   1.204   4.088   5.911  0.0117  1.6941  2.1787
   73MOL   H10016084   1.356   4.293   5.947 -1.1585 -0.3702  3.3166
   73MOL   C10116085   1.517   4.577   6.107  0.4633 -0.1227  0.1180
   73MOL   C10216086   1.559   4.508   5.993  1.0365 -0.4120 -0.8469
   73MOL   C10316087   1.602   4.370   6.003  1.0648 -0.6320 -0.5279
   73MOL   C10416088   1.632   4.323   6.128 -0.2496  0.6729  0.4690
   73MOL   C10516089   1.615   4.394   6.243  0.1134 -0.4306  0.5483
   73MOL   C10616090   1.540   4.517   6.234 -0.7132  0.2268 -0.7400
   73MOL   O10716091   1.499   4.578   6.343  0.3352 -0.2703 -0.5225
   73MOL   H10816092   1.474   4.675   6.094 -0.0258 -0.0615  2.0737
   73MOL   H10916093   1.547   4.554   5.896 -1.4888  0.1668 -0.2760
   73MOL   H11016094   1.669   4.222   6.142  0.1813  0.3745 -2.6665
   73MOL   H11116095   1.639   4.359   6.342  2.5909  0.2895  0.2527
   73MOL   C11216096   1.665   4.691   6.648  0.5110  0.4099  0.2017
   73MOL   C11316097   1.568   4.642   6.561  0.5267 -0.2450  0.3181
   73MOL   C11416098   1.596   4.632   6.422  0.4284  0.0234 -0.1808
   73MOL   C11516099   1.706   4.700   6.376 -0.5799  0.3866 -0.0374
   73MOL   C11616100   1.788   4.768   6.460  0.0399 -0.4619 -0.5277
   73MOL   C11716101   1.776   4.757   6.600 -0.0193 -0.9407 -0.4576
   73MOL   O11816102   1.870   4.806   6.687 -0.3033 -0.4693  0.2024
   73MOL   H11916103   1.654   4.671   6.753 -1.7030 -1.1550 -0.3074
   73MOL   H12016104   1.477   4.597   6.599 -0.2146 -1.0122 -2.2625
   73MOL   H12116105   1.727   4.709   6.270 -1.8509 -0.7366 -0.3941
   73MOL   H12216106   1.868   4.824   6.412 -1.2812  1.3316 -0.6759
   73MOL   C12316107   2.131   5.052   6.691  0.0015 -0.0026 -0.2682
   73MOL   C12416108   2.007   4.992   6.713  1.0208  0.5157 -0.1553
   73MOL   C12516109   1.983   4.869   6.653 -0.7632  0.5647  0.0736
   73MOL   C12616110   2.085   4.804   6.577 -0.4369 -0.4124  0.7684
   73MOL   C12716111   2.207   4.871   6.548 -0.1284  0.3900  0.2015
   73MOL   C12816112   2.229   4.992   6.613  0.3019  0.5065 -0.3202
   73MOL   O12916113   2.350   5.051   6.596 -0.6038  0.2899 -0.2554
   73MOL   H13016114   2.145   5.150   6.734  3.0122 -1.0301  1.2867
   73MOL   H13116115   1.931   5.044   6.768  0.7526 -0.7561  0.6872
   73MOL   H13216116   2.068   4.711   6.526  0.4878  0.0802 -0.4866
   73MOL   H13316117   2.281   4.818   6.491  0.7509 -0.4166  2.0402
   73MOL   C13416118   2.600   5.221   6.800 -0.5923  0.6389 -0.2980
   73MOL   C13516119   2.506   5.191   6.695  0.0522  0.6665 -0.5450
   73MOL   C13616120   2.433   5.072   6.704 -0.2694 -0.2845  0.4502
   73MOL   C13716121   2.462   4.977   6.798  0.5537  0.1718 -0.3525
   73MOL   C13816122   2.561   5.001   6.897 -0.2288 -0.1283  0.0286
   73MOL   C13916123   2.625   5.127   6.906 -0.0277  0.1459  1.0456
   73MOL   O14016124   2.708   5.161   7.012 -0.1107 -0.1668  0.9389
   73MOL   H14116125   2.658   5.312   6.795  0.8155 -0.3447 -2.5503
   73MOL   H14216126   2.483   5.267   6.622 -2.7175  1.4159  1.0470
   73MOL   H14316127   2.403   4.887   6.800 -0.7126  1.0215  1.3275
   73MOL   H14416128   2.575   4.926   6.974  1.2894  0.8626  0.7487
   73MOL   C14516129   2.627   5.120   7.368  0.0744  0.2921 -0.9214
   73MOL   C14616130   2.689   5.103   7.246 -0.2570  0.5436 -0.7385
   73MOL   C14716131   2.654   5.182   7.134  0.1708  0.0098 -0.1649
   73MOL   C14816132   2.558   5.287   7.155  0.6717  0.0753 -0.3200
   73MOL   C14916133   2.482   5.292   7.274  0.7677  0.2494 -1.1806
   73MOL   C15016134   2.521   5.210   7.385 -0.4106  0.0736 -0.2851
   73MOL   O15116135   2.467   5.230   7.505 -0.0920 -0.1833 -0.3012
   73MOL   H15216136   2.668   5.064   7.451  1.1536 -2.7402 -3.3932
   73MOL   H15316137   2.775   5.039   7.234 -0.8071 -0.2736 -0.3241
   73MOL   H15416138   2.536   5.350   7.070 -0.4983 -1.4602 -1.1677
   73MOL   H15516139   2.404   5.366   7.286  1.8647  0.9674  2.0134
   73MOL   C15616140   2.377   5.574   7.603 -0.1038 -0.3858 -0.1471
   73MOL   C15716141   2.364   5.440   7.567 -0.8511 -0.3586 -0.3728
   73MOL   C15816142   2.476   5.358   7.557  0.0488  0.6240  0.3625
   73MOL   C15916143   2.597   5.408   7.610 -0.4345  0.6291  0.1805
   73MOL   C16016144   2.608   5.539   7.650 -0.5200  0.0061 -0.2786
   73MOL   C16116145   2.500   5.623   7.639  0.4752  0.4358  0.6312
   73MOL   O16216146   2.522   5.754   7.673 -0.2602  0.5360 -0.4272
   73MOL   H16316147   2.294   5.643   7.598  1.4918  1.6139  0.2698
   73MOL   H16416148   2.272   5.413   7.518 -0.6787  0.5727 -1.2145
   73MOL   H16516149   2.682   5.342   7.618 -1.4775 -0.6823  0.6492
   73MOL   H16616150   2.698   5.582   7.691 -0.3952 -1.1587  0.7267
   73MOL   C16716151   2.723   5.879   7.381 -0.0264  0.4907 -0.5344
   73MOL   C16816152   2.624   5.804   7.457  0.0465  0.1703  0.7946
   73MOL   C16916153   2.606   5.830   7.594 -0.2381  0.5409  0.3011
   73MOL   C17016154   2.682   5.927   7.656  0.1189 -0.1061  0.1889
   73MOL   C17116155   2.779   6.002   7.591 -0.4866 -0.0159  0.6254
   73MOL   C17216156   2.799   5.979   7.451 -0.5418 -0.0451  0.1841
   73MOL   O17316157   2.893   6.055   7.385 -0.2310 -0.1498 -1.0112
   73MOL   H17416158   2.733   5.846   7.279  1.3539 -0.8944  0.0220
   73MOL   H17516159   2.568   5.723   7.412  0.9050 -1.7075  2.9637
   73MOL   H17616160   2.673   5.939   7.763  0.5887  0.7903  0.1268
   73MOL   H17716161   2.833   6.080   7.643  2.8604 -0.8358 -1.4943
   73MOL   C17816162   2.939   6.412   7.294  0.0678 -0.2696  0.6585
   73MOL   C17916163   2.964   6.280   7.337  0.1404 -0.1106 -0.0403
   73MOL   C18016164   2.862   6.186   7.346 -0.1457 -0.0250  0.2678
   73MOL   C18116165   2.734   6.230   7.311 -0.4029  0.3811  0.2080
   73MOL   C18216166   2.705   6.360   7.275 -0.1243  0.1894  0.2530
   73MOL   C18316167   2.808   6.453   7.260  0.2289  0.6710  0.2252
   73MOL   O18416168   2.789   6.577   7.205  0.0973  0.0910  0.3080
   73MOL   H18516169   3.015   6.489   7.287 -1.7879  1.3275 -3.4863
   73MOL   H18616170   3.064   6.252   7.367 -0.0274 -0.1859  0.4497
   73MOL   H18716171   2.653   6.159   7.312  0.6009 -0.9282 -3.4779
   73MOL   H18816172   2.606   6.389   7.241 -0.2294 -1.5602 -0.9871
   73MOL   C18916173   2.433   6.679   7.259  0.1063  0.4665  0.0973
   73MOL   C19016174   2.570   6.642   7.277 -0.1678  1.0356  0.2090
   73MOL   C19116175   2.657   6.612   7.175 -0.4548  0.3759 -0.4559
   73MOL   C19216176   2.613   6.626   7.044  0.6264  0.8013  0.0384
   73MOL   C19316177   2.480   6.661   7.019  1.0309 -0.2989 -0.0972
   73MOL   C19416178   2.387   6.694   7.126  0.5539  0.1601  0.0744
   73MOL   O19516179   2.258   6.726   7.105 -0.3371  0.1805  1.1317
   73MOL   H19616180   2.369   6.697   7.344  0.6887  0.3717  0.5596
   73MOL   H19716181   2.595   6.636   7.382 -0.0351  0.2479  0.1337
   73MOL   H19816182   2.674   6.602   6.958 -2.6885 -1.0696 -1.8998
   73MOL   H19916183   2.434   6.674   6.922 -0.8593 -3.3530  0.3179
   73MOL   C20016184   2.032   6.454   7.027  0.3090  0.5489  0.4542
   73MOL   C20116185   2.110   6.545   7.099  1.0918  0.3131 -0.2979
   73MOL   C20216186   2.176   6.649   7.029  0.2657  0.2274 -0.3694
   73MOL   C20316187   2.168   6.658   6.885  0.0695  0.6900  0.3666
   73MOL   C20416188   2.094   6.559   6.811 -0.6285  0.8227 -0.0000
   73MOL   C20516189   2.028   6.460   6.885  0.3204  0.5415 -0.3042
   73MOL   O20616190   1.965   6.356   6.816 -0.1094 -1.2954 -0.2944
   73MOL   H20716191   1.995   6.364   7.074  1.5536 -0.5926 -0.7015
   73MOL   H20816192   2.126   6.526   7.204 -0.2044 -2.6156 -0.5974
   73MOL   H20916193   2.232   6.731   6.837  1.9582 -1.3495 -0.3080
   73MOL   H21016194   2.083   6.571   6.704 -0.5267  0.8950 -0.0019
   73MOL   C21116195   1.777   6.471   6.520  0.6000 -0.4985 -0.2852
   73MOL   C21216196   1.805   6.440   6.657 -0.3899  0.3106 -0.9834
   73MOL   C21316197   1.923   6.368   6.685  0.7670  0.1847  0.2119
   73MOL   C21416198   1.999   6.311   6.575  0.4059 -0.6140 -0.4054
   73MOL   C21516199   1.965   6.342   6.442 -0.0043 -0.6313 -0.3220
   73MOL   C21616200   1.854   6.421   6.417 -0.5043 -0.4218 -0.2002
   73MOL   O21716201   1.827   6.447   6.287 -0.0927 -0.2373 -0.2412
   73MOL   H21816202   1.692   6.536   6.506  0.7180 -0.9013 -3.0935
   73MOL   H21916203   1.745   6.482   6.736  0.1756  0.6638 -0.7314
   73MOL   H22016204   2.079   6.239   6.590  1.1332 -0.1036 -1.8194
   73MOL   H22116205   2.019   6.295   6.361  0.0507 -1.1360  0.0127
   73MOL   H22216206   1.776   6.525   6.271 -1.6805 -1.1201  0.4457
   74MOL     C116207   1.632   5.041   2.014 -0.1397 -0.1696  0.2511
   74MOL     C216208   1.707   5.139   1.944  0.4691  0.6722 -0.2898
   74MOL     C316209   1.641   5.256   1.902 -0.0757  0.0363  0.0869
   74MOL     C416210   1.506   5.280   1.943  0.7415  0.2998 -0.5859
   74MOL     C516211   1.438   5.185   2.024 -0.7995 -0.1264 -0.5484
   74MOL     C616212   1.496   5.057   2.049 -0.2663 -0.2449  0.1946
   74MOL     O716213   1.424   4.964   2.114 -0.0416  0.4418 -0.0324
   74MOL     H816214   1.685   4.951   2.043  2.6453  1.4508  0.4027
   74MOL     H916215   1.813   5.131   1.924  0.4890  2.8280 -1.1843
   74MOL    H1016216   1.459   5.376   1.926  3.2747  1.4214 -1.4694
   74MOL    H1116217   1.342   5.209   2.066  1.0485 -0.7695  4.3471
   74MOL    H1216218   1.693   5.327   1.839  0.9752 -0.4175  0.4261
   74MOL    C1316219   1.223   4.668   2.044 -0.2542 -0.2394  0.3050
   74MOL    C1416220   1.296   4.766   2.112  0.2996 -0.4584 -0.2108
   74MOL    C1516221   1.348   4.875   2.045  0.0228 -0.0298 -0.1270
   74MOL    C1616222   1.315   4.889   1.904  0.2210 -0.0461 -0.1465
   74MOL    C1716223   1.238   4.796   1.835  0.0110  0.4478  1.1653
   74MOL    C1816224   1.193   4.678   1.906 -0.3647  0.1135 -0.0331
   74MOL    O1916225   1.115   4.586   1.841 -0.1433  0.0880  0.1597
   74MOL    H2016226   1.186   4.584   2.101 -1.4527  0.5058  0.6346
   74MOL    H2116227   1.307   4.755   2.219  0.7485  0.5219 -0.1509
   74MOL    H2216228   1.343   4.981   1.854 -1.7987  0.5901 -0.1657
   74MOL    H2316229   1.205   4.817   1.735  1.9541  2.3951  0.8882
   74MOL    C2416230   1.274   4.258   1.826  0.0251  0.2378 -0.5935
   74MOL    C2516231   1.218   4.372   1.881 -0.3122 -0.2549 -0.0712
   74MOL    C2616232   1.180   4.477   1.795  0.0746 -0.5805  0.7801
   74MOL    C2716233   1.215   4.481   1.656  0.4065 -0.1761 -0.1070
   74MOL    C2816234   1.277   4.367   1.604  0.1713 -0.1765  0.1770
   74MOL    C2916235   1.310   4.260   1.689 -0.8019 -0.2125  0.1655
   74MOL    O3016236   1.386   4.152   1.651 -0.3086  0.5396 -0.1031
   74MOL    H3116237   1.299   4.171   1.885 -1.7953  0.3288  0.3566
   74MOL    H3216238   1.185   4.382   1.983  1.5561 -0.4159  0.5678
   74MOL    H3316239   1.178   4.560   1.592  0.7803 -1.2640 -1.7038
   74MOL    H3416240   1.296   4.359   1.498  0.0637 -0.5394  0.1820
   74MOL    C3516241   1.694   4.268   1.487 -0.2470 -0.2764 -0.3745
   74MOL    C3616242   1.586   4.260   1.582 -0.2529 -0.1144 -0.6177
   74MOL    C3716243   1.476   4.176   1.552  0.1322 -0.3180  0.5874
   74MOL    C3816244   1.467   4.117   1.430  0.3640 -0.5884  0.2586
   74MOL    C3916245   1.567   4.139   1.327  0.6915 -0.0125 -0.2620
   74MOL    C4016246   1.683   4.213   1.355  0.0377 -0.5521  0.2072
   74MOL    O4116247   1.785   4.229   1.265  0.3339 -0.1373  0.0998
   74MOL    H4216248   1.784   4.321   1.513 -0.9126  0.5867  0.1991
   74MOL    H4316249   1.594   4.301   1.682 -0.6259 -2.0727  0.2237
   74MOL    H4416250   1.385   4.049   1.411  0.1602 -0.8420  2.0229
   74MOL    H4516251   1.573   4.088   1.232 -1.2157  1.1154 -1.0136
   74MOL    C4616252   1.748   4.544   1.064  0.2899  0.1549 -0.2660
   74MOL    C4716253   1.720   4.416   1.124 -0.1636 -0.3355 -0.3277
   74MOL    C4816254   1.812   4.351   1.209  0.0954  0.3368  0.4171
   74MOL    C4916255   1.933   4.410   1.239  0.3228  0.6326  0.2355
   74MOL    C5016256   1.970   4.529   1.173 -0.8364 -0.1846  0.0637
   74MOL    C5116257   1.875   4.600   1.089 -0.2306  0.3551  0.5977
   74MOL    O5216258   1.897   4.727   1.040  0.2947  0.0646  0.2852
   74MOL    H5316259   1.669   4.591   1.008 -1.9050 -0.4613  2.2146
   74MOL    H5416260   1.625   4.368   1.106  0.0421 -0.7219 -0.3830
   74MOL    H5516261   2.009   4.357   1.294  2.0172  1.8608 -0.8375
   74MOL    H5616262   2.065   4.576   1.192 -0.1591 -0.4759 -2.4867
   74MOL    C5716263   2.037   4.955   1.294  0.0103 -0.0953 -0.2481
   74MOL    C5816264   2.027   4.865   1.188  0.8884  0.4757  0.3243
   74MOL    C5916265   1.900   4.830   1.130  0.2938  0.4235 -0.5449
   74MOL    C6016266   1.782   4.897   1.177  0.7156  0.6946 -0.4842
   74MOL    C6116267   1.789   4.996   1.274 -0.3389 -0.5880 -0.1265
   74MOL    C6216268   1.917   5.026   1.335  0.1559 -0.0137 -0.0556
   74MOL    O6316269   1.926   5.119   1.437  0.1325  0.0618 -0.6818
   74MOL    H6416270   2.138   4.971   1.327  0.2646 -0.3505 -0.8950
   74MOL    H6516271   2.105   4.793   1.169 -2.0512 -3.0184  0.7659
   74MOL    H6616272   1.684   4.878   1.135  0.3288 -1.4881  1.2999
   74MOL    H6716273   1.700   5.048   1.307  1.0934  0.2791  2.4900
   74MOL    C6816274   1.929   4.932   1.767 -0.2542  0.3349  0.1690
   74MOL    C6916275   1.892   4.971   1.637  0.1912 -0.1620  0.1121
   74MOL    C7016276   1.962   5.069   1.562 -0.1144  0.3137 -0.1198
   74MOL    C7116277   2.084   5.111   1.619 -0.3271  1.0267  0.2094
   74MOL    C7216278   2.125   5.075   1.746  0.0657 -0.4310 -0.1443
   74MOL    C7316279   2.049   4.986   1.825  0.0642  0.2841  0.7016
   74MOL    O7416280   2.101   4.937   1.941 -0.0853  0.0532  0.2005
   74MOL    H7516281   1.873   4.858   1.823 -0.4522  0.4077  0.0688
   74MOL    H7616282   1.791   4.944   1.609 -0.4357  2.5635 -0.4307
   74MOL    H7716283   2.145   5.174   1.556  0.8890 -0.1749  0.1615
   74MOL    H7816284   2.223   5.102   1.782  0.4750 -1.4138 -0.5060
   74MOL    C7916285   1.954   5.028   2.266 -0.0443 -0.3255  0.6202
   74MOL    C8016286   2.024   5.035   2.143 -0.3296  0.0678  0.1750
   74MOL    C8116287   2.017   4.931   2.048  0.4457  0.0593 -0.6239
   74MOL    C8216288   1.934   4.823   2.079 -0.5162  0.3702  0.1675
   74MOL    C8316289   1.861   4.813   2.197 -0.0287 -0.1923 -0.3183
   74MOL    C8416290   1.873   4.912   2.295 -0.7101 -0.8166  0.0234
   74MOL    O8516291   1.792   4.918   2.409 -0.1069  0.1853  0.4570
   74MOL    H8616292   1.959   5.115   2.329  0.3148  0.8948 -1.0625
   74MOL    H8716293   2.086   5.120   2.119  0.8704 -0.5389  1.0508
   74MOL    H8816294   1.934   4.742   2.008 -0.3030  0.4272  0.1024
   74MOL    H8916295   1.802   4.724   2.211  0.5239 -0.7170 -1.2504
   74MOL    C9016296   1.949   4.788   2.709  0.1499 -0.0599  0.4570
   74MOL    C9116297   1.919   4.871   2.600  0.0774 -0.0444  0.0837
   74MOL    C9216298   1.808   4.839   2.517 -0.2852  0.4494  0.0346
   74MOL    C9316299   1.728   4.729   2.538 -0.0854  0.0544  0.4332
   74MOL    C9416300   1.756   4.646   2.646 -0.6694 -0.3394  0.3588
   74MOL    C9516301   1.867   4.678   2.728  0.1366  0.2573  0.0358
   74MOL    O9616302   1.899   4.598   2.835  0.3900  0.2757 -0.0557
   74MOL    H9716303   2.032   4.816   2.772  0.5008  0.7699 -0.3690
   74MOL    H9816304   1.980   4.956   2.571  0.7227 -0.5374 -0.0019
   74MOL    H9916305   1.641   4.713   2.476  0.4504 -1.3715  0.0310
   74MOL   H10016306   1.688   4.568   2.674 -0.6048 -0.4681  0.1591
   74MOL   C10116307   1.895   4.566   3.208  0.5073 -0.3150 -0.8960
   74MOL   C10216308   1.921   4.542   3.068 -0.3769 -0.8014  0.0167
   74MOL   C10316309   1.885   4.639   2.968  0.8425  0.2704  0.4050
   74MOL   C10416310   1.832   4.765   3.018 -0.0939 -0.6955 -0.5455
   74MOL   C10516311   1.825   4.789   3.154 -0.1549 -0.6986 -0.0280
   74MOL   C10616312   1.846   4.690   3.254  0.1877 -0.4735  0.5322
   74MOL   O10716313   1.819   4.705   3.390  0.3349  0.1712  0.2360
   74MOL   H10816314   1.933   4.504   3.288 -1.6219 -1.4210 -0.7259
   74MOL   H10916315   1.968   4.453   3.030  1.4794  0.4637 -0.7626
   74MOL   H11016316   1.792   4.844   2.956 -1.3922  0.7468  2.0325
   74MOL   H11116317   1.793   4.884   3.197 -0.7713 -1.9690  2.4480
   74MOL   C11216318   1.540   4.484   3.520 -0.7946 -0.2678  0.6656
   74MOL   C11316319   1.671   4.528   3.488 -0.8441  0.1087 -0.9511
   74MOL   C11416320   1.694   4.656   3.426 -0.0094 -0.3711  0.2005
   74MOL   C11516321   1.581   4.743   3.403  0.0508  0.0538 -0.1943
   74MOL   C11616322   1.451   4.698   3.429 -0.1003  0.4724  0.3838
   74MOL   C11716323   1.430   4.570   3.495  0.3016  0.2316  0.1891
   74MOL   O11816324   1.310   4.538   3.559 -0.3674  0.5718 -0.0737
   74MOL   H11916325   1.534   4.383   3.559  0.0842 -0.3207  0.6692
   74MOL   H12016326   1.750   4.459   3.510 -1.5620 -0.9936 -1.7488
   74MOL   H12116327   1.596   4.844   3.368 -0.8081  0.9210  1.8830
   74MOL   H12216328   1.375   4.773   3.414 -1.1169 -0.7772 -0.7698
   74MOL   C12316329   1.070   4.827   3.564  0.8655  0.0246  0.4382
   74MOL   C12416330   1.182   4.749   3.589 -0.2346  0.1995  0.6009
   74MOL   C12516331   1.196   4.608   3.550 -0.9353 -0.6658 -0.0682
   74MOL   C12616332   1.080   4.548   3.486  0.4977 -0.8197  0.4264
   74MOL   C12716333   0.969   4.629   3.460 -0.9976 -0.1867 -0.2337
   74MOL   C12816334   0.961   4.767   3.495  0.1882  0.0072  0.1646
   74MOL   O12916335   0.846   4.840   3.483  0.0294  0.4913  0.6191
   74MOL   H13016336   1.069   4.933   3.584 -1.3600  0.2210 -0.6431
   74MOL   H13116337   1.263   4.802   3.638 -0.3108 -0.4444  1.4387
   74MOL   H13216338   1.071   4.446   3.452 -0.8192 -0.6854  0.3520
   74MOL   H13316339   0.888   4.586   3.404 -0.3829  0.3350 -1.5402
   74MOL   C13416340   0.856   5.203   3.449  0.4457 -0.6613  0.5694
   74MOL   C13516341   0.860   5.078   3.509  0.8735  0.0432 -0.3824
   74MOL   C13616342   0.855   4.961   3.430 -0.2205  0.3559 -0.0697
   74MOL   C13716343   0.854   4.976   3.292  0.1141 -0.0425 -0.2100
   74MOL   C13816344   0.848   5.098   3.229 -0.8818  0.3311  0.1133
   74MOL   C13916345   0.848   5.216   3.306  0.1238 -0.1479  0.6223
   74MOL   O14016346   0.858   5.334   3.241 -0.2091 -0.1934 -0.5816
   74MOL   H14116347   0.858   5.297   3.500  0.6480 -0.0225 -0.5923
   74MOL   H14216348   0.861   5.067   3.616 -0.9990 -1.9580 -0.5558
   74MOL   H14316349   0.855   4.884   3.234 -0.2202 -0.4093  0.3553
   74MOL   H14416350   0.838   5.104   3.121 -0.0106 -0.5195 -0.0198
   74MOL   C14516351   0.598   5.551   3.407 -0.5043 -0.5311  0.2886
   74MOL   C14616352   0.659   5.449   3.321  0.1321  0.2979 -0.2951
   74MOL   C14716353   0.800   5.445   3.309 -0.4372  0.5194 -0.2800
   74MOL   C14816354   0.874   5.549   3.366  0.6001 -0.0069 -0.0303
   74MOL   C14916355   0.809   5.651   3.436 -1.0583  0.4508  0.5010
   74MOL   C15016356   0.675   5.649   3.467  0.1523 -0.4717 -0.6584
   74MOL   O15116357   0.622   5.734   3.556  0.2264 -0.4999  0.3549
   74MOL   H15216358   0.495   5.554   3.439 -1.0460 -4.0138 -0.9654
   74MOL   H15316359   0.593   5.378   3.273  2.6212 -1.1242 -1.7112
   74MOL   H15416360   0.982   5.555   3.360  0.5808  0.1067 -0.2406
   74MOL   H15516361   0.861   5.736   3.477 -0.0318 -0.7510  1.7649
   74MOL   C15616362   0.521   6.078   3.450  0.0354  0.3628  0.1018
   74MOL   C15716363   0.520   5.936   3.462 -0.5158 -0.2613  0.2621
   74MOL   C15816364   0.626   5.872   3.537 -0.3755 -0.3031 -0.4728
   74MOL   C15916365   0.732   5.959   3.583  0.4194  0.2334  0.5508
   74MOL   C16016366   0.741   6.096   3.557 -0.4056  0.9770  0.0743
   74MOL   C16116367   0.630   6.157   3.494 -0.0021  0.3259 -0.3241
   74MOL   O16216368   0.634   6.291   3.475 -0.1707  0.2953 -0.5743
   74MOL   H16316369   0.450   6.133   3.390  1.0854  0.3561 -1.1487
   74MOL   H16416370   0.430   5.884   3.431  0.4067 -0.9099 -1.4071
   74MOL   H16516371   0.801   5.914   3.652  0.4804  0.1211  0.4170
   74MOL   H16616372   0.832   6.146   3.585 -0.2375  0.0370  1.2333
   74MOL   C16716373   0.702   6.582   3.692  0.0643  1.2991 -0.1996
   74MOL   C16816374   0.720   6.483   3.597  0.4587  0.0408 -0.4464
   74MOL   C16916375   0.634   6.374   3.589 -0.2329 -0.4110 -0.2795
   74MOL   C17016376   0.533   6.360   3.684 -0.6481  0.1797 -0.3252
   74MOL   C17116377   0.515   6.461   3.780 -0.2697  0.0843  0.1217
   74MOL   C17216378   0.604   6.573   3.789 -0.1738 -0.3399 -0.2411
   74MOL   O17316379   0.600   6.660   3.892  0.0126 -0.3793 -0.5328
   74MOL   H17416380   0.763   6.671   3.687  1.5043  0.5525  2.8772
   74MOL   H17516381   0.793   6.486   3.518  1.8300  0.9609  0.8232
   74MOL   H17616382   0.467   6.275   3.680  0.3355 -0.5957 -0.4579
   74MOL   H17716383   0.445   6.450   3.862  0.6336  1.6974  1.1229
   74MOL   C17816384   0.346   6.762   4.128  0.4528  0.1877  0.0961
   74MOL   C17916385   0.453   6.701   4.069  0.4782 -0.2621 -0.6942
   74MOL   C18016386   0.480   6.711   3.933  0.6851  0.5273  0.5055
   74MOL   C18116387   0.387   6.780   3.854 -0.0418 -0.5314  0.0566
   74MOL   C18216388   0.272   6.841   3.911 -0.1260  0.2207 -1.0975
   74MOL   C18316389   0.251   6.826   4.050 -1.1014 -0.5029  1.1483
   74MOL   O18416390   0.151   6.893   4.115  0.0527  0.5684 -0.3615
   74MOL   H18516391   0.328   6.756   4.234  1.2050 -0.3712  0.1942
   74MOL   H18616392   0.508   6.628   4.126  0.1024  0.1417  0.2009
   74MOL   H18716393   0.411   6.787   3.749 -2.2572 -0.5675 -0.4859
   74MOL   H18816394   0.203   6.906   3.859  0.9985  1.2734 -1.3071
   74MOL   C18916395   0.191   7.078   4.428  0.0307 -0.1900 -0.0994
   74MOL   C19016396   0.140   6.997   4.325  0.4196  0.0614 -0.0540
   74MOL   C19116397   0.193   6.997   4.195  0.8123 -0.6271  0.2727
   74MOL   C19216398   0.284   7.099   4.164  0.2776 -0.1198  0.1417
   74MOL   C19316399   0.336   7.185   4.262 -0.0125  0.2726  0.3183
   74MOL   C19416400   0.288   7.177   4.393  0.1455 -0.5917 -0.0195
   74MOL   O19516401   0.325   7.258   4.499 -0.5551  0.1307 -0.2586
   74MOL   H19616402   0.152   7.084   4.528  1.0815  0.5359  0.2724
   74MOL   H19716403   0.069   6.917   4.337  2.9062 -2.1420  0.4107
   74MOL   H19816404   0.324   7.108   4.064 -0.2192 -0.4018 -0.0845
   74MOL   H19916405   0.400   7.266   4.230  0.9650 -0.8548 -0.6149
   74MOL   C20016406   0.664   7.158   4.597 -0.1794  0.1142  0.4662
   74MOL   C20116407   0.524   7.145   4.580  0.3319  0.5610  0.3605
   74MOL   C20216408   0.457   7.262   4.527 -0.5040 -0.5588 -0.2067
   74MOL   C20316409   0.530   7.376   4.496 -0.0237 -0.0714  0.6281
   74MOL   C20416410   0.665   7.392   4.523 -0.1630 -0.6496  0.4845
   74MOL   C20516411   0.729   7.277   4.573 -0.3794 -0.6927 -0.7461
   74MOL   O20616412   0.868   7.270   4.593 -0.4857 -0.1761  0.0940
   74MOL   H20716413   0.724   7.073   4.630 -0.7710  0.2140  1.8561
   74MOL   H20816414   0.457   7.062   4.595  0.4849 -0.2209 -2.8575
   74MOL   H20916415   0.474   7.456   4.450 -0.4702 -0.8878 -0.2709
   74MOL   H21016416   0.716   7.484   4.496 -1.8391  0.5752  1.3993
   74MOL   C21116417   1.067   7.544   4.444 -0.1132  0.0664 -0.2754
   74MOL   C21216418   0.999   7.419   4.457 -0.5522 -0.0785  0.8005
   74MOL   C21316419   0.942   7.382   4.581 -1.0015 -0.0255  0.4772
   74MOL   C21416420   0.964   7.458   4.692  0.1469 -0.0696  0.5140
   74MOL   C21516421   1.041   7.578   4.681  0.3173 -0.4050 -0.6543
   74MOL   C21616422   1.085   7.621   4.558 -0.5303 -0.0424 -0.0615
   74MOL   O21716423   1.165   7.735   4.561  0.2782 -0.6250  0.1936
   74MOL   H21816424   1.107   7.568   4.347 -2.2056 -2.3973 -1.8272
   74MOL   H21916425   0.974   7.367   4.366 -0.9350  0.2261  0.7296
   74MOL   H22016426   0.917   7.429   4.784  1.2942  1.8102  1.7352
   74MOL   H22116427   1.067   7.638   4.766 -0.6336  2.1424 -2.1121
   74MOL   H22216428   1.168   7.779   4.645 -0.1525 -1.1664  0.4945
   75MOL     C116429   6.508   5.726   1.008 -0.4700 -0.2801 -0.1298
   75MOL     C216430   6.531   5.839   0.928  0.7586  0.0322 -0.3703
   75MOL     C316431   6.649   5.849   0.853  0.3257 -0.3280  0.7175
   75MOL     C416432   6.740   5.746   0.848 -0.0081  0.5765  0.6571
   75MOL     C516433   6.709   5.628   0.913  0.5705 -0.1835  0.9437
   75MOL     C616434   6.597   5.615   1.000 -0.2420  0.3871  0.1196
   75MOL     O716435   6.589   5.501   1.082 -0.1916  0.5529  0.6069
   75MOL     H816436   6.416   5.718   1.065 -1.9168  0.8979 -2.2176
   75MOL     H916437   6.459   5.920   0.929 -1.1040 -1.5292  4.8743
   75MOL    H1016438   6.830   5.756   0.788  0.8338  0.3887  1.8863
   75MOL    H1116439   6.776   5.543   0.910 -0.1733 -0.7749  1.2710
   75MOL    H1216440   6.660   5.940   0.795  1.1775 -1.6692 -1.3024
   75MOL    C1316441   6.259   5.333   1.101  0.2403 -0.4034  0.1497
   75MOL    C1416442   6.369   5.410   1.133 -0.8873  0.6295 -0.6636
   75MOL    C1516443   6.480   5.418   1.049  0.2924  0.4562 -0.3096
   75MOL    C1616444   6.475   5.342   0.931  0.1932  0.2359  0.6858
   75MOL    C1716445   6.371   5.249   0.909 -0.3875 -0.0761 -0.2780
   75MOL    C1816446   6.259   5.246   0.990  0.6870  0.3639  0.7892
   75MOL    O1916447   6.158   5.161   0.950  0.5575 -0.0409 -0.4069
   75MOL    H2016448   6.177   5.337   1.172  0.6741  1.1532  0.5769
   75MOL    H2116449   6.365   5.460   1.229 -0.4393  0.0678 -0.3488
   75MOL    H2216450   6.548   5.336   0.852 -1.6657  0.2557 -1.0676
   75MOL    H2316451   6.366   5.191   0.818 -1.3647  1.2207 -1.0648
   75MOL    C2416452   5.926   5.056   1.211  0.3111 -0.4370 -0.2314
   75MOL    C2516453   6.044   5.078   1.137  0.1218  0.0513 -0.5573
   75MOL    C2616454   6.046   5.159   1.025  0.1241  0.6741  0.4865
   75MOL    C2716455   5.925   5.226   0.989  0.6046 -0.0569 -0.4821
   75MOL    C2816456   5.805   5.208   1.064 -0.3520 -0.2021  0.6078
   75MOL    C2916457   5.806   5.123   1.172 -0.7589  0.2143  0.0223
   75MOL    O3016458   5.690   5.095   1.247  0.1845  0.2939 -0.1987
   75MOL    H3116459   5.922   4.983   1.291  0.6223 -2.1187 -1.7285
   75MOL    H3216460   6.135   5.027   1.162 -0.7653 -1.3400 -0.1103
   75MOL    H3316461   5.918   5.280   0.895  1.2550  1.4868  0.3416
   75MOL    H3416462   5.713   5.255   1.033 -1.1393 -2.2776 -0.3085
   75MOL    C3516463   5.563   5.354   1.457 -0.0907 -0.4958 -0.6211
   75MOL    C3616464   5.593   5.283   1.343  0.4468  0.1991 -0.2137
   75MOL    C3716465   5.664   5.164   1.356 -0.3991  0.4571  0.0592
   75MOL    C3816466   5.705   5.116   1.478 -0.1940  0.0130 -0.0089
   75MOL    C3916467   5.677   5.190   1.595 -0.0520  0.1230 -0.4451
   75MOL    C4016468   5.611   5.313   1.585  0.1518  0.3261  0.1748
   75MOL    O4116469   5.598   5.396   1.697  0.5425  0.3598 -0.0655
   75MOL    H4216470   5.503   5.444   1.450 -0.7553 -0.8385  0.5523
   75MOL    H4316471   5.570   5.325   1.246  1.6198  0.6987 -0.2898
   75MOL    H4416472   5.757   5.021   1.486 -1.4511 -1.0648 -3.9661
   75MOL    H4516473   5.703   5.155   1.694 -2.5400 -1.9961 -0.4774
   75MOL    C4616474   5.872   5.620   1.679 -0.3677  0.4992  0.2276
   75MOL    C4716475   5.755   5.556   1.643  0.7537 -0.2517  0.3170
   75MOL    C4816476   5.702   5.471   1.730 -0.0400 -0.5479 -0.1342
   75MOL    C4916477   5.740   5.471   1.865  0.0613  0.3466  0.8867
   75MOL    C5016478   5.851   5.542   1.905 -0.4376 -0.0143  0.1294
   75MOL    C5116479   5.920   5.613   1.813 -0.0111  0.7662  0.8686
   75MOL    O5216480   6.035   5.673   1.861 -0.7184  0.5489  0.6231
   75MOL    H5316481   5.932   5.676   1.610 -0.0580  1.7064  1.4608
   75MOL    H5416482   5.713   5.571   1.544 -0.5427 -1.3877  0.6738
   75MOL    H5516483   5.697   5.395   1.929  1.2870 -1.0700  0.0732
   75MOL    H5616484   5.888   5.537   2.006 -1.1339 -2.0684  0.3191
   75MOL    C5716485   6.238   5.873   1.618  0.1427  0.3198 -0.4664
   75MOL    C5816486   6.130   5.828   1.699  0.4238  0.0833  0.6573
   75MOL    C5916487   6.138   5.710   1.771 -0.3785  0.3716  0.4789
   75MOL    C6016488   6.261   5.637   1.768 -0.4145 -0.2869 -0.2529
   75MOL    C6116489   6.365   5.679   1.685 -0.1267  0.3429 -0.5055
   75MOL    C6216490   6.351   5.792   1.604 -0.4054 -0.5162  0.3665
   75MOL    O6316491   6.470   5.844   1.551 -1.1139 -0.2119  0.4259
   75MOL    H6416492   6.236   5.972   1.574  0.7849  0.8499  0.6605
   75MOL    H6516493   6.044   5.893   1.708  0.8254  0.8549 -0.7634
   75MOL    H6616494   6.278   5.549   1.829 -2.0523 -0.8918 -0.6217
   75MOL    H6716495   6.450   5.613   1.691  0.6069  1.4994  3.5259
   75MOL    C6816496   6.559   6.151   1.384  0.4816 -0.1131  0.0636
   75MOL    C6916497   6.553   6.052   1.482 -0.4517 -1.0784 -0.4193
   75MOL    C7016498   6.469   5.947   1.458  0.1126 -0.1648 -1.0989
   75MOL    C7116499   6.389   5.926   1.347  0.1892  0.6299  0.8206
   75MOL    C7216500   6.415   6.016   1.239  0.4806 -0.2855  0.0661
   75MOL    C7316501   6.490   6.135   1.262 -0.1572  0.1863  0.3198
   75MOL    O7416502   6.495   6.232   1.167 -0.1649 -0.2724 -0.4968
   75MOL    H7516503   6.618   6.241   1.393  1.4470 -0.5643 -1.5233
   75MOL    H7616504   6.617   6.048   1.569 -0.5868  0.7065 -0.2165
   75MOL    H7716505   6.307   5.859   1.325 -0.2732  1.5020 -0.1790
   75MOL    H7816506   6.360   5.998   1.148 -0.8354  0.3910  0.7008
   75MOL    C7916507   6.676   6.236   0.851  0.4736  0.0766  0.2274
   75MOL    C8016508   6.574   6.220   0.949  0.1291  0.3105 -0.2011
   75MOL    C8116509   6.601   6.242   1.081 -0.3909 -0.3918 -0.6169
   75MOL    C8216510   6.730   6.286   1.126 -1.2037 -0.2904 -0.3829
   75MOL    C8316511   6.829   6.299   1.029 -0.3064 -0.2384 -0.2413
   75MOL    C8416512   6.802   6.284   0.892  0.3580 -0.0304 -0.2355
   75MOL    O8516513   6.890   6.326   0.796  0.4534 -0.2702  0.2148
   75MOL    H8616514   6.660   6.235   0.745  2.0705 -1.1443 -0.0155
   75MOL    H8716515   6.472   6.191   0.929  0.4024 -0.9175  0.1162
   75MOL    H8816516   6.759   6.305   1.228  0.9246  1.5576 -1.2804
   75MOL    H8916517   6.928   6.328   1.061 -1.0183  1.6698  0.3506
   75MOL    C9016518   7.050   6.024   0.638  0.2024 -0.2629  0.3003
   75MOL    C9116519   6.946   6.109   0.681 -0.5695  0.3709  0.4912
   75MOL    C9216520   6.978   6.237   0.743 -0.1428  0.5113  0.4682
   75MOL    C9316521   7.116   6.274   0.744  0.4923  0.2218  0.2024
   75MOL    C9416522   7.216   6.192   0.696  0.2164  0.0269 -0.6297
   75MOL    C9516523   7.183   6.071   0.639  0.7267 -0.7227 -0.1199
   75MOL    O9616524   7.282   5.987   0.596 -0.2150 -0.1616 -0.4882
   75MOL    H9716525   7.032   5.927   0.593  0.6722  0.3276 -1.2070
   75MOL    H9816526   6.840   6.087   0.680 -0.4086 -0.4066  0.3114
   75MOL    H9916527   7.146   6.370   0.784  0.6720  0.4722 -0.5353
   75MOL   H10016528   7.320   6.214   0.713  0.4951 -2.1174  0.6695
   75MOL   C10116529   7.539   5.997   0.329 -0.0330  0.3555 -0.2535
   75MOL   C10216530   7.475   5.968   0.452  0.6650 -0.4348  0.9113
   75MOL   C10316531   7.337   6.001   0.473  0.5771  0.3670 -0.0083
   75MOL   C10416532   7.265   6.053   0.363  0.1538  0.7931 -0.7209
   75MOL   C10516533   7.329   6.077   0.236  0.1243  0.8127 -0.3366
   75MOL   C10616534   7.465   6.051   0.219 -0.0463  0.0179  0.6946
   75MOL   O10716535   7.524   6.079   0.097  0.3493  0.0397  0.4320
   75MOL   H10816536   7.640   5.967   0.303  0.1477  1.1489 -0.4845
   75MOL   H10916537   7.532   5.931   0.536  1.8450 -1.1413 -0.1698
   75MOL   H11016538   7.163   6.088   0.370  0.4492  1.3908  0.7295
   75MOL   H11116539   7.276   6.114   0.150  0.4146 -1.1514 -1.4017
   75MOL   C11216540   7.497   6.434   0.011  0.0184  0.4563 -0.1298
   75MOL   C11316541   7.461   6.302   0.038 -0.1206 -0.3654 -0.1339
   75MOL   C11416542   7.556   6.207   0.072 -0.3246  0.0473  0.6113
   75MOL   C11516543   7.685   6.248   0.088 -0.6404 -0.3199  0.1046
   75MOL   C11616544   7.726   6.387   0.081  0.0356  0.1068  0.4429
   75MOL   C11716545   7.629   6.479   0.037  0.2392  0.6967 -0.4150
   75MOL   O11816546   7.663   6.603   0.006 -0.0487 -0.2798  0.2842
   75MOL   H11916547   7.419   6.504   8.237  0.0397  0.7526  0.5434
   75MOL   H12016548   7.361   6.266   0.023 -0.0699 -0.7129  0.3427
   75MOL   H12116549   7.754   6.171   0.119 -0.2620  0.4526  1.2189
   75MOL   H12216550   7.827   6.413   0.108  0.7390 -2.3778  0.3080
   75MOL   C12316551   7.980   6.757   0.148  0.1059 -0.6672 -0.2595
   75MOL   C12416552   7.889   6.684   0.063  0.8121 -0.3574 -0.1235
   75MOL   C12516553   7.748   6.670   0.091 -0.4695 -0.5256 -0.4827
   75MOL   C12616554   7.696   6.733   0.206  0.0526 -0.3352  0.3550
   75MOL   C12716555   7.786   6.805   0.291 -0.2283  0.5557  0.2749
   75MOL   C12816556   7.927   6.813   0.262  0.2632 -0.3986 -0.6537
   75MOL   O12916557   8.010   6.879   0.351 -0.0917  0.0576 -0.2606
   75MOL   H13016558   8.085   6.766   0.127  0.4291 -0.1207  1.5357
   75MOL   H13116559   7.929   6.630   8.233 -0.7938 -0.4294 -0.8693
   75MOL   H13216560   7.590   6.732   0.226 -0.7444 -0.9697 -3.4960
   75MOL   H13316561   7.742   6.861   0.372  0.6631  0.0104  1.1613
   75MOL   C13416562   8.215   6.610   0.500  0.5260  0.5654  0.3057
   75MOL   C13516563   8.110   6.669   0.425  0.3037  0.0003 -0.5471
   75MOL   C13616564   8.106   6.811   0.415  0.6446  0.5393  0.2350
   75MOL   C13716565   8.194   6.890   0.493 -0.9844  0.2695  0.2215
   75MOL   C13816566   0.046   6.830   0.562  0.5074 -0.8836  0.0944
   75MOL   C13916567   0.054   6.689   0.570  0.2899 -0.4493  0.4192
   75MOL   O14016568   0.158   6.629   0.641 -0.3280 -1.0849 -0.1082
   75MOL   H14116569   8.217   6.502   0.504 -0.7073  0.5605  1.0797
   75MOL   H14216570   8.034   6.604   0.384 -1.2504 -0.0238  2.2924
   75MOL   H14316571   8.188   6.997   0.500 -0.4734  0.5288 -2.9934
   75MOL   H14416572   0.114   6.895   0.616 -1.8738  1.9180 -0.1000
   75MOL   C14516573   0.352   6.688   0.944  0.1127 -0.9246 -0.1729
   75MOL   C14616574   0.314   6.672   0.809  0.1445  0.0488 -0.7109
   75MOL   C14716575   0.180   6.645   0.776 -0.4580 -0.3030 -0.2081
   75MOL   C14816576   0.085   6.624   0.877 -0.5450 -0.5246  0.0317
   75MOL   C14916577   0.123   6.628   1.014  0.1158 -1.0975 -0.2125
   75MOL   C15016578   0.258   6.660   1.044 -0.5417  0.8371 -0.0150
   75MOL   O15116579   0.291   6.676   1.173  0.2077  0.0941 -0.0888
   75MOL   H15216580   0.453   6.712   0.974 -0.5898 -0.3579  1.8209
   75MOL   H15316581   0.380   6.678   0.724  1.9485 -0.2431  0.6413
   75MOL   H15416582   8.239   6.589   0.856 -0.8220  0.6963 -0.7272
   75MOL   H15516583   0.049   6.617   1.092  0.9001  0.2340  0.7448
   75MOL   C15616584   0.531   6.545   1.417  0.1189  0.1996  0.1529
   75MOL   C15716585   0.454   6.632   1.341  0.0587  0.3154 -0.1810
   75MOL   C15816586   0.365   6.583   1.246  0.0334  0.0110 -0.0872
   75MOL   C15916587   0.369   6.446   1.214  0.6035 -0.3355  0.4289
   75MOL   C16016588   0.442   6.361   1.294  0.6825  0.4079 -0.0253
   75MOL   C16116589   0.532   6.409   1.393  0.6328  0.1699 -0.3946
   75MOL   O16216590   0.609   6.318   1.457 -0.4280  0.3671 -0.8347
   75MOL   H16316591   0.597   6.591   1.488  0.2293 -0.5678  0.5588
   75MOL   H16416592   0.449   6.737   1.365 -0.8745 -0.2343  2.1955
   75MOL   H16516593   0.327   6.409   1.121 -0.7431  0.1997  0.8266
   75MOL   H16616594   0.439   6.257   1.267  0.7779  0.1996  0.7570
   75MOL   C16716595   0.957   6.312   1.592 -0.0789  0.0576 -0.3841
   75MOL   C16816596   0.820   6.294   1.590  0.0143  0.2052  0.2912
   75MOL   C16916597   0.748   6.325   1.468 -0.0547 -0.2150 -0.4901
   75MOL   C17016598   0.824   6.375   1.355 -0.1912  0.0564  0.1022
   75MOL   C17116599   0.960   6.396   1.356 -0.1505  0.5966 -0.2476
   75MOL   C17216600   1.030   6.362   1.475  0.3577 -0.3499  0.3310
   75MOL   O17316601   1.169   6.379   1.475  0.2227  0.0718  0.3138
   75MOL   H17416602   1.011   6.293   1.683 -2.2852 -1.3954  0.6800
   75MOL   H17516603   0.767   6.274   1.682  0.3063  0.3474  0.4941
   75MOL   H17616604   0.767   6.401   1.267  0.6137 -1.3940 -0.8563
   75MOL   H17716605   1.018   6.443   1.278 -0.7698  2.5593  0.4356
   75MOL   C17816606   1.371   6.461   1.772  0.3059 -0.4128  0.1133
   75MOL   C17916607   1.307   6.381   1.675 -0.6938 -0.0525 -0.2629
   75MOL   C18016608   1.230   6.447   1.579 -0.1215 -0.8172 -0.6170
   75MOL   C18116609   1.210   6.583   1.584  0.0964 -0.6878  0.3050
   75MOL   C18216610   1.261   6.661   1.687  0.4510  0.6741  0.5322
   75MOL   C18316611   1.349   6.600   1.783 -0.4156  0.3586 -0.4706
   75MOL   O18416612   1.415   6.678   1.875  0.0204  0.0359  0.6838
   75MOL   H18516613   1.431   6.407   1.844 -1.7059  0.3869  2.4390
   75MOL   H18616614   1.324   6.275   1.681  1.7227  0.2163 -1.6605
   75MOL   H18716615   1.141   6.632   1.517 -2.6076 -2.6954  1.4789
   75MOL   H18816616   1.241   6.766   1.698 -0.5024  0.3178  2.4542
   75MOL   C18916617   1.589   6.980   1.763  0.7285 -0.1121  0.6564
   75MOL   C19016618   1.485   6.889   1.789 -0.1469 -0.1687 -0.0676
   75MOL   C19116619   1.517   6.758   1.831 -0.2222  0.9217  1.0373
   75MOL   C19216620   1.646   6.711   1.821  0.0301 -0.2880  0.0573
   75MOL   C19316621   1.748   6.792   1.773 -0.0463 -0.2774  0.6926
   75MOL   C19416622   1.722   6.931   1.757  0.6824  0.5615  0.4194
   75MOL   O19516623   1.826   7.020   1.731  0.0450 -0.1584 -0.2031
   75MOL   H19616624   1.564   7.080   1.732 -1.1379 -0.9325 -0.5611
   75MOL   H19716625   1.384   6.927   1.794  1.0582  3.4377 -1.6160
   75MOL   H19816626   1.668   6.607   1.840  0.2203 -0.0140  1.3782
   75MOL   H19916627   1.843   6.749   1.744 -0.6462 -0.9669 -0.2812
   75MOL   C20016628   1.914   7.312   1.932 -0.6453 -0.1284 -0.2145
   75MOL   C20116629   1.873   7.237   1.820 -0.2651 -0.2756  0.0603
   75MOL   C20216630   1.864   7.098   1.838  0.1894  0.1216 -0.2630
   75MOL   C20316631   1.909   7.038   1.961 -0.1064  0.0243  0.5093
   75MOL   C20416632   1.960   7.120   2.063  0.0619 -0.4743  0.4813
   75MOL   C20516633   1.954   7.260   2.051 -0.5347  0.4287  0.1899
   75MOL   O20616634   2.001   7.330   2.163 -0.9692 -0.1190 -0.1664
   75MOL   H20716635   1.912   7.419   1.923  1.5523 -0.1318 -1.3273
   75MOL   H20816636   1.853   7.274   1.720  0.2280 -1.7908 -0.6113
   75MOL   H20916637   1.919   6.931   1.965 -1.1411 -0.1040  0.0653
   75MOL   H21016638   1.990   7.080   2.159 -1.3938  1.6161  1.8374
   75MOL   C21116639   1.853   7.546   2.429  0.0060  0.2950 -0.1204
   75MOL   C21216640   1.916   7.500   2.312 -0.4667 -0.0351 -0.0143
   75MOL   C21316641   1.922   7.366   2.271  0.4308  0.4013  0.4890
   75MOL   C21416642   1.845   7.272   2.351  0.4035 -0.1710  0.0086
   75MOL   C21516643   1.772   7.317   2.469  0.2411 -0.6697 -0.4370
   75MOL   C21616644   1.778   7.454   2.509  0.6350  0.2531  0.2463
   75MOL   O21716645   1.717   7.494   2.626  0.2730  0.9496 -0.4696
   75MOL   H21816646   1.867   7.651   2.446 -1.1752  0.7842 -1.9720
   75MOL   H21916647   1.962   7.573   2.247 -1.4201  0.8724  0.3133
   75MOL   H22016648   1.856   7.165   2.337 -2.3077 -0.7075  1.5433
   75MOL   H22116649   1.717   7.250   2.533 -1.3017  0.0763 -0.9289
   75MOL   H22216650   1.741   7.582   2.651  0.1752  0.3717  1.7875
   76MOL     C116651   1.002   5.098   4.554 -0.1176 -1.0877 -0.1759
   76MOL     C216652   1.130   5.110   4.612  0.0349  0.0457 -0.5832
   76MOL     C316653   1.204   5.230   4.589 -0.0837  0.0068  0.8615
   76MOL     C416654   1.138   5.334   4.521 -0.7274 -0.1696 -0.7083
   76MOL     C516655   1.002   5.321   4.474 -0.4515  0.1642 -0.4172
   76MOL     C616656   0.934   5.201   4.489 -0.4330  0.5638  0.2811
   76MOL     O716657   0.807   5.186   4.432 -0.0399  0.2692  0.2304
   76MOL     H816658   0.958   5.000   4.568  0.4668 -1.2470  0.6126
   76MOL     H916659   1.179   5.021   4.650 -0.8304  0.4142  1.4711
   76MOL    H1016660   1.190   5.428   4.507  0.8725 -0.7626  1.0917
   76MOL    H1116661   0.955   5.387   4.403 -1.3535 -1.4530 -1.3268
   76MOL    H1216662   1.305   5.245   4.624 -0.1137  2.0258  0.1570
   76MOL    C1316663   0.845   5.057   4.086 -0.1865 -0.2389  0.6928
   76MOL    C1416664   0.846   5.148   4.199 -0.2336 -0.1570  0.8975
   76MOL    C1516665   0.797   5.106   4.324 -0.2660  0.8341  0.0542
   76MOL    C1616666   0.754   4.975   4.343  1.0798 -1.0728 -0.8620
   76MOL    C1716667   0.763   4.881   4.233  0.7237 -0.3095 -0.7515
   76MOL    C1816668   0.812   4.919   4.103 -0.6989 -0.5466  0.8010
   76MOL    O1916669   0.834   4.823   4.000  0.1300  0.1071 -0.0412
   76MOL    H2016670   0.884   5.088   3.990 -0.3923 -1.9308  0.0417
   76MOL    H2116671   0.880   5.251   4.199 -3.6587  1.0752 -1.1265
   76MOL    H2216672   0.738   4.945   4.445 -0.2066  0.7620 -0.4872
   76MOL    H2316673   0.748   4.776   4.252  1.2330 -0.1241  0.7577
   76MOL    C2416674   0.659   4.691   3.701  0.4102  0.4118 -0.0394
   76MOL    C2516675   0.760   4.732   3.790  0.2518  0.5121  0.9637
   76MOL    C2616676   0.729   4.773   3.922 -0.1267  0.7136 -0.2509
   76MOL    C2716677   0.595   4.753   3.964 -0.5440 -0.2126  0.1617
   76MOL    C2816678   0.495   4.701   3.883  0.6377 -0.2502  0.1560
   76MOL    C2916679   0.529   4.665   3.752 -0.6407 -1.1516 -0.3195
   76MOL    O3016680   0.432   4.603   3.678  0.1967  0.5661  0.2074
   76MOL    H3116681   0.682   4.649   3.604  1.6446  1.7702 -0.3431
   76MOL    H3216682   0.862   4.736   3.756  0.4333 -2.5236  1.0114
   76MOL    H3316683   0.574   4.776   4.068  0.3982  0.0085  0.3133
   76MOL    H3416684   0.398   4.691   3.929  0.1440  0.3138 -0.7523
   76MOL    C3516685   0.468   4.242   3.776  0.2487  0.6373 -0.2555
   76MOL    C3616686   0.480   4.382   3.780  0.0179  0.1577 -0.9478
   76MOL    C3716687   0.418   4.465   3.682  0.1680  0.1953 -0.4026
   76MOL    C3816688   0.346   4.407   3.578  0.0786 -0.3068 -0.2957
   76MOL    C3916689   0.315   4.271   3.586  0.2881 -1.0286  0.5130
   76MOL    C4016690   0.380   4.187   3.674 -0.0518 -0.2725 -0.7556
   76MOL    O4116691   0.360   4.049   3.660  0.4834  0.1708 -0.1939
   76MOL    H4216692   0.513   4.174   3.846 -2.2188 -1.3633 -0.5658
   76MOL    H4316693   0.560   4.426   3.838  0.4281 -1.6272 -0.1206
   76MOL    H4416694   0.312   4.473   3.500 -0.3784 -0.2070 -0.0137
   76MOL    H4516695   0.246   4.228   3.515  1.5434 -0.7447 -0.9066
   76MOL    C4616696   0.445   3.810   3.927  0.0543 -0.0619 -0.0211
   76MOL    C4716697   0.374   3.910   3.857 -0.0756  0.3395  0.4323
   76MOL    C4816698   0.428   3.962   3.737  0.4819 -0.0360 -0.4359
   76MOL    C4916699   0.547   3.909   3.683 -0.2795  0.6403  0.0474
   76MOL    C5016700   0.622   3.819   3.757  0.1106 -0.8720 -0.6529
   76MOL    C5116701   0.573   3.759   3.879  0.8410  0.2141 -0.0927
   76MOL    O5216702   0.636   3.649   3.936  0.5053  0.3272  0.1216
   76MOL    H5316703   0.406   3.772   4.020 -0.2663 -0.5051 -0.3343
   76MOL    H5416704   0.275   3.934   3.892  0.4675  1.0690  1.4824
   76MOL    H5516705   0.595   3.959   3.600  2.9892  0.2350  1.6098
   76MOL    H5616706   0.718   3.785   3.721 -0.8768 -3.3450 -1.0670
   76MOL    C5716707   0.826   3.637   4.241 -1.4152 -0.1029  0.0733
   76MOL    C5816708   0.719   3.640   4.156  0.8295 -0.1464  0.4174
   76MOL    C5916709   0.740   3.669   4.022 -0.0041 -1.1669 -0.5123
   76MOL    C6016710   0.863   3.713   3.974  0.4543 -0.2903  0.5980
   76MOL    C6116711   0.967   3.736   4.062  0.1648  0.3259 -0.0645
   76MOL    C6216712   0.951   3.692   4.198 -0.2423 -0.4047 -0.1321
   76MOL    O6316713   1.064   3.701   4.277 -0.1839  0.4506 -0.2137
   76MOL    H6416714   0.810   3.597   4.340 -1.9517 -0.4795 -0.1611
   76MOL    H6516715   0.620   3.617   4.192  0.4477  1.0011  0.1280
   76MOL    H6616716   0.866   3.733   3.868  1.3546 -0.8619  0.5155
   76MOL    H6716717   1.067   3.771   4.040  1.0837 -0.5569  2.4842
   76MOL    C6816718   1.246   3.405   4.417  0.2129 -0.8902 -0.5964
   76MOL    C6916719   1.153   3.514   4.396 -0.0159  0.0790 -0.6506
   76MOL    C7016720   1.148   3.594   4.281 -0.9269 -0.3212  0.4648
   76MOL    C7116721   1.242   3.565   4.178 -0.4644 -0.1710  0.3688
   76MOL    C7216722   1.332   3.450   4.190  0.4691  0.0084 -0.0301
   76MOL    C7316723   1.333   3.372   4.309 -1.2054  0.5662 -0.0823
   76MOL    O7416724   1.414   3.260   4.322 -0.6073 -0.0326  0.6343
   76MOL    H7516725   1.244   3.347   4.508 -0.6827  3.4628  2.3150
   76MOL    H7616726   1.078   3.535   4.470 -0.9892 -0.4986 -1.4556
   76MOL    H7716727   1.241   3.626   4.089 -0.8623  0.7073  0.9664
   76MOL    H7816728   1.387   3.430   4.099  0.1933  1.4480 -0.5304
   76MOL    C7916729   1.587   3.305   4.649 -0.2883 -0.6416  0.1404
   76MOL    C8016730   1.544   3.323   4.514 -0.0065  0.4054  0.2742
   76MOL    C8116731   1.465   3.227   4.451  0.5286  0.1669  0.0114
   76MOL    C8216732   1.440   3.099   4.515  0.3405 -0.2838 -0.7951
   76MOL    C8316733   1.503   3.083   4.640 -0.4395  0.1360 -0.1219
   76MOL    C8416734   1.567   3.183   4.711  0.8004 -0.2967  0.0700
   76MOL    O8516735   1.616   3.158   4.838 -0.0741  0.3297  0.2683
   76MOL    H8616736   1.632   3.386   4.704 -1.3716 -1.2504  1.9589
   76MOL    H8716737   1.565   3.422   4.477  1.7718 -0.3242 -0.7104
   76MOL    H8816738   1.373   3.028   4.467 -1.4897  1.0920 -0.3404
   76MOL    H8916739   1.489   2.991   4.696 -2.2832  0.1865 -0.4471
   76MOL    C9016740   1.505   3.392   5.094 -0.3935  0.3341 -0.0994
   76MOL    C9116741   1.572   3.330   4.988 -0.1726 -0.1717 -0.2704
   76MOL    C9216742   1.541   3.203   4.941  0.2809 -0.5906 -0.5395
   76MOL    C9316743   1.445   3.130   5.010 -0.5203 -0.4010  0.4475
   76MOL    C9416744   1.369   3.197   5.113  0.1395  0.0554 -0.6690
   76MOL    C9516745   1.394   3.326   5.151  0.1073  0.2067 -0.5473
   76MOL    O9616746   1.310   3.386   5.246 -0.5600 -0.1064  0.2457
   76MOL    H9716747   1.539   3.486   5.134 -1.2573 -0.2888  2.1805
   76MOL    H9816748   1.652   3.379   4.934 -0.0402 -0.7025 -0.5635
   76MOL    H9916749   1.428   3.027   4.982  0.2832 -0.2590 -0.5925
   76MOL   H10016750   1.308   3.125   5.166 -3.3446  1.0603 -3.1603
   76MOL   C10116751   1.334   3.227   5.570 -0.3907 -1.2650  0.1452
   76MOL   C10216752   1.371   3.300   5.447  0.3056  0.0574 -0.6652
   76MOL   C10316753   1.271   3.317   5.353 -0.1303 -0.2080 -0.1046
   76MOL   C10416754   1.141   3.256   5.362 -0.4553  0.0840  0.3950
   76MOL   C10516755   1.106   3.194   5.486 -0.7877 -0.1858  0.6086
   76MOL   C10616756   1.201   3.176   5.589 -0.1727 -0.4035 -0.1207
   76MOL   O10716757   1.162   3.108   5.702 -0.1131  0.2999 -0.1331
   76MOL   H10816758   1.406   3.207   5.647 -0.8544  0.5150  1.0691
   76MOL   H10916759   1.476   3.322   5.439  0.8163 -2.3420 -1.1139
   76MOL   H11016760   1.067   3.274   5.285 -0.6874 -3.7356 -0.3808
   76MOL   H11116761   1.008   3.150   5.496 -0.5272 -0.9159  0.0129
   76MOL   C11216762   0.973   3.376   5.873 -0.3680 -0.4920  0.0393
   76MOL   C11316763   1.072   3.309   5.798  0.1538 -0.5922 -0.0265
   76MOL   C11416764   1.066   3.170   5.778  0.7077  0.1443  0.1695
   76MOL   C11516765   0.959   3.099   5.836 -0.1699  0.1902 -0.1757
   76MOL   C11616766   0.869   3.162   5.924  0.0971  0.3478  0.2007
   76MOL   C11716767   0.878   3.302   5.946 -0.6589  0.2911  0.4240
   76MOL   O11816768   0.806   3.351   6.048 -0.0659  0.0791 -0.5744
   76MOL   H11916769   0.970   3.481   5.898  0.2419 -0.6575  0.8159
   76MOL   H12016770   1.148   3.365   5.744  0.7831 -0.2293  1.2181
   76MOL   H12116771   0.944   2.996   5.808 -0.1687  0.2751 -0.4995
   76MOL   H12216772   0.795   3.093   5.962 -0.2228  0.8368  0.4681
   76MOL   C12316773   0.641   3.677   6.150  1.1031 -0.5388  0.3272
   76MOL   C12416774   0.718   3.558   6.149  0.2491 -0.6586 -0.2386
   76MOL   C12516775   0.735   3.471   6.037 -0.0425  0.3867 -0.4466
   76MOL   C12616776   0.679   3.517   5.915  0.0279 -0.0229 -0.0648
   76MOL   C12716777   0.613   3.640   5.908 -1.3719  0.5335 -0.3776
   76MOL   C12816778   0.593   3.718   6.024 -0.4458  0.1566 -0.4776
   76MOL   O12916779   0.507   3.823   6.013 -0.6014 -0.0280  0.1930
   76MOL   H13016780   0.613   3.730   6.240 -1.9428  0.2175 -1.0076
   76MOL   H13116781   0.766   3.537   6.243 -2.0432 -0.4426  1.0247
   76MOL   H13216782   0.688   3.456   5.826 -1.3399 -0.2955 -0.0240
   76MOL   H13316783   0.568   3.676   5.817  0.2032  2.5196 -0.4086
   76MOL   C13416784   0.187   3.852   5.827  0.2538  0.1866  0.1192
   76MOL   C13516785   0.322   3.874   5.861 -0.4743  0.0349 -0.2262
   76MOL   C13616786   0.382   3.794   5.964  0.1369  0.1986 -0.1447
   76MOL   C13716787   0.309   3.694   6.018  0.5980  1.1247 -0.1710
   76MOL   C13816788   0.175   3.668   5.985 -0.6577  0.0589  0.3228
   76MOL   C13916789   0.118   3.744   5.881  0.8264 -0.5991  0.0307
   76MOL   O14016790   8.250   3.718   5.827  0.1450 -0.6968 -0.1106
   76MOL   H14116791   0.139   3.910   5.750  2.1561  1.7210  0.0594
   76MOL   H14216792   0.386   3.950   5.818  0.2732 -0.7713 -0.5436
   76MOL   H14316793   0.352   3.638   6.099  0.4841  1.3020  0.0135
   76MOL   H14416794   0.121   3.588   6.034 -1.4498  1.7979  2.3472
   76MOL   C14516795   7.982   3.561   6.020 -0.5219 -0.8900  0.9017
   76MOL   C14616796   8.074   3.655   5.968  0.1209  0.4594 -0.5623
   76MOL   C14716797   8.169   3.623   5.871  0.4432 -0.7382  0.1326
   76MOL   C14816798   8.178   3.490   5.824 -0.8310 -0.3391  0.4719
   76MOL   C14916799   8.086   3.395   5.880  0.3347 -0.2614  0.1587
   76MOL   C15016800   7.986   3.430   5.977 -0.2179 -0.3422 -0.1681
   76MOL   O15116801   7.903   3.338   6.027 -0.3530  0.3253 -0.0009
   76MOL   H15216802   7.904   3.594   6.088  0.1739 -1.1723  1.8455
   76MOL   H15316803   8.077   3.748   6.022  0.4240  0.3058 -0.3084
   76MOL   H15416804   8.249   3.465   5.747 -2.4694  1.3350 -1.6346
   76MOL   H15516805   8.090   3.288   5.864  2.9220 -0.4266  1.5868
   76MOL   C15616806   7.570   3.370   5.869  0.1896 -0.3583  0.3336
   76MOL   C15716807   7.674   3.380   5.961 -0.2566  0.1381  0.2013
   76MOL   C15816808   7.797   3.309   5.947 -0.0930 -0.2700  0.3356
   76MOL   C15916809   7.800   3.204   5.852 -0.7808  0.1334  0.0795
   76MOL   C16016810   7.688   3.175   5.768 -0.1196 -0.0682  0.3969
   76MOL   C16116811   7.584   3.264   5.771  1.1417 -0.1891  0.1038
   76MOL   O16216812   7.485   3.239   5.684  0.6299 -0.2116 -0.3084
   76MOL   H16316813   7.493   3.444   5.887  1.4314  1.0529 -0.1225
   76MOL   H16416814   7.679   3.462   6.030  1.1344 -0.6947  1.1146
   76MOL   H16516815   7.889   3.144   5.860 -0.3108  0.8775  0.4668
   76MOL   H16616816   7.687   3.087   5.706  2.9055  0.3764 -0.3789
   76MOL   C16716817   7.214   3.506   5.646  0.0410  0.2274 -0.4462
   76MOL   C16816818   7.338   3.432   5.626  0.0014  0.0393  0.1734
   76MOL   C16916819   7.364   3.312   5.696 -0.5085  0.1920 -0.5049
   76MOL   C17016820   7.264   3.269   5.786  0.3363  0.6173  0.0671
   76MOL   C17116821   7.137   3.331   5.799 -0.4551  0.1564  0.0822
   76MOL   C17216822   7.117   3.451   5.732  0.1850 -0.4628 -0.8811
   76MOL   O17316823   6.997   3.507   5.747 -0.1166  0.6502 -0.2339
   76MOL   H17416824   7.199   3.601   5.595 -0.8992 -0.0894 -0.7783
   76MOL   H17516825   7.411   3.474   5.559  1.0376  2.8899  2.9603
   76MOL   H17616826   7.273   3.169   5.826  1.4087  0.7653  0.1919
   76MOL   H17716827   7.063   3.281   5.859 -0.9443 -1.2552 -1.6592
   76MOL   C17816828   7.039   3.745   6.024  0.1175  0.4938  0.1615
   76MOL   C17916829   7.054   3.677   5.905 -0.1754  0.5106 -0.4778
   76MOL   C18016830   6.968   3.577   5.866  0.6816  0.6275 -0.2843
   76MOL   C18116831   6.849   3.552   5.939 -0.2995  0.9093  0.4498
   76MOL   C18216832   6.827   3.637   6.049 -0.4303 -0.1968  0.2244
   76MOL   C18316833   6.922   3.722   6.099 -0.1385 -0.3187  0.1098
   76MOL   O18416834   6.897   3.800   6.214  0.2531  0.1150 -0.0788
   76MOL   H18516835   7.113   3.812   6.064  0.3642 -0.8980  2.1139
   76MOL   H18616836   7.139   3.708   5.846 -1.2887 -0.4733 -2.6753
   76MOL   H18716837   6.780   3.482   5.894  0.2728  0.3930  0.3559
   76MOL   H18816838   6.730   3.643   6.096 -0.7022  2.2579 -0.6101
   76MOL   C18916839   7.016   3.582   6.485  0.1981 -0.4641 -0.3737
   76MOL   C19016840   7.010   3.662   6.370  0.8043  0.4641  0.1267
   76MOL   C19116841   6.899   3.740   6.332  0.0230  0.9478  0.3077
   76MOL   C19216842   6.792   3.744   6.423  0.2116 -0.6110  0.1049
   76MOL   C19316843   6.790   3.670   6.540 -0.3148 -1.0996  0.1678
   76MOL   C19416844   6.905   3.594   6.570 -0.1854 -0.0516  0.4814
   76MOL   O19516845   6.911   3.528   6.687  0.0199 -0.3002  0.2583
   76MOL   H19616846   7.113   3.548   6.517  0.7149  2.5487  1.5185
   76MOL   H19716847   7.096   3.663   6.305 -0.8438  1.1586 -2.1108
   76MOL   H19816848   6.710   3.808   6.395 -1.0968 -2.0503  0.6121
   76MOL   H19916849   6.710   3.672   6.613  0.4700  0.6636  1.0036
   76MOL   C20016850   6.648   3.296   6.815  0.2594 -0.2298  0.0659
   76MOL   C20116851   6.730   3.408   6.793 -0.1032 -0.4213  0.0892
   76MOL   C20216852   6.838   3.411   6.702  0.1062  0.9543 -0.0293
   76MOL   C20316853   6.865   3.287   6.640 -0.7232 -0.4333 -0.2802
   76MOL   C20416854   6.790   3.170   6.663 -0.3179  0.1328 -0.2618
   76MOL   C20516855   6.676   3.175   6.742 -0.5498  0.0634 -0.2765
   76MOL   O20616856   6.607   3.055   6.771 -0.3221 -0.0894  0.2712
   76MOL   H20716857   6.559   3.296   6.877 -1.4342  1.1167 -2.3024
   76MOL   H20816858   6.710   3.493   6.856 -0.4934 -0.2673 -0.2395
   76MOL   H20916859   6.947   3.280   6.569  0.5430 -1.5713  1.2644
   76MOL   H21016860   6.826   3.078   6.618 -0.1946  0.4328 -0.7844
   76MOL   C21116861   6.361   2.924   6.542  0.2912 -0.4527  0.4555
   76MOL   C21216862   6.480   2.964   6.597 -0.2560 -0.1075  0.2835
   76MOL   C21316863   6.487   3.040   6.719  0.0557  0.3611  0.3324
   76MOL   C21416864   6.370   3.085   6.776  0.4137 -0.6131  0.1967
   76MOL   C21516865   6.251   3.051   6.716 -0.1777 -0.0693  0.2586
   76MOL   C21616866   6.246   2.980   6.597  0.3129 -0.9228  0.0985
   76MOL   O21716867   6.121   2.966   6.539 -0.3964 -0.5240 -0.1681
   76MOL   H21816868   6.365   2.878   6.444  1.1161 -0.0957  0.3160
   76MOL   H21916869   6.566   2.921   6.548 -0.2609  0.2028  0.0011
   76MOL   H22016870   6.380   3.137   6.870 -1.1323  0.9323 -0.4646
   76MOL   H22116871   6.163   3.062   6.777  1.4804  3.7490  2.1423
   76MOL   H22216872   6.140   2.976   6.447  0.5898  3.1665  0.3350
   77MOL     C116873   4.571   2.017   4.420  0.3443 -0.3139  0.1702
   77MOL     C216874   4.612   2.132   4.489 -1.0448 -0.0625 -0.3096
   77MOL     C316875   4.531   2.192   4.588 -0.6355 -0.2112  0.2711
   77MOL     C416876   4.407   2.145   4.612  0.3682 -0.0245 -0.0293
   77MOL     C516877   4.364   2.025   4.553  0.1824 -0.4975  0.8390
   77MOL     C616878   4.446   1.961   4.454 -0.2135 -0.3892 -0.1901
   77MOL     O716879   4.404   1.840   4.397  0.7147  0.2734  0.3438
   77MOL     H816880   4.633   1.979   4.340  0.7838 -0.1574  0.4360
   77MOL     H916881   4.697   2.196   4.467 -1.7457  0.9922  0.0213
   77MOL    H1016882   4.344   2.206   4.675 -0.9005 -0.0130 -1.2834
   77MOL    H1116883   4.272   1.977   4.583 -0.1195  0.0823  0.8441
   77MOL    H1216884   4.560   2.290   4.622 -1.7406  0.1182  0.3004
   77MOL    C1316885   4.228   1.904   4.076 -0.2412  0.0430  0.3231
   77MOL    C1416886   4.325   1.916   4.176  0.0089 -1.0376  0.3716
   77MOL    C1516887   4.311   1.838   4.296 -0.5289 -0.6614  1.2034
   77MOL    C1616888   4.193   1.764   4.311 -0.3709  0.4883  0.8664
   77MOL    C1716889   4.093   1.759   4.212  0.5826 -0.0962  0.1263
   77MOL    C1816890   4.117   1.825   4.093 -0.2747 -0.2105  0.2460
   77MOL    O1916891   4.031   1.808   3.983 -0.3035 -0.1164 -0.6630
   77MOL    H2016892   4.256   1.950   3.982  2.0365 -2.0409 -0.0839
   77MOL    H2116893   4.417   1.969   4.156 -0.5450 -0.1394  0.1717
   77MOL    H2216894   4.179   1.718   4.407  0.4850 -1.2245  0.1965
   77MOL    H2316895   4.003   1.701   4.228 -0.4974  1.6003  0.4448
   77MOL    C2416896   4.110   1.682   3.642  0.3369 -0.0338 -0.2523
   77MOL    C2516897   4.084   1.772   3.747  0.3301 -0.1898  0.0956
   77MOL    C2616898   4.057   1.721   3.877 -0.3563  0.3122  0.6869
   77MOL    C2716899   4.041   1.585   3.897  0.3258  0.0984  0.2414
   77MOL    C2816900   4.063   1.493   3.791  0.0780  0.2686 -0.4716
   77MOL    C2916901   4.103   1.544   3.665  0.7857  0.3725  0.0075
   77MOL    O3016902   4.128   1.458   3.563  0.3029  0.2189  0.5632
   77MOL    H3116903   4.128   1.721   3.543 -3.3566 -2.3535 -1.9210
   77MOL    H3216904   4.085   1.879   3.732  0.5982 -0.2184 -0.0929
   77MOL    H3316905   4.010   1.547   3.993  0.8514  3.5665  1.8800
   77MOL    H3416906   4.061   1.387   3.811 -2.5245  0.0828 -1.5127
   77MOL    C3516907   3.816   1.260   3.523  0.4297  0.4075  0.2126
   77MOL    C3616908   3.906   1.361   3.557  0.8806 -0.0592 -0.9466
   77MOL    C3716909   4.045   1.349   3.536  0.1690 -0.6552  0.3905
   77MOL    C3816910   4.090   1.230   3.480  0.3619 -0.1641 -0.1940
   77MOL    C3916911   3.994   1.127   3.447 -0.7636 -0.1099  0.5314
   77MOL    C4016912   3.860   1.137   3.474  0.5656  0.0142  0.5271
   77MOL    O4116913   3.771   1.038   3.459 -0.5515 -0.0691  0.3211
   77MOL    H4216914   3.710   1.277   3.536  0.3394  0.1935 -0.2373
   77MOL    H4316915   3.866   1.457   3.586  1.7085 -0.3092  1.0616
   77MOL    H4416916   4.196   1.221   3.461  0.2956 -1.1372 -0.1478
   77MOL    H4516917   4.035   1.040   3.397 -0.4433  1.4895 -2.0804
   77MOL    C4616918   3.809   0.908   3.116 -0.4833 -0.0351  0.5695
   77MOL    C4716919   3.805   0.996   3.224 -0.4385  0.7665  0.0851
   77MOL    C4816920   3.766   0.952   3.354 -0.5235  0.3830  0.2271
   77MOL    C4916921   3.728   0.815   3.366  1.1497 -0.0072 -0.1381
   77MOL    C5016922   3.721   0.731   3.253 -0.1950  0.0812 -0.6262
   77MOL    C5116923   3.762   0.777   3.122  0.5930  0.0715 -0.2965
   77MOL    O5216924   3.768   0.695   3.011 -0.7271 -0.7945  0.2714
   77MOL    H5316925   3.841   0.952   3.022 -0.5863  0.5479  0.8060
   77MOL    H5416926   3.824   1.100   3.202  1.7758 -0.1493 -2.6493
   77MOL    H5516927   3.706   0.772   3.463  1.0865 -0.2115 -0.2439
   77MOL    H5616928   3.694   0.627   3.264  3.3972 -0.6971  1.5134
   77MOL    C5716929   3.436   0.656   2.846  0.6059  0.5702  0.6857
   77MOL    C5816930   3.540   0.647   2.945  0.7620 -0.5179 -0.4789
   77MOL    C5916931   3.664   0.708   2.918  0.1033 -0.3399 -0.0682
   77MOL    C6016932   3.684   0.782   2.798  0.7270 -0.0739 -0.0993
   77MOL    C6116933   3.585   0.779   2.698 -0.4118 -0.1124  0.1400
   77MOL    C6216934   3.459   0.724   2.727  0.3574 -1.0464 -0.0870
   77MOL    O6316935   3.360   0.751   2.639  0.4294  0.1879 -0.2978
   77MOL    H6416936   3.335   0.622   2.865  0.4735 -1.7929 -3.5354
   77MOL    H6516937   3.525   0.599   3.040 -1.0734  0.5090 -0.2200
   77MOL    H6616938   3.783   0.820   2.778  1.1071 -2.1547 -2.4768
   77MOL    H6716939   3.606   0.815   2.598  0.5516  0.1030  0.4146
   77MOL    C6816940   3.295   0.526   2.358  0.2855  0.0526 -0.9067
   77MOL    C6916941   3.336   0.636   2.440  0.5860 -0.5602  0.4130
   77MOL    C7016942   3.302   0.651   2.572  1.5178  0.5372  0.3252
   77MOL    C7116943   3.214   0.551   2.626 -0.2335  0.2606 -0.1725
   77MOL    C7216944   3.161   0.448   2.538  0.0843 -0.3720 -0.1175
   77MOL    C7316945   3.196   0.438   2.404 -0.0782 -0.0488  0.0498
   77MOL    O7416946   3.148   0.338   2.319  0.3527  0.5136  0.3966
   77MOL    H7516947   3.337   0.527   2.258  1.9341  0.8448 -0.2216
   77MOL    H7616948   3.400   0.712   2.397 -0.0541  0.2641  0.8897
   77MOL    H7716949   3.192   0.554   2.732  0.4338  2.0589 -0.0675
   77MOL    H7816950   3.106   0.369   2.586 -1.1994  1.0511  0.7976
   77MOL    C7916951   2.927   0.051   2.378  0.1435 -0.6394 -0.0285
   77MOL    C8016952   3.040   0.125   2.348 -0.4157 -0.5955  0.1460
   77MOL    C8116953   3.037   0.266   2.355 -0.1575  0.7007  0.8667
   77MOL    C8216954   2.915   0.333   2.390 -0.2605  0.4073  0.0201
   77MOL    C8316955   2.800   0.258   2.423 -0.6656 -0.0814  0.4223
   77MOL    C8416956   2.811   0.120   2.418 -1.1789 -0.0246  0.0313
   77MOL    O8516957   2.702   0.042   2.438  0.6081 -0.0389  0.1558
   77MOL    H8616958   2.922   8.197   2.377  0.1512 -0.6657  1.6106
   77MOL    H8716959   3.131   0.076   2.318  0.8865  0.7675  1.7773
   77MOL    H8816960   2.910   0.441   2.392  1.4985  0.4940  0.6125
   77MOL    H8916961   2.706   0.305   2.447 -1.2997  0.2065 -2.4977
   77MOL    C9016962   2.513   0.005   2.119 -0.1133 -0.8163 -0.4531
   77MOL    C9116963   2.612   0.056   2.206 -0.2975  1.4666 -0.3859
   77MOL    C9216964   2.635   8.242   2.333  0.0791  0.0731 -0.7104
   77MOL    C9316965   2.570   8.121   2.352  0.0080  0.1116 -0.0888
   77MOL    C9416966   2.474   8.068   2.259 -0.3068 -0.2491 -0.2741
   77MOL    C9516967   2.445   8.144   2.146  0.1613 -0.1687 -0.5873
   77MOL    O9616968   2.345   8.096   2.061  0.0198  0.3324 -0.3770
   77MOL    H9716969   2.484   0.075   2.043  1.2661 -1.1875 -1.3346
   77MOL    H9816970   2.661   0.151   2.195 -0.8415  1.9272  1.0206
   77MOL    H9916971   2.583   8.077   2.450 -2.3311 -2.5449 -0.9202
   77MOL   H10016972   2.425   7.973   2.271  1.3775 -0.9033  1.6902
   77MOL   C10116973   1.994   8.121   2.195  0.7246 -0.0143 -0.1495
   77MOL   C10216974   2.131   8.156   2.170  0.3557 -0.3002  0.1470
   77MOL   C10316975   2.214   8.062   2.105 -0.2899 -0.5870 -0.2675
   77MOL   C10416976   2.166   7.930   2.098 -0.6359 -0.0379 -0.4004
   77MOL   C10516977   2.035   7.891   2.126  0.1499 -0.1961  0.3165
   77MOL   C10616978   1.943   7.991   2.168  0.3141 -0.4629 -0.2049
   77MOL   O10716979   1.816   7.954   2.174 -0.0860 -0.0655 -0.0039
   77MOL   H10816980   1.930   8.196   2.240  1.0890  0.0529  0.2614
   77MOL   H10916981   2.170   0.003   2.178  1.2134 -0.3344 -2.9523
   77MOL   H11016982   2.234   7.851   2.068 -0.1194  0.3011 -0.1454
   77MOL   H11116983   1.992   7.793   2.109  0.5157 -0.2384 -0.3668
   77MOL   C11216984   1.759   7.922   2.544  0.0628  0.7816  0.8336
   77MOL   C11316985   1.815   7.969   2.421 -0.0819 -0.1457 -0.4567
   77MOL   C11416986   1.763   7.922   2.299 -0.8413  0.0483 -0.3112
   77MOL   C11516987   1.665   7.821   2.293  0.1296 -0.4440 -0.4858
   77MOL   C11616988   1.614   7.773   2.416 -0.0006  0.1470 -0.2782
   77MOL   C11716989   1.664   7.815   2.540  0.9818 -0.5392 -0.4056
   77MOL   O11816990   1.624   7.750   2.648  0.9518 -0.6238 -0.2988
   77MOL   H11916991   1.801   7.957   2.637  0.4105 -1.3303  1.5024
   77MOL   H12016992   1.896   8.041   2.421  0.1440 -0.4031 -0.9307
   77MOL   H12116993   1.627   7.786   2.198 -1.5160  2.4889 -0.9702
   77MOL   H12216994   1.530   7.705   2.412  0.4058 -0.3566 -0.3235
   77MOL   C12316995   1.331   7.933   2.785  0.0743  0.0524 -0.0404
   77MOL   C12416996   1.405   7.854   2.693  0.0684 -0.1517  0.7099
   77MOL   C12516997   1.533   7.811   2.731 -0.9657 -1.2068 -0.1400
   77MOL   C12616998   1.572   7.829   2.865 -0.3762 -0.1554 -0.0301
   77MOL   C12716999   1.489   7.896   2.956 -0.0877  0.6086 -0.7019
   77MOL   C12817000   1.372   7.949   2.922  0.2171  0.3158  0.9164
   77MOL   O12917001   1.298   8.022   3.009  0.3955  0.0919 -0.1311
   77MOL   H13017002   1.236   7.968   2.747 -0.7792 -1.8875  0.2036
   77MOL   H13117003   1.366   7.847   2.593 -0.0489  2.4495  0.5557
   77MOL   H13217004   1.667   7.789   2.897  0.8906  2.1240 -0.8090
   77MOL   H13317005   1.519   7.914   3.058 -0.8405 -0.0170 -0.3712
   77MOL   C13417006   1.130   7.794   3.255 -0.2312 -0.1527 -0.2035
   77MOL   C13517007   1.231   7.859   3.183 -0.1101  0.0483  0.5340
   77MOL   C13617008   1.202   7.950   3.079 -0.3295 -0.1544  0.6675
   77MOL   C13717009   1.070   7.981   3.061  0.1025 -0.0386  0.0845
   77MOL   C13817010   0.972   7.916   3.133 -1.2140  0.2884 -0.0183
   77MOL   C13917011   0.995   7.813   3.225 -0.4238 -0.9120 -0.2236
   77MOL   O14017012   0.901   7.763   3.309  0.1120  0.3559 -0.2486
   77MOL   H14117013   1.162   7.725   3.332  1.4453 -1.1030 -1.6960
   77MOL   H14217014   1.336   7.850   3.208  0.5097  0.8172 -1.6289
   77MOL   H14317015   1.037   8.056   2.991 -1.0069 -0.2288  0.3998
   77MOL   H14417016   0.870   7.949   3.116 -1.9140 -0.6197  2.2937
   77MOL   C14517017   0.623   7.554   3.183  0.0454 -0.5008 -0.2491
   77MOL   C14617018   0.695   7.670   3.223 -0.3614  0.5201  0.1580
   77MOL   C14717019   0.833   7.659   3.257 -0.1314 -0.3508 -0.5069
   77MOL   C14817020   0.896   7.529   3.241  0.8073 -0.4965 -0.0572
   77MOL   C14917021   0.826   7.412   3.209 -0.0778 -0.3542 -0.4889
   77MOL   C15017022   0.688   7.425   3.182  0.2505  0.1354  0.1891
   77MOL   O15117023   0.616   7.319   3.137 -0.0354 -0.7779  0.3347
   77MOL   H15217024   0.519   7.576   3.161  0.7492  3.7047  0.2456
   77MOL   H15317025   0.639   7.762   3.226 -1.5679 -0.2115  0.3320
   77MOL   H15417026   1.002   7.529   3.259  0.7060  1.0279  0.6245
   77MOL   H15517027   0.887   7.324   3.202 -0.3761 -0.4722 -1.8025
   77MOL   C15617028   0.367   7.199   3.372  0.7516  0.4405  0.4136
   77MOL   C15717029   0.425   7.292   3.286 -0.4265 -0.2346  0.5030
   77MOL   C15817030   0.544   7.248   3.227  0.5510 -0.0637 -0.2434
   77MOL   C15917031   0.617   7.136   3.271 -0.1280 -0.6226 -0.5178
   77MOL   C16017032   0.562   7.055   3.374  0.0293  0.2900  0.8274
   77MOL   C16117033   0.432   7.082   3.422  0.1384  0.1884  0.1357
   77MOL   O16217034   0.378   6.996   3.511  0.1839 -0.2797 -0.6467
   77MOL   H16317035   0.269   7.220   3.412 -1.1696 -1.9082 -2.8281
   77MOL   H16417036   0.371   7.380   3.254  0.3058  0.2266  0.5236
   77MOL   H16517037   0.715   7.124   3.226  0.2558  2.2384 -0.5376
   77MOL   H16617038   0.618   6.972   3.414 -4.5246 -3.1418  0.5120
   77MOL   C16717039   0.182   6.722   3.366 -0.0351  0.4777 -0.4691
   77MOL   C16817040   0.208   6.847   3.417 -0.2315  0.0008  0.9755
   77MOL   C16917041   0.339   6.875   3.462  0.0736 -0.3375 -0.9806
   77MOL   C17017042   0.440   6.779   3.449 -0.0194  0.2622 -0.3424
   77MOL   C17117043   0.410   6.653   3.393  0.1733  0.5643  0.1515
   77MOL   C17217044   0.278   6.616   3.356  0.0761  0.0361 -0.0102
   77MOL   O17317045   0.239   6.498   3.299  0.0322 -0.3945  0.6276
   77MOL   H17417046   0.080   6.691   3.349  0.1735 -0.8579  0.6103
   77MOL   H17517047   0.139   6.930   3.418  2.4170  2.3380 -0.7002
   77MOL   H17617048   0.544   6.786   3.477  0.7871 -0.9202 -2.8306
   77MOL   H17717049   0.491   6.582   3.395  0.6491  1.1215  1.1964
   77MOL   C17817050   0.507   6.314   3.105  0.8072 -0.0701 -0.0650
   77MOL   C17917051   0.421   6.362   3.211 -0.1487 -0.4597 -0.0330
   77MOL   C18017052   0.320   6.459   3.189  0.3014  0.5300 -0.4570
   77MOL   C18117053   0.305   6.506   3.058  0.5388 -0.5657 -0.0617
   77MOL   C18217054   0.389   6.466   2.951 -0.4053  0.7691  0.1769
   77MOL   C18317055   0.494   6.372   2.974 -0.4147 -0.2491  0.1606
   77MOL   O18417056   0.591   6.331   2.892  0.1003 -0.1777  0.1158
   77MOL   H18517057   0.574   6.232   3.126 -3.1531 -4.1559 -2.4588
   77MOL   H18617058   0.433   6.319   3.309 -0.2493  1.5515  0.8896
   77MOL   H18717059   0.231   6.583   3.042 -1.0853 -1.8572  1.0603
   77MOL   H18817060   0.380   6.517   2.856  1.2223  1.5122  0.4169
   77MOL   C18917061   0.635   6.439   2.548 -0.2648 -0.2903  0.2550
   77MOL   C19017062   0.610   6.359   2.660 -0.9581 -0.4139  0.1324
   77MOL   C19117063   0.628   6.414   2.786 -0.3716 -0.3465  0.0321
   77MOL   C19217064   0.664   6.552   2.812  0.0165 -0.8145 -0.8769
   77MOL   C19317065   0.677   6.631   2.696 -0.2644 -0.2289  0.4933
   77MOL   C19417066   0.665   6.576   2.567  0.0871 -0.2427  0.8610
   77MOL   O19517067   0.665   6.663   2.460 -0.2499  0.0134  0.0205
   77MOL   H19617068   0.597   6.393   2.458 -0.9611 -0.6556  0.7300
   77MOL   H19717069   0.570   6.259   2.651 -0.6324 -0.6904  1.5616
   77MOL   H19817070   0.668   6.597   2.910 -0.4574 -0.8930 -0.8220
   77MOL   H19917071   0.688   6.737   2.716  3.0067 -0.4730  0.2551
   77MOL   C20017072   0.818   6.593   2.127 -0.9372 -0.8625  0.1913
   77MOL   C20117073   0.721   6.622   2.230  0.1096  0.1437  0.2582
   77MOL   C20217074   0.762   6.646   2.364  0.8447 -0.1957 -0.0346
   77MOL   C20317075   0.899   6.637   2.397 -0.0050  0.4667 -0.2519
   77MOL   C20417076   0.996   6.614   2.300 -0.1017 -1.3250  0.3300
   77MOL   C20517077   0.956   6.594   2.165  0.0439  0.0291  0.0643
   77MOL   O20617078   1.052   6.587   2.071 -0.1116  0.2391 -0.2061
   77MOL   H20717079   0.799   6.593   2.021  0.3855 -0.2867 -0.0537
   77MOL   H20817080   0.618   6.643   2.206  0.2373  0.0935 -0.3509
   77MOL   H20917081   0.921   6.661   2.500 -1.7864 -2.9071  0.9833
   77MOL   H21017082   1.101   6.617   2.324  0.3824 -1.5415 -1.6358
   77MOL   C21117083   1.066   6.241   1.935  0.8742 -0.0158  0.2617
   77MOL   C21217084   1.022   6.377   1.956 -0.2341  0.0620 -0.3720
   77MOL   C21317085   1.105   6.464   2.040 -1.0359 -0.2451  0.1897
   77MOL   C21417086   1.223   6.419   2.095 -0.2139  0.6017  0.2163
   77MOL   C21517087   1.269   6.289   2.064  0.0106  0.2682  0.0740
   77MOL   C21617088   1.189   6.202   1.984  0.2753 -0.4739  0.0026
   77MOL   O21717089   1.244   6.084   1.943 -0.5853  0.5370 -0.1414
   77MOL   H21817090   1.007   6.174   1.874 -0.8013  0.7823  0.9632
   77MOL   H21917091   0.932   6.413   1.908  1.4746  0.3314 -3.5396
   77MOL   H22017092   1.286   6.482   2.155  2.0278 -1.9352  0.6305
   77MOL   H22117093   1.365   6.251   2.095 -0.0464 -1.4015 -1.7121
   77MOL   H22217094   1.334   6.096   1.921 -0.8172  0.3745 -1.1852
   78MOL     C117095   0.535   4.981   0.847 -0.1730 -0.7804  0.2494
   78MOL     C217096   0.649   4.987   0.767  0.2747  0.0508  0.0455
   78MOL     C317097   0.761   5.056   0.826 -0.0757 -0.0527 -0.0708
   78MOL     C417098   0.754   5.111   0.956  0.8029  0.3279 -0.5733
   78MOL     C517099   0.632   5.102   1.032  0.3272 -0.0238  0.0736
   78MOL     C617100   0.518   5.035   0.975 -0.2429 -0.4755  0.8876
   78MOL     O717101   0.400   5.007   1.041 -0.0760 -0.7311 -0.0395
   78MOL     H817102   0.448   4.933   0.805  0.8486 -0.8556 -1.8816
   78MOL     H917103   0.675   4.940   0.674 -1.3231 -0.5969 -0.0722
   78MOL    H1017104   0.844   5.162   0.989 -0.1992  0.4613  2.1011
   78MOL    H1117105   0.625   5.144   1.132 -1.2129 -0.6431  0.2266
   78MOL    H1217106   0.860   5.060   0.782  0.4704  0.2544  1.1697
   78MOL    C1317107   0.289   5.280   1.260 -0.8296 -0.0104  0.5317
   78MOL    C1417108   0.308   5.207   1.140 -0.7517 -0.4155  0.0318
   78MOL    C1517109   0.369   5.077   1.151 -0.5993 -0.5030 -0.6997
   78MOL    C1617110   0.389   5.018   1.277  0.2382  0.1686 -0.4932
   78MOL    C1717111   0.381   5.098   1.391  0.2930 -0.3450  0.5551
   78MOL    C1817112   0.331   5.231   1.386  0.3814  0.3578 -0.1104
   78MOL    O1917113   0.306   5.307   1.501 -0.5230 -0.5571  0.5835
   78MOL    H2017114   0.257   5.383   1.251  0.3559  0.3233 -0.0493
   78MOL    H2117115   0.288   5.247   1.041 -2.3289 -0.6020  0.2590
   78MOL    H2217116   0.418   4.914   1.281  0.0101  0.1413  0.5159
   78MOL    H2317117   0.405   5.051   1.486 -0.7836 -0.8031  0.6093
   78MOL    C2417118   0.638   5.402   1.647  1.0214 -0.5502  0.0549
   78MOL    C2517119   0.541   5.370   1.547 -0.5234 -0.1280  0.1242
   78MOL    C2617120   0.409   5.329   1.593  0.2271 -0.0604  0.0849
   78MOL    C2717121   0.386   5.308   1.735  0.0163 -0.3471  0.2037
   78MOL    C2817122   0.481   5.342   1.829 -0.0500 -0.2908  0.3126
   78MOL    C2917123   0.601   5.392   1.784 -0.7260 -0.1503  0.2587
   78MOL    O3017124   0.692   5.440   1.880  0.1997 -0.2747  0.4392
   78MOL    H3117125   0.737   5.430   1.611  0.6787 -0.5295 -0.9023
   78MOL    H3217126   0.552   5.369   1.440 -2.0043  2.8889 -0.1175
   78MOL    H3317127   0.288   5.274   1.766  0.1382 -0.9507 -0.0689
   78MOL    H3417128   0.462   5.335   1.935 -1.3664  3.2191  0.3626
   78MOL    C3517129   0.808   5.763   2.033 -0.2748  0.0437  0.4296
   78MOL    C3617130   0.803   5.623   1.996  0.0583  1.0866  0.1469
   78MOL    C3717131   0.711   5.576   1.897 -0.1958  0.3871  0.0572
   78MOL    C3817132   0.641   5.673   1.827  0.5317  0.3201  0.5093
   78MOL    C3917133   0.654   5.811   1.849 -0.0274  0.0944 -0.0898
   78MOL    C4017134   0.732   5.860   1.956  0.4606  0.5591  0.0867
   78MOL    O4117135   0.752   5.993   1.976  0.0352  0.2144  0.2471
   78MOL    H4217136   0.873   5.803   2.110  1.6066  0.1004 -1.1391
   78MOL    H4317137   0.857   5.554   2.058  0.1155 -0.4221 -1.5493
   78MOL    H4417138   0.584   5.640   1.741  1.5860 -0.4374  0.0977
   78MOL    H4517139   0.598   5.880   1.787  3.1616  2.0520 -0.8836
   78MOL    C4617140   0.585   6.274   2.139 -0.1869  0.3516 -0.1147
   78MOL    C4717141   0.680   6.199   2.072 -0.2304  0.4183 -0.0634
   78MOL    C4817142   0.658   6.059   2.049  0.7104  0.5834  0.3082
   78MOL    C4917143   0.544   5.992   2.115  0.0950 -0.3896  0.2984
   78MOL    C5017144   0.441   6.077   2.170  0.1487 -0.0502 -0.3803
   78MOL    C5117145   0.459   6.215   2.188  0.3459  0.1619  0.3043
   78MOL    O5217146   0.360   6.290   2.255  0.0157 -0.3218  0.3350
   78MOL    H5317147   0.600   6.380   2.152 -0.6725  0.1736  2.2411
   78MOL    H5417148   0.770   6.242   2.029 -0.2609  0.5413 -0.0048
   78MOL    H5517149   0.534   5.884   2.110  1.3218 -0.4089 -2.6659
   78MOL    H5617150   0.350   6.023   2.193  1.2816 -2.0779 -0.5496
   78MOL    C5717151   0.348   6.133   2.593 -0.5790 -0.9355  0.4458
   78MOL    C5817152   0.404   6.173   2.470 -0.4917  0.0862  0.6164
   78MOL    C5917153   0.330   6.256   2.382  0.2037 -0.3693 -0.1124
   78MOL    C6017154   0.208   6.304   2.425  0.6271  0.2541  0.0723
   78MOL    C6117155   0.155   6.270   2.546  0.2628  0.6886 -0.2931
   78MOL    C6217156   0.226   6.184   2.634  0.1875  0.1846  0.2073
   78MOL    O6317157   0.174   6.161   2.755  0.2140 -0.2662 -0.3526
   78MOL    H6417158   0.410   6.074   2.657  1.7995  1.7585  0.7328
   78MOL    H6517159   0.501   6.137   2.440 -0.3869  0.7976  0.0931
   78MOL    H6617160   0.159   6.376   2.361 -1.0212 -2.2079 -1.5144
   78MOL    H6717161   0.060   6.315   2.571  0.6533  0.5908  1.4461
   78MOL    C6817162   0.198   5.808   2.858  0.4054 -0.1203  0.2134
   78MOL    C6917163   0.227   5.946   2.843  0.2744 -0.1487  0.2281
   78MOL    C7017164   0.136   6.035   2.782 -0.4007  0.5150 -0.0552
   78MOL    C7117165   0.002   5.997   2.744 -0.9265 -0.0916  0.1334
   78MOL    C7217166   8.225   5.864   2.760 -0.1196 -0.3124 -0.0057
   78MOL    C7317167   0.064   5.771   2.821 -0.1217  0.2595 -0.7640
   78MOL    O7417168   0.048   5.634   2.832  0.1971 -0.0274 -0.7211
   78MOL    H7517169   0.270   5.734   2.892 -1.0671 -1.7040 -0.0057
   78MOL    H7617170   0.332   5.963   2.864  0.6619 -0.3154 -1.5076
   78MOL    H7717171   8.195   6.072   2.697 -0.5624 -0.8532 -1.5670
   78MOL    H7817172   8.130   5.831   2.718 -0.3973  0.6379 -0.1340
   78MOL    C7917173   0.048   5.468   2.509 -0.3094 -0.4910  0.3364
   78MOL    C8017174   0.086   5.559   2.607 -0.7295  0.2868 -0.7633
   78MOL    C8117175   0.015   5.550   2.732 -0.6289  0.4325  0.3716
   78MOL    C8217176   8.176   5.456   2.762  0.7343 -0.3725 -0.4928
   78MOL    C8317177   8.130   5.377   2.655 -0.1089 -0.3992  0.7459
   78MOL    C8417178   8.199   5.375   2.529  0.1431  0.0670 -0.6444
   78MOL    O8517179   8.143   5.289   2.433  0.2736  0.3128 -0.2503
   78MOL    H8617180   0.099   5.472   2.414  0.1967  1.5057  0.6666
   78MOL    H8717181   0.166   5.630   2.592  0.0990 -0.6265 -0.7067
   78MOL    H8817182   8.132   5.451   2.860  1.0771 -0.4029 -0.3406
   78MOL    H8917183   8.049   5.308   2.676 -0.8923  0.9846  2.3696
   78MOL    C9017184   0.092   5.288   2.121  0.1145  0.6153  0.4731
   78MOL    C9117185   8.253   5.313   2.223 -0.8178 -0.0410 -0.3731
   78MOL    C9217186   8.229   5.236   2.335 -0.0235 -0.0055 -0.1937
   78MOL    C9317187   0.063   5.131   2.364 -0.1690 -0.1446 -0.2646
   78MOL    C9417188   0.153   5.102   2.267  0.1524  0.3508 -0.0711
   78MOL    C9517189   0.172   5.174   2.146 -0.0187 -0.4285 -0.3551
   78MOL    O9617190   0.270   5.134   2.055 -0.2495  0.1520  0.1793
   78MOL    H9717191   0.101   5.349   2.032  0.2388  1.1555  0.8584
   78MOL    H9817192   8.199   5.405   2.205  0.4995  0.6224 -1.0417
   78MOL    H9917193   0.065   5.079   2.459  0.1329 -0.9952 -0.7317
   78MOL   H10017194   0.216   5.020   2.297 -1.7122 -1.0295  0.1646
   78MOL   C10117195   0.312   4.767   2.020  0.8063 -0.0789  0.0881
   78MOL   C10217196   0.326   4.898   2.073  0.6213  0.0636 -0.0644
   78MOL   C10317197   0.267   5.005   2.004 -0.0048  0.2454 -0.8949
   78MOL   C10417198   0.191   4.981   1.889 -0.0682  0.4577  0.0039
   78MOL   C10517199   0.178   4.855   1.835  0.1034  0.3839 -0.2166
   78MOL   C10617200   0.241   4.746   1.901  0.0766  0.4656  0.0405
   78MOL   O10717201   0.242   4.618   1.845  0.2930  0.2338 -0.0488
   78MOL   H10817202   0.353   4.682   2.073 -0.0584  0.0672  0.9940
   78MOL   H10917203   0.367   4.919   2.171  1.4079 -0.6685 -0.2368
   78MOL   H11017204   0.144   5.071   1.852  1.1349  1.4407  0.8284
   78MOL   H11117205   0.127   4.842   1.741 -1.5438  0.6626  0.6153
   78MOL   C11217206   0.019   4.368   2.004  0.8423 -1.6979 -0.4633
   78MOL   C11317207   0.132   4.444   1.978  0.0974 -0.4655 -0.1851
   78MOL   C11417208   0.136   4.537   1.871 -0.2374 -0.5514  0.7722
   78MOL   C11517209   0.031   4.530   1.776  0.1979  0.4000 -0.3202
   78MOL   C11617210   8.167   4.448   1.795  0.7846  0.3694 -0.5597
   78MOL   C11717211   8.164   4.365   1.910 -0.0754 -0.0540 -0.0849
   78MOL   O11817212   8.051   4.287   1.934 -0.7455  0.1225  0.0948
   78MOL   H11917213   0.020   4.299   2.087  0.6321  0.5100  1.4136
   78MOL   H12017214   0.217   4.447   2.045 -0.5803  0.1052  0.6508
   78MOL   H12117215   0.029   4.602   1.696 -1.7057 -0.1588 -0.8082
   78MOL   H12217216   8.091   4.447   1.719 -0.0691 -0.6500  0.2756
   78MOL   C12317217   7.784   4.297   2.199 -0.6868  0.0408 -0.1773
   78MOL   C12417218   7.888   4.252   2.113 -0.7111  0.4794  0.3641
   78MOL   C12517219   7.954   4.334   2.022  0.1307  0.3610  0.1479
   78MOL   C12617220   7.930   4.472   2.029  0.0049  0.2000 -0.6114
   78MOL   C12717221   7.836   4.520   2.122  0.3513 -0.3096  0.1630
   78MOL   C12817222   7.758   4.438   2.205 -0.3816 -0.0586 -0.4076
   78MOL   O12917223   7.668   4.497   2.282 -0.5627  0.1516 -0.1435
   78MOL   H13017224   7.741   4.223   2.265  0.0244 -0.4676 -0.2693
   78MOL   H13117225   7.901   4.145   2.112 -3.9208 -0.0360  3.2826
   78MOL   H13217226   7.993   4.541   1.974 -0.5108  0.5768 -0.7390
   78MOL   H13317227   7.818   4.626   2.132  0.5342 -0.3307  0.7096
   78MOL   C13417228   7.318   4.414   2.212  0.0602 -0.6378 -0.6271
   78MOL   C13517229   7.439   4.484   2.219  0.0487  0.0541 -0.4908
   78MOL   C13617230   7.544   4.440   2.297 -0.1651  0.5489 -0.2238
   78MOL   C13717231   7.524   4.333   2.386  0.1507  0.3100 -0.2609
   78MOL   C13817232   7.399   4.274   2.393 -0.2830 -0.0528 -0.5431
   78MOL   C13917233   7.295   4.305   2.302 -0.2743  0.1833 -0.0086
   78MOL   O14017234   7.180   4.229   2.298  0.4786 -0.1986  0.1722
   78MOL   H14117235   7.239   4.465   2.158 -0.8271  0.0858  1.2966
   78MOL   H14217236   7.459   4.571   2.159  2.6606  0.6908  1.2139
   78MOL   H14317237   7.606   4.300   2.447 -1.8614 -1.9573  1.2959
   78MOL   H14417238   7.390   4.197   2.468  1.4338  0.3409  0.0922
   78MOL   C14517239   6.999   4.418   2.563  0.1071 -0.2141 -0.0656
   78MOL   C14617240   7.100   4.351   2.495 -0.0611 -0.4132  0.2871
   78MOL   C14717241   7.077   4.283   2.370 -0.3084  0.0279 -0.2459
   78MOL   C14817242   6.945   4.280   2.320  0.2431  0.0131  0.2788
   78MOL   C14917243   6.840   4.350   2.388  1.5196 -0.8444  0.7898
   78MOL   C15017244   6.869   4.419   2.509  0.9521  0.0477  0.1727
   78MOL   O15117245   6.780   4.487   2.585  0.2857 -0.4855  0.0594
   78MOL   H15217246   7.030   4.461   2.657  1.9409 -0.1587 -0.6705
   78MOL   H15317247   7.196   4.347   2.545  0.5214  4.6382 -0.1828
   78MOL   H15417248   6.933   4.228   2.226  2.1342  0.3143 -0.1497
   78MOL   H15517249   6.743   4.350   2.341  1.7759 -2.2544  0.2444
   78MOL   C15617250   6.513   4.252   2.678  0.5563 -0.4525  0.2374
   78MOL   C15717251   6.614   4.317   2.605  0.2118 -0.5752 -0.2356
   78MOL   C15817252   6.688   4.422   2.657 -0.4910  0.3857  0.2614
   78MOL   C15917253   6.662   4.462   2.789  0.3649 -0.3364  0.3397
   78MOL   C16017254   6.566   4.396   2.870  0.6011  0.4632 -0.1624
   78MOL   C16117255   6.491   4.288   2.814 -0.6507 -0.0414 -0.4299
   78MOL   O16217256   6.392   4.222   2.881 -0.3068  0.5339  0.3849
   78MOL   H16317257   6.448   4.183   2.626  0.3719 -1.3620  1.6736
   78MOL   H16417258   6.615   4.299   2.498 -1.9481  1.8807 -0.7237
   78MOL   H16517259   6.723   4.542   2.828  0.0293  1.5689 -2.8830
   78MOL   H16617260   6.555   4.419   2.975  2.0063  0.0256  0.0919
   78MOL   C16717261   6.460   4.043   3.201 -0.6481  0.2351  0.3241
   78MOL   C16817262   6.447   4.145   3.106 -0.4712 -0.2418  0.7350
   78MOL   C16917263   6.410   4.122   2.970  0.1749  0.2090  0.1633
   78MOL   C17017264   6.387   3.994   2.931  0.6284  0.2586 -0.5934
   78MOL   C17117265   6.390   3.888   3.026  0.1002  0.3850 -0.1409
   78MOL   C17217266   6.431   3.909   3.159  0.7247 -0.0916  0.0193
   78MOL   O17317267   6.434   3.803   3.244 -0.1198  0.7024  0.4448
   78MOL   H17417268   6.506   4.052   3.298  0.4191  3.3877 -0.4163
   78MOL   H17517269   6.467   4.242   3.148 -0.4297  0.5709 -1.1411
   78MOL   H17617270   6.365   3.977   2.826 -3.1441 -2.2202  0.4984
   78MOL   H17717271   6.376   3.788   2.988  0.5394 -0.0041  0.6907
   78MOL   C17817272   6.731   3.773   3.466 -0.1108  1.1656  0.0330
   78MOL   C17917273   6.615   3.826   3.411  0.2657  0.6263 -0.3278
   78MOL   C18017274   6.556   3.765   3.296  0.6092 -0.3366 -0.7465
   78MOL   C18117275   6.620   3.650   3.239 -0.5256  0.2220  0.5945
   78MOL   C18217276   6.728   3.590   3.303 -0.1525 -0.3227 -0.3130
   78MOL   C18317277   6.790   3.655   3.418  0.3793 -0.5182 -0.4756
   78MOL   O18417278   6.893   3.604   3.495  0.8321 -0.5520 -0.3749
   78MOL   H18517279   6.774   3.810   3.558  0.4235 -2.6417  1.4041
   78MOL   H18617280   6.566   3.910   3.458  1.1077  1.2046 -0.4798
   78MOL   H18717281   6.573   3.603   3.154  2.3671  0.0655 -0.9828
   78MOL   H18817282   6.772   3.493   3.282  0.4623 -0.1008 -0.0495
   78MOL   C18917283   7.132   3.415   3.295  0.1312 -0.0334 -0.2110
   78MOL   C19017284   7.056   3.527   3.341 -0.6909  0.2908  0.2729
   78MOL   C19117285   6.964   3.502   3.448 -0.4195  0.6758  0.2211
   78MOL   C19217286   6.966   3.383   3.521  0.0769 -0.1020  0.4657
   78MOL   C19317287   7.058   3.281   3.490 -0.5047  0.6727  0.2372
   78MOL   C19417288   7.135   3.292   3.368  0.5083  0.6030  0.3694
   78MOL   O19517289   7.194   3.182   3.312  0.2681 -0.0598  0.1879
   78MOL   H19617290   7.188   3.434   3.204 -0.2979  1.0579 -0.2507
   78MOL   H19717291   7.061   3.619   3.284  1.3788 -0.4585 -0.8250
   78MOL   H19817292   6.896   3.374   3.604  1.9172 -1.0613  1.9575
   78MOL   H19917293   7.060   3.188   3.546 -0.3750 -0.6748 -1.9475
   78MOL   C20017294   7.295   2.859   3.467 -0.4544 -0.3223  0.2266
   78MOL   C20117295   7.226   2.946   3.373 -0.0683 -0.7309  0.2073
   78MOL   C20217296   7.254   3.085   3.395 -0.1554  0.1495  0.7541
   78MOL   C20317297   7.344   3.135   3.490  0.3233 -0.5535 -0.4208
   78MOL   C20417298   7.418   3.053   3.576 -0.0230 -0.1568 -0.2685
   78MOL   C20517299   7.384   2.915   3.570 -0.1803  0.2001 -0.0632
   78MOL   O20617300   7.438   2.825   3.654 -0.0176 -0.6027  0.2479
   78MOL   H20717301   7.275   2.754   3.456  1.6633 -0.8032  0.6576
   78MOL   H20817302   7.147   2.913   3.307 -0.0420  0.6967 -0.5482
   78MOL   H20917303   7.364   3.242   3.488  0.8574 -0.6505 -0.4030
   78MOL   H21017304   7.485   3.089   3.652 -0.6693 -0.1173  0.2871
   78MOL   C21117305   7.804   2.849   3.650 -0.0738 -0.6057  0.3806
   78MOL   C21217306   7.669   2.867   3.687 -0.2791 -0.4878  0.6583
   78MOL   C21317307   7.571   2.790   3.629 -0.6036  0.6493 -0.0767
   78MOL   C21417308   7.598   2.685   3.540 -0.7408  0.2603  0.2585
   78MOL   C21517309   7.732   2.664   3.503  0.1913 -0.2005  0.1876
   78MOL   C21617310   7.832   2.750   3.556 -0.4115 -0.2594 -0.2903
   78MOL   O21717311   7.960   2.714   3.520 -0.0307  0.9311 -0.4361
   78MOL   H21817312   7.881   2.909   3.695  0.1399 -1.0942  0.6789
   78MOL   H21917313   7.644   2.938   3.765 -0.3326  0.2149  0.0074
   78MOL   H22017314   7.515   2.629   3.500 -1.1177 -0.5528  2.0951
   78MOL   H22117315   7.750   2.587   3.430  0.1897  0.0787 -0.1081
   78MOL   H22217316   8.025   2.763   3.569  0.4694  0.2861 -0.4519
   79MOL     C117317   0.041   1.920   5.169  0.0782  0.0973  0.5241
   79MOL     C217318   8.191   1.968   5.253 -0.3799  0.3753  0.2959
   79MOL     C317319   8.216   2.091   5.321 -0.2167 -0.3885  1.0293
   79MOL     C417320   0.079   2.164   5.293 -0.0076  0.3306  0.1526
   79MOL     C517321   0.171   2.123   5.199  0.2173  0.6512  0.2532
   79MOL     C617322   0.153   2.002   5.135 -0.3450  0.7017  0.0048
   79MOL     O717323   0.237   1.961   5.035 -0.3471  0.5099  0.3227
   79MOL     H817324   0.023   1.826   5.118  0.4711 -0.2117  0.9542
   79MOL     H917325   8.103   1.908   5.267 -0.4809  0.3087 -0.5898
   79MOL    H1017326   0.092   2.260   5.340 -2.2122  0.8563 -0.2478
   79MOL    H1117327   0.256   2.187   5.183 -0.1635  0.5016 -2.7004
   79MOL    H1217328   8.143   2.125   5.393 -0.5969  0.6640  0.1557
   79MOL    C1317329   0.562   1.797   5.130  0.4294  0.7861 -0.1931
   79MOL    C1417330   0.466   1.897   5.110  0.2675  0.6052  0.5274
   79MOL    C1517331   0.335   1.868   5.061  0.9098 -0.8248 -0.2406
   79MOL    C1617332   0.308   1.733   5.023 -0.2288 -0.1765 -0.1893
   79MOL    C1717333   0.405   1.630   5.045 -0.1015  0.0533  0.0919
   79MOL    C1817334   0.531   1.663   5.102  0.4931  0.0743  0.1765
   79MOL    O1917335   0.628   1.567   5.120  0.1529  0.2537 -0.1781
   79MOL    H2017336   0.656   1.821   5.177  0.8620  1.5393 -1.3960
   79MOL    H2117337   0.488   2.000   5.132 -0.4005  1.0810 -1.0337
   79MOL    H2217338   0.216   1.693   4.982  0.9323 -1.0313 -2.0273
   79MOL    H2317339   0.393   1.529   5.011 -1.0129  0.8615 -2.0465
   79MOL    C2417340   0.519   1.371   5.414 -0.1260  0.3622 -1.2369
   79MOL    C2517341   0.512   1.439   5.289 -0.1978  0.2122 -1.1769
   79MOL    C2617342   0.630   1.499   5.244  0.2869 -0.1544  0.7376
   79MOL    C2717343   0.759   1.480   5.307  0.0314 -0.4559  0.0215
   79MOL    C2817344   0.756   1.413   5.427  0.3850  0.2291 -0.3774
   79MOL    C2917345   0.639   1.362   5.488 -0.4353 -0.5773  0.3102
   79MOL    O3017346   0.637   1.298   5.609 -0.9162  0.1658 -0.3840
   79MOL    H3117347   0.431   1.315   5.442  0.2852  0.5749  0.4960
   79MOL    H3217348   0.417   1.453   5.239  0.4020 -0.2619 -2.4790
   79MOL    H3317349   0.854   1.513   5.270  0.1356  1.7745  2.1633
   79MOL    H3417350   0.851   1.410   5.477  0.0262  1.7284  0.3992
   79MOL    C3517351   0.951   1.214   5.793  0.1989 -0.0583  0.6379
   79MOL    C3617352   0.841   1.285   5.742 -0.7262  0.6339  0.6057
   79MOL    C3717353   0.749   1.228   5.652  0.1828  0.1205 -0.2332
   79MOL    C3817354   0.774   1.099   5.598 -0.0833  0.5160  0.3799
   79MOL    C3917355   0.895   1.034   5.636 -0.0824  0.0852 -0.4243
   79MOL    C4017356   0.978   1.086   5.738 -0.2239 -0.3459 -0.1749
   79MOL    O4117357   1.090   1.010   5.772 -0.0125 -0.0889  0.3133
   79MOL    H4217358   1.012   1.260   5.870 -0.7717  0.4460  1.1106
   79MOL    H4317359   0.818   1.380   5.788  1.1340  0.5189  1.8155
   79MOL    H4417360   0.706   1.060   5.524  0.4376 -1.3369  0.8580
   79MOL    H4517361   0.913   0.937   5.593 -5.2225 -1.2899  0.2468
   79MOL    C4617362   1.378   1.158   5.941  0.1044 -0.2263 -0.0193
   79MOL    C4717363   1.261   1.083   5.918 -0.2881 -0.4674 -0.1055
   79MOL    C4817364   1.207   1.079   5.787 -0.7721  0.6624 -0.5405
   79MOL    C4917365   1.268   1.148   5.682 -0.1180 -0.0818  0.4976
   79MOL    C5017366   1.391   1.215   5.702 -0.3686 -0.8457 -0.4224
   79MOL    C5117367   1.449   1.219   5.836  0.3092 -0.1692  0.5738
   79MOL    O5217368   1.562   1.297   5.854  0.2232  0.1929  0.6226
   79MOL    H5317369   1.421   1.159   6.041 -0.5345  0.8806  0.2516
   79MOL    H5417370   1.197   1.040   5.994  0.2793 -0.1136  0.5770
   79MOL    H5517371   1.225   1.136   5.583  2.0560  2.6301 -0.8467
   79MOL    H5617372   1.437   1.265   5.619  2.7287  0.0185  1.7197
   79MOL    C5717373   1.865   1.084   5.884 -0.3709  0.0983 -0.3814
   79MOL    C5817374   1.760   1.174   5.922  0.0042 -0.3808 -0.7177
   79MOL    C5917375   1.682   1.236   5.821  0.3138 -0.3333  0.5190
   79MOL    C6017376   1.714   1.210   5.686  0.0360  0.9016  0.5017
   79MOL    C6117377   1.824   1.129   5.648  0.0926  0.7085 -0.9134
   79MOL    C6217378   1.898   1.067   5.747 -0.0176 -0.1287  0.3538
   79MOL    O6317379   1.996   0.983   5.711  0.0279  0.4195  0.2007
   79MOL    H6417380   1.927   1.036   5.959 -0.2034  0.7002 -0.1305
   79MOL    H6517381   1.747   1.187   6.028  2.9991  1.3860 -0.5154
   79MOL    H6617382   1.653   1.263   5.614  0.0729 -0.3804 -0.4804
   79MOL    H6717383   1.847   1.119   5.543 -0.9274  0.4499 -1.1206
   79MOL    C6817384   2.317   1.124   5.836 -0.2560 -0.5119  0.1282
   79MOL    C6917385   2.183   1.121   5.796 -0.6610 -0.0149 -0.6825
   79MOL    C7017386   2.129   1.000   5.746  0.6093 -0.0642  0.3028
   79MOL    C7117387   2.211   0.889   5.728  0.0798 -0.3847 -0.1616
   79MOL    C7217388   2.352   0.892   5.754  0.6519  0.1793 -0.6994
   79MOL    C7317389   2.401   1.011   5.818 -0.5346 -0.3955  0.6791
   79MOL    O7417390   2.528   1.014   5.856  0.5667 -0.2549 -0.9525
   79MOL    H7517391   2.342   1.221   5.875 -0.1740 -1.3758  2.2666
   79MOL    H7617392   2.121   1.210   5.801  1.1052  1.2635 -0.9159
   79MOL    H7717393   2.163   0.800   5.690  0.4755 -1.1477  1.0675
   79MOL    H7817394   2.409   0.801   5.744 -0.8212 -0.9994  1.1303
   79MOL    C7917395   2.722   1.069   6.161 -0.1726 -0.5957 -0.2455
   79MOL    C8017396   2.680   1.066   6.024  0.3866  0.0729  0.6161
   79MOL    C8117397   2.556   1.018   5.997  0.2365 -0.0115  0.2581
   79MOL    C8217398   2.473   0.959   6.100  0.3755  0.1317  0.5441
   79MOL    C8317399   2.517   0.951   6.234  0.3765 -0.0680  0.2097
   79MOL    C8417400   2.644   1.014   6.263 -0.7794  0.1241  0.3482
   79MOL    O8517401   2.695   1.018   6.387 -0.0738 -0.1342  0.3377
   79MOL    H8617402   2.823   1.101   6.182  0.4520 -1.5224 -1.7141
   79MOL    H8717403   2.737   1.111   5.945  2.6879 -0.5970  1.8585
   79MOL    H8817404   2.385   0.899   6.085  0.0809  1.3090 -2.6736
   79MOL    H8917405   2.474   0.884   6.307 -0.8712  0.7387  0.2246
   79MOL    C9017406   2.727   0.659   6.483  0.8882 -0.2838  0.0853
   79MOL    C9117407   2.733   0.777   6.401 -0.6268 -0.0188 -0.0711
   79MOL    C9217408   2.694   0.899   6.458 -0.6647  0.0251 -0.0945
   79MOL    C9317409   2.656   0.903   6.591 -0.1161 -0.1380 -0.4114
   79MOL    C9417410   2.633   0.789   6.668 -0.1660  0.5235 -0.1907
   79MOL    C9517411   2.667   0.666   6.613 -0.2990 -0.3465 -0.1069
   79MOL    O9617412   2.640   0.553   6.685 -0.0141  0.2202 -0.0996
   79MOL    H9717413   2.772   0.568   6.448 -1.6604 -1.3273 -0.6092
   79MOL    H9817414   2.770   0.781   6.299 -1.5007 -0.5535 -0.4183
   79MOL    H9917415   2.621   0.995   6.637 -0.2425  0.0806 -0.9474
   79MOL   H10017416   2.585   0.794   6.764 -2.2924 -1.2710 -1.1046
   79MOL   C10117417   2.980   0.461   6.788 -0.2466 -0.0014  0.2445
   79MOL   C10217418   2.874   0.541   6.750 -0.2519  0.3038 -0.2445
   79MOL   C10317419   2.748   0.475   6.715 -0.1246 -0.7647  0.7302
   79MOL   C10417420   2.740   0.339   6.698  0.1104  0.1769 -0.5031
   79MOL   C10517421   2.849   0.258   6.735 -0.6159 -0.5120 -0.5005
   79MOL   C10617422   2.966   0.319   6.782  0.2495  0.2922 -0.6791
   79MOL   O10717423   3.073   0.242   6.825 -0.0747  1.1625 -0.6247
   79MOL   H10817424   3.072   0.502   6.827  0.1953 -1.2571  0.5506
   79MOL   H10917425   2.864   0.647   6.762 -2.6524  0.4021 -2.7763
   79MOL   H11017426   2.644   0.297   6.672  0.2903  0.1909 -1.1982
   79MOL   H11117427   2.845   0.150   6.744  0.5673 -0.3948  1.7482
   79MOL   C11217428   3.071   8.146   6.933 -0.2532 -0.3290  0.1521
   79MOL   C11317429   3.096   0.010   6.853 -0.3857  0.4657  0.1805
   79MOL   C11417430   3.050   0.132   6.904  0.5362 -0.7104  0.5230
   79MOL   C11517431   2.976   0.137   7.025  0.4679  0.4738 -0.1048
   79MOL   C11617432   2.955   0.017   7.102 -0.2606 -0.1787  0.2591
   79MOL   C11717433   3.010   8.147   7.058  0.2105 -0.3605  0.3494
   79MOL   O11817434   3.005   8.031   7.134  0.4991  0.2928 -0.2881
   79MOL   H11917435   3.109   8.054   6.890  4.1476  1.3257  0.1877
   79MOL   H12017436   3.154   8.247   6.764 -0.5459 -2.1110  0.5401
   79MOL   H12117437   2.932   0.232   7.049  1.1222  0.7207  0.1387
   79MOL   H12217438   2.893   0.017   7.190 -2.1180 -1.0054 -1.0142
   79MOL   C12317439   2.671   7.880   7.115  0.1880 -0.2032 -0.1506
   79MOL   C12417440   2.797   7.931   7.076 -0.4171 -0.1384  0.6601
   79MOL   C12517441   2.880   7.984   7.169  0.1791  0.1852 -0.1244
   79MOL   C12617442   2.844   7.980   7.306  0.4353 -0.8942  0.4657
   79MOL   C12717443   2.712   7.948   7.348  0.4690 -0.2360  0.2424
   79MOL   C12817444   2.627   7.910   7.245  0.0375 -0.1615 -0.0872
   79MOL   O12917445   2.493   7.875   7.280 -0.0493  0.2404  0.0750
   79MOL   H13017446   2.604   7.854   7.035  0.3855 -0.2759 -0.2938
   79MOL   H13117447   2.837   7.922   6.976 -1.8606 -0.3260  0.0843
   79MOL   H13217448   2.905   8.011   7.389 -2.8311  0.7068  2.3863
   79MOL   H13317449   2.674   7.947   7.449 -0.3792  0.0788 -0.0640
   79MOL   C13417450   2.298   8.158   7.143  0.0431 -0.6717 -1.1091
   79MOL   C13517451   2.402   8.065   7.158  0.0861  0.1907  0.1077
   79MOL   C13617452   2.405   7.978   7.270 -0.1915  0.7444 -0.3927
   79MOL   C13717453   2.310   7.994   7.376  0.0399 -0.3359  0.1698
   79MOL   C13817454   2.213   8.097   7.363  0.1297 -0.2754  0.7272
   79MOL   C13917455   2.209   8.187   7.251  0.5308 -0.0138 -0.4803
   79MOL   O14017456   2.111   0.026   7.229  0.2292 -0.1887 -0.0090
   79MOL   H14117457   2.284   8.200   7.044  0.2392  0.9728 -0.4454
   79MOL   H14217458   2.472   8.049   7.078 -0.9599 -0.6454 -0.6670
   79MOL   H14317459   2.305   7.941   7.470 -0.5500 -1.4660 -0.4860
   79MOL   H14417460   2.147   8.106   7.448 -2.6742 -2.3959 -1.0984
   79MOL   C14517461   2.263   0.335   7.361 -0.7033  1.0034 -0.0660
   79MOL   C14617462   2.255   0.203   7.315  0.2265 -0.0478  0.1849
   79MOL   C14717463   2.125   0.150   7.289 -0.5287 -0.7797 -0.1716
   79MOL   C14817464   2.007   0.222   7.319 -0.1410 -0.2206 -0.1369
   79MOL   C14917465   2.014   0.349   7.375 -0.2856  0.0790 -0.2560
   79MOL   C15017466   2.147   0.407   7.401 -0.0388  0.9885  0.3136
   79MOL   O15117467   2.153   0.529   7.465  0.2266  0.6181  0.2859
   79MOL   H15217468   2.361   0.380   7.354 -0.8460  1.2264 -0.6662
   79MOL   H15317469   2.343   0.145   7.290  1.3271  1.3407  0.7931
   79MOL   H15417470   1.912   0.175   7.303 -0.0538 -0.9627  1.4219
   79MOL   H15517471   1.925   0.404   7.403 -0.6495 -0.0150 -1.2394
   79MOL   C15617472   1.928   0.808   7.393 -0.1409  0.0178 -0.4032
   79MOL   C15717473   1.984   0.695   7.458 -0.1078 -0.8707  0.3127
   79MOL   C15817474   2.099   0.634   7.397  0.4451  0.2722 -0.7017
   79MOL   C15917475   2.146   0.678   7.267 -0.9124  0.0115  0.1006
   79MOL   C16017476   2.087   0.792   7.205  0.1311  0.8333 -0.0830
   79MOL   C16117477   1.981   0.859   7.275 -0.1441 -0.5113  0.6236
   79MOL   O16217478   1.928   0.964   7.209  0.1780  0.0171  0.1765
   79MOL   H16317479   1.840   0.850   7.440 -0.1081 -0.5594  0.1716
   79MOL   H16417480   1.949   0.656   7.553 -0.7213 -2.7481 -0.6531
   79MOL   H16517481   2.228   0.632   7.214 -0.6052 -0.0137  0.5989
   79MOL   H16617482   2.131   0.835   7.116  0.9732 -1.3065 -0.7221
   79MOL   C16717483   1.605   1.122   7.185  0.7687 -0.0028  0.3521
   79MOL   C16817484   1.740   1.101   7.199  0.1501 -0.4909  0.3008
   79MOL   C16917485   1.791   0.972   7.198 -0.2522 -0.0792 -0.4783
   79MOL   C17017486   1.711   0.857   7.187 -0.1315 -0.2627  0.2556
   79MOL   C17117487   1.570   0.875   7.166 -0.0885  0.3803  0.7199
   79MOL   C17217488   1.526   1.008   7.164  0.3341 -0.5346  0.1782
   79MOL   O17317489   1.402   1.021   7.114 -0.1365 -0.1870 -0.2666
   79MOL   H17417490   1.568   1.222   7.197  0.8704  0.3224 -1.9526
   79MOL   H17517491   1.809   1.181   7.220  0.7290 -0.6447 -1.0136
   79MOL   H17617492   1.757   0.760   7.181 -0.7199 -0.7759  3.4028
   79MOL   H17717493   1.506   0.789   7.151 -1.4568  1.1712  1.8944
   79MOL   C17817494   1.079   0.920   7.254 -0.3639 -0.6869 -0.3123
   79MOL   C17917495   1.188   0.938   7.168 -0.4201 -0.8113 -0.5567
   79MOL   C18017496   1.299   1.012   7.206  0.9361  0.3731  0.2766
   79MOL   C18117497   1.296   1.085   7.327 -0.8307  0.0635  0.2716
   79MOL   C18217498   1.185   1.071   7.411  0.4191  0.0527  0.4146
   79MOL   C18317499   1.070   0.996   7.375  0.0262 -0.1054 -0.0539
   79MOL   O18417500   0.953   0.984   7.451  0.1686 -0.3748 -0.4564
   79MOL   H18517501   0.989   0.864   7.231 -0.9253  0.8281 -1.8726
   79MOL   H18617502   1.186   0.885   7.074 -0.7461 -0.8751 -0.5145
   79MOL   H18717503   1.358   1.171   7.348 -0.4129 -0.8923  3.2139
   79MOL   H18817504   1.176   1.133   7.499  0.2838 -0.5284  0.8174
   79MOL   C18917505   0.720   1.240   7.594 -0.0984 -0.0182  0.4331
   79MOL   C19017506   0.806   1.124   7.586 -0.4891 -0.2842  0.3317
   79MOL   C19117507   0.865   1.094   7.461 -0.1003 -0.1859 -0.0690
   79MOL   C19217508   0.818   1.155   7.342 -0.6370 -0.0608  0.3584
   79MOL   C19317509   0.712   1.252   7.353 -0.8414  0.0026 -0.4198
   79MOL   C19417510   0.664   1.297   7.475 -0.0756 -0.0512  0.3260
   79MOL   O19517511   0.574   1.394   7.479 -0.4204 -0.0208 -0.6488
   79MOL   H19617512   0.682   1.271   7.690 -0.5787  1.1887 -0.1475
   79MOL   H19717513   0.847   1.073   7.672  1.5674 -1.1541 -1.1131
   79MOL   H19817514   0.844   1.120   7.243 -1.2236 -2.4534  1.0178
   79MOL   H19917515   0.690   1.297   7.257 -0.2571  2.6565  0.6493
   79MOL   C20017516   0.755   1.716   7.507 -0.4033  0.0292  0.3951
   79MOL   C20117517   0.722   1.583   7.464  0.4537 -0.0862 -0.0836
   79MOL   C20217518   0.618   1.515   7.527 -0.1121 -0.7484  0.2708
   79MOL   C20317519   0.541   1.577   7.631  0.2295 -0.5405  0.4633
   79MOL   C20417520   0.580   1.698   7.677  0.3318 -0.2333  0.3486
   79MOL   C20517521   0.692   1.766   7.619  0.6291 -0.3396  0.0403
   79MOL   O20617522   0.718   1.896   7.661  0.1185 -0.6552 -0.5401
   79MOL   H20717523   0.838   1.767   7.460 -0.1604  0.5552  1.3746
   79MOL   H20817524   0.771   1.540   7.378  0.9932  1.3392 -0.5022
   79MOL   H20917525   0.447   1.537   7.666 -0.4472 -0.4622 -1.2154
   79MOL   H21017526   0.519   1.748   7.751  0.5432 -3.3084  2.7479
   79MOL   C21117527   0.849   1.965   7.994 -0.1420 -0.2605  0.2061
   79MOL   C21217528   0.760   1.958   7.888  0.6534  0.8278  0.9613
   79MOL   C21317529   0.803   1.900   7.767 -0.3316 -0.9773 -0.4742
   79MOL   C21417530   0.937   1.867   7.754  0.9048  0.0323 -0.0641
   79MOL   C21517531   1.026   1.881   7.862 -0.0043  0.0936 -0.8693
   79MOL   C21617532   0.983   1.924   7.984 -0.1633 -0.2941 -0.2562
   79MOL   O21717533   1.061   1.931   8.092 -0.4034 -0.3713 -0.4706
   79MOL   H21817534   0.808   2.013   8.081 -1.8861 -0.8551 -0.2777
   79MOL   H21917535   0.660   2.000   7.890 -0.5170 -1.6474 -1.7905
   79MOL   H22017536   0.979   1.823   7.665  1.6933  0.8903 -0.1303
   79MOL   H22117537   1.128   1.850   7.845  0.0606 -1.5591  2.1054
   79MOL   H22217538   1.151   1.905   8.075 -0.3295 -0.4786  0.0695
   80MOL     C117539   4.185   6.348   6.003 -0.5337  0.6291  0.0959
   80MOL     C217540   4.096   6.307   6.104 -0.0051 -0.0717 -0.1120
   80MOL     C317541   4.098   6.174   6.156 -0.5764 -0.1977  0.9402
   80MOL     C417542   4.211   6.094   6.132  0.1589 -0.3880 -1.0196
   80MOL     C517543   4.311   6.140   6.046  0.7521  1.0858 -0.1220
   80MOL     C617544   4.288   6.260   5.965 -0.4471  1.0923 -0.7480
   80MOL     O717545   4.380   6.297   5.868 -0.0552 -0.0133 -0.2020
   80MOL     H817546   4.176   6.446   5.958 -2.1693  0.9004  0.9718
   80MOL     H917547   4.011   6.369   6.131 -0.3267 -0.4504 -0.2570
   80MOL    H1017548   4.216   6.003   6.191  1.1865  0.8921  0.9342
   80MOL    H1117549   4.398   6.077   6.034  0.5780  1.0709 -1.4231
   80MOL    H1217550   4.021   6.139   6.223 -0.3044 -1.1557  0.7590
   80MOL    C1317551   4.742   6.382   5.823  0.0489  0.3177  0.4633
   80MOL    C1417552   4.610   6.345   5.799  0.1891 -0.0362 -0.7452
   80MOL    C1517553   4.515   6.323   5.898  0.5761  0.0522 -0.1296
   80MOL    C1617554   4.558   6.343   6.032  0.6796  0.3677 -0.3537
   80MOL    C1717555   4.688   6.389   6.059 -0.2635  0.3252  0.2931
   80MOL    C1817556   4.785   6.399   5.955  0.3712  0.4349  0.3592
   80MOL    O1917557   4.917   6.422   5.979 -0.2305  0.4624 -0.0380
   80MOL    H2017558   4.806   6.386   5.737 -0.9987 -0.6008 -0.3894
   80MOL    H2117559   4.570   6.344   5.698 -1.3195  1.4513 -0.1844
   80MOL    H2217560   4.495   6.335   6.119  1.3105 -0.4942  0.0256
   80MOL    H2317561   4.720   6.407   6.160 -0.2273 -0.5134  0.4319
   80MOL    C2417562   5.152   6.220   6.173 -0.2071 -0.1924  1.3810
   80MOL    C2517563   5.064   6.317   6.141  0.2674  0.1836  0.1130
   80MOL    C2617564   4.994   6.312   6.022  0.6883 -0.1699  0.0994
   80MOL    C2717565   5.009   6.203   5.938 -0.0095 -0.2025 -0.1066
   80MOL    C2817566   5.090   6.092   5.975  0.5469  0.5009 -0.0876
   80MOL    C2917567   5.162   6.104   6.098 -0.5671 -0.4969  0.6434
   80MOL    O3017568   5.239   5.999   6.135 -0.1334  0.3200 -0.0754
   80MOL    H3117569   5.212   6.224   6.263  2.7416 -2.3779 -0.3900
   80MOL    H3217570   5.047   6.396   6.213  0.0504  1.1675 -0.9999
   80MOL    H3317571   4.962   6.203   5.841  1.4864  3.7553 -0.9175
   80MOL    H3417572   5.089   6.005   5.911  0.3566 -0.1018  0.7321
   80MOL    C3517573   5.304   5.726   5.890  1.1257 -0.3210  0.2557
   80MOL    C3617574   5.239   5.800   5.992  0.5491  0.3727 -0.4455
   80MOL    C3717575   5.297   5.923   6.037  0.1994 -0.3242  0.4275
   80MOL    C3817576   5.420   5.963   5.977  0.0540  0.3568 -0.5978
   80MOL    C3917577   5.488   5.883   5.882  0.0311  0.1746 -0.5476
   80MOL    C4017578   5.428   5.765   5.828  0.1237 -0.0696 -0.2077
   80MOL    O4117579   5.489   5.688   5.733  0.1774 -0.0655 -0.5137
   80MOL    H4217580   5.265   5.628   5.865  0.8125 -0.3609  0.8785
   80MOL    H4317581   5.141   5.770   6.024  1.6966 -2.5162  0.5102
   80MOL    H4417582   5.472   6.047   6.020 -1.5383  1.0565  0.0140
   80MOL    H4517583   5.590   5.913   5.864 -0.0725  0.3264 -0.8737
   80MOL    C4617584   5.296   5.700   5.411 -0.4473 -0.3819 -0.3271
   80MOL    C4717585   5.370   5.736   5.525 -0.2869 -0.2708 -0.5013
   80MOL    C4817586   5.412   5.638   5.620 -0.0912  0.4699  0.0749
   80MOL    C4917587   5.384   5.498   5.588 -0.4891 -0.2169  0.7682
   80MOL    C5017588   5.301   5.465   5.477 -0.1382  0.2417 -0.5221
   80MOL    C5117589   5.260   5.565   5.386  0.2733 -0.3480 -0.7603
   80MOL    O5217590   5.208   5.532   5.265  0.4201  0.6211  0.2247
   80MOL    H5317591   5.255   5.778   5.348 -1.8522 -1.4785 -0.7939
   80MOL    H5417592   5.401   5.837   5.546 -1.1841 -0.3440  1.2484
   80MOL    H5517593   5.418   5.412   5.644  2.2308  0.6850  0.5850
   80MOL    H5617594   5.281   5.361   5.457 -2.3159  0.4891  0.1868
   80MOL    C5717595   4.897   5.345   5.208 -0.0596 -0.1716 -0.5791
   80MOL    C5817596   5.035   5.381   5.220 -0.1750 -0.0870 -0.4324
   80MOL    C5917597   5.072   5.508   5.271  0.2641 -0.1814  0.2411
   80MOL    C6017598   4.978   5.603   5.301  1.0542  0.1044 -0.3258
   80MOL    C6117599   4.841   5.566   5.293 -0.0744  0.0917  0.5096
   80MOL    C6217600   4.794   5.441   5.240 -0.4930 -0.7871  0.2939
   80MOL    O6317601   4.661   5.417   5.219  0.0288  0.2398 -0.0109
   80MOL    H6417602   4.870   5.245   5.178  0.6979 -0.1457 -1.3591
   80MOL    H6517603   5.111   5.311   5.190 -1.0570 -1.1801 -0.1509
   80MOL    H6617604   5.003   5.697   5.348 -0.3951  0.2470  0.1706
   80MOL    H6717605   4.780   5.654   5.311  1.0791  1.0538 -0.1923
   80MOL    C6817606   4.424   5.352   5.502  0.0174 -0.7468 -0.2120
   80MOL    C6917607   4.520   5.332   5.405 -0.2371  0.1708  0.3827
   80MOL    C7017608   4.566   5.439   5.325 -0.1635 -0.1746  0.1700
   80MOL    C7117609   4.522   5.570   5.356  0.0490  0.4152  0.5638
   80MOL    C7217610   4.430   5.590   5.460  0.1040  0.1783  0.2426
   80MOL    C7317611   4.371   5.480   5.523 -0.6538  0.6775 -0.3264
   80MOL    O7417612   4.272   5.501   5.615  0.0160 -0.2610 -0.7260
   80MOL    H7517613   4.401   5.269   5.567  2.1844 -1.3290 -0.1474
   80MOL    H7617614   4.570   5.238   5.387 -0.5823  0.4108 -1.9001
   80MOL    H7717615   4.568   5.655   5.308  1.8514 -1.4116 -1.0143
   80MOL    H7817616   4.393   5.690   5.479 -2.3091 -0.8801  1.3825
   80MOL    C7917617   3.959   5.364   5.486 -0.3676 -0.6198 -0.3014
   80MOL    C8017618   4.089   5.416   5.480 -0.1855  0.4504 -0.2220
   80MOL    C8117619   4.146   5.466   5.599  0.8445 -0.0663  0.0787
   80MOL    C8217620   4.061   5.475   5.714  0.8181  0.4235  0.3195
   80MOL    C8317621   3.927   5.427   5.715 -0.3109 -0.2399 -0.2024
   80MOL    C8417622   3.878   5.365   5.603  0.5951 -0.4121  1.1251
   80MOL    O8517623   3.764   5.285   5.606 -0.1068  0.0791  0.1833
   80MOL    H8617624   3.930   5.313   5.395  0.2838 -3.0057  0.7955
   80MOL    H8717625   4.151   5.395   5.394  1.1513  1.3587  0.5126
   80MOL    H8817626   4.105   5.507   5.808  2.1924  2.0896 -0.8499
   80MOL    H8917627   3.879   5.419   5.811 -0.5553 -0.4874 -0.3454
   80MOL    C9017628   3.805   4.944   5.751 -0.4065 -1.0115  0.0266
   80MOL    C9117629   3.811   5.052   5.661  0.3985  0.2770 -0.0064
   80MOL    C9217630   3.755   5.182   5.696  0.4737  0.0747 -0.4575
   80MOL    C9317631   3.691   5.199   5.821  0.1277 -0.0294  0.5408
   80MOL    C9417632   3.684   5.089   5.905  0.8878  0.1443  0.0080
   80MOL    C9517633   3.737   4.968   5.875 -0.1750 -0.3803 -0.0425
   80MOL    O9617634   3.721   4.875   5.964  0.2922 -0.2725 -0.4173
   80MOL    H9717635   3.866   4.861   5.720  0.7608 -0.5365  1.0253
   80MOL    H9817636   3.865   5.042   5.568  0.7314 -1.2350  0.3446
   80MOL    H9917637   3.636   5.286   5.852  0.9797  0.9459 -0.6483
   80MOL   H10017638   3.625   5.089   5.995 -0.6530 -2.6970 -0.9159
   80MOL   C10117639   3.952   4.591   5.994  0.5592  0.3280 -0.0596
   80MOL   C10217640   3.842   4.664   5.954 -0.1981 -0.1589  0.7054
   80MOL   C10317641   3.829   4.796   5.995 -0.4081 -0.6045 -0.3078
   80MOL   C10417642   3.938   4.855   6.063  0.3292 -0.1569 -0.3661
   80MOL   C10517643   4.047   4.780   6.110  0.1573  0.3297  0.6880
   80MOL   C10617644   4.055   4.644   6.070  0.5633  0.2035  0.1758
   80MOL   O10717645   4.159   4.563   6.112 -0.5161  0.0298 -0.2021
   80MOL   H10817646   3.957   4.485   5.975  1.9193 -0.2798  3.2969
   80MOL   H10917647   3.765   4.620   5.894  1.2490 -2.4066  0.4454
   80MOL   H11017648   3.927   4.959   6.092  1.4981 -0.4104  1.0774
   80MOL   H11117649   4.125   4.822   6.172  2.2717 -1.5473 -0.6382
   80MOL   C11217650   4.460   4.612   5.893  0.1608 -0.4736  0.3402
   80MOL   C11317651   4.362   4.633   6.002 -0.8618  0.5949  1.2395
   80MOL   C11417652   4.258   4.541   6.019 -0.2239 -0.3400  0.0845
   80MOL   C11517653   4.263   4.425   5.945  0.5988 -0.4348  0.2217
   80MOL   C11617654   4.356   4.404   5.844  0.5005 -0.7466 -0.7397
   80MOL   C11717655   4.467   4.493   5.825 -0.0629 -0.2075  0.1385
   80MOL   O11817656   4.573   4.476   5.745  0.1858  0.4148  0.0989
   80MOL   H11917657   4.535   4.685   5.867 -2.7953  1.3400 -3.5505
   80MOL   H12017658   4.362   4.727   6.056  0.8909  2.1077 -1.3152
   80MOL   H12117659   4.185   4.352   5.960  1.5097 -1.7277 -1.0758
   80MOL   H12217660   4.351   4.310   5.791  1.0070 -0.4645 -1.2871
   80MOL   C12317661   4.832   4.221   5.767 -0.2112  0.1249  0.1649
   80MOL   C12417662   4.726   4.300   5.720 -0.3538  0.7139  0.0870
   80MOL   C12517663   4.674   4.402   5.803  0.2136 -0.1844 -0.0513
   80MOL   C12617664   4.743   4.435   5.922  0.1561 -0.0591 -0.4849
   80MOL   C12717665   4.845   4.348   5.968  0.1867 -0.0572  0.2233
   80MOL   C12817666   4.895   4.246   5.887  0.4177 -0.0906 -0.0128
   80MOL   O12917667   4.988   4.154   5.937  0.0545  0.1718 -0.3656
   80MOL   H13017668   4.866   4.132   5.716  0.9266  0.0919  0.9597
   80MOL   H13117669   4.687   4.267   5.625  1.7015  0.8421 -0.8232
   80MOL   H13217670   4.704   4.519   5.978  2.9747  0.2646  1.0722
   80MOL   H13317671   4.897   4.362   6.062  0.7135 -0.2585 -0.0364
   80MOL   C13417672   5.015   3.792   5.853  0.4430  0.2056 -0.4088
   80MOL   C13517673   4.980   3.914   5.922 -0.3075 -0.1896  0.0610
   80MOL   C13617674   5.028   4.040   5.875  0.3460 -0.2575  0.9132
   80MOL   C13717675   5.113   4.044   5.761 -0.0752 -0.3600  0.0061
   80MOL   C13817676   5.138   3.921   5.692  0.4648 -0.1773 -0.5925
   80MOL   C13917677   5.093   3.798   5.737 -0.1935  0.4844 -0.0345
   80MOL   O14017678   5.131   3.686   5.672  0.3123 -0.1314  0.0748
   80MOL   H14117679   4.972   3.699   5.887  1.2473  0.1670  0.5183
   80MOL   H14217680   4.907   3.911   6.001  0.2464 -1.6620  0.5317
   80MOL   H14317681   5.145   4.142   5.730 -1.5642 -0.0721 -0.6597
   80MOL   H14417682   5.182   3.931   5.594  0.5926  2.1157 -0.3321
   80MOL   C14517683   5.319   3.447   5.903 -0.1096 -0.2859 -0.0571
   80MOL   C14617684   5.274   3.573   5.851 -0.5703 -0.1688 -0.1100
   80MOL   C14717685   5.185   3.574   5.740  0.3806  0.2662  0.5586
   80MOL   C14817686   5.140   3.454   5.689 -0.0506 -0.3992  0.0043
   80MOL   C14917687   5.187   3.329   5.741 -0.0137  0.3121  0.7977
   80MOL   C15017688   5.271   3.325   5.858 -0.5232 -0.2749  0.2161
   80MOL   O15117689   5.291   3.206   5.921  1.0378 -0.4594  0.8012
   80MOL   H15217690   5.388   3.443   5.986  1.7342 -1.1254 -1.5811
   80MOL   H15317691   5.311   3.664   5.895 -1.5254 -0.0216  0.3954
   80MOL   H15417692   5.081   3.460   5.599 -0.7299  0.1601  0.4743
   80MOL   H15517693   5.146   3.240   5.697 -1.1254  0.3430  1.7538
   80MOL   C15617694   5.508   3.091   6.180  0.2377  0.0944 -0.1820
   80MOL   C15717695   5.450   3.107   6.054 -0.0576 -0.3664  0.3445
   80MOL   C15817696   5.345   3.200   6.042 -0.6608 -0.3682 -0.8452
   80MOL   C15917697   5.298   3.269   6.156  0.8934 -0.3395  0.5793
   80MOL   C16017698   5.364   3.255   6.280  0.2318 -0.0314 -0.0587
   80MOL   C16117699   5.464   3.159   6.294  0.7531  0.1481  0.3685
   80MOL   O16217700   5.524   3.122   6.416  0.5606  0.1959 -0.1547
   80MOL   H16317701   5.581   3.013   6.195 -0.5371 -0.5093  0.5573
   80MOL   H16417702   5.489   3.054   5.969 -0.1168 -1.0115  0.7157
   80MOL   H16517703   5.219   3.342   6.143  0.8427 -0.5615 -0.4227
   80MOL   H16617704   5.335   3.307   6.370 -0.6039 -2.5154  1.1444
   80MOL   C16717705   5.383   3.193   6.749  0.2344  0.2015 -0.1645
   80MOL   C16817706   5.405   3.129   6.624 -0.9124 -0.2016 -0.6529
   80MOL   C16917707   5.495   3.189   6.534  0.6526  0.8404 -0.8788
   80MOL   C17017708   5.553   3.314   6.557  0.4673 -0.5508 -0.0074
   80MOL   C17117709   5.531   3.373   6.684  0.3450  0.5003 -0.3800
   80MOL   C17217710   5.438   3.319   6.779 -0.2594  0.7675 -0.0345
   80MOL   O17317711   5.423   3.370   6.908 -0.5897 -0.4320 -0.3040
   80MOL   H17417712   5.322   3.141   6.821  3.0128  0.1703  2.2767
   80MOL   H17517713   5.365   3.029   6.619  0.4191 -0.8089  0.3649
   80MOL   H17617714   5.623   3.354   6.485  0.9115  0.1219  0.7919
   80MOL   H17717715   5.580   3.467   6.704  1.4277 -0.3577  1.0779
   80MOL   C17817716   5.644   3.624   7.048 -0.2145  0.2510  0.8488
   80MOL   C17917717   5.594   3.496   7.013 -0.3852  0.1759  0.2032
   80MOL   C18017718   5.477   3.492   6.936 -0.1316 -0.2311 -0.5101
   80MOL   C18117719   5.422   3.607   6.881  0.7455 -0.7974  0.2343
   80MOL   C18217720   5.465   3.732   6.923 -0.2052  0.2766 -0.6759
   80MOL   C18317721   5.582   3.744   7.003  1.3587 -0.1804  1.5892
   80MOL   O18417722   5.638   3.865   7.018  0.0836 -0.1368  0.2286
   80MOL   H18517723   5.736   3.637   7.103 -0.9838  0.1028  2.1800
   80MOL   H18617724   5.647   3.407   7.044  2.1223  0.7094 -2.3441
   80MOL   H18717725   5.340   3.604   6.810 -0.3008 -0.0687  1.3931
   80MOL   H18817726   5.427   3.826   6.884 -1.0478  0.4639  0.5789
   80MOL   C18917727   5.690   4.103   7.286  0.4336 -0.1463  0.0423
   80MOL   C19017728   5.687   4.053   7.155  0.1585  0.9206  0.2562
   80MOL   C19117729   5.618   3.930   7.135  0.0644  0.5086 -0.2845
   80MOL   C19217730   5.528   3.883   7.239 -0.8838 -0.1250  0.9431
   80MOL   C19317731   5.521   3.953   7.358 -0.5168  0.1856 -0.0572
   80MOL   C19417732   5.607   4.053   7.393  0.3400  0.7219 -0.3497
   80MOL   O19517733   5.614   4.089   7.531 -0.4804 -0.5924 -0.2506
   80MOL   H19617734   5.760   4.182   7.311 -0.5874  0.2547  1.7546
   80MOL   H19717735   5.748   4.099   7.079  0.4720 -0.8298 -0.5731
   80MOL   H19817736   5.474   3.791   7.222 -1.2081 -0.0355  1.4610
   80MOL   H19917737   5.458   3.909   7.434 -0.2854 -0.8225 -0.4280
   80MOL   C20017738   5.938   4.174   7.697  0.1799 -0.4433  0.2740
   80MOL   C20117739   5.831   4.097   7.632  0.0373 -0.4642 -0.1884
   80MOL   C20217740   5.723   4.164   7.580 -0.7108 -0.7408 -0.2324
   80MOL   C20317741   5.717   4.308   7.594 -0.4904  0.2230 -0.7355
   80MOL   C20417742   5.821   4.384   7.644 -0.3506  0.5549  0.5495
   80MOL   C20517743   5.932   4.316   7.693 -0.2342  0.9288 -0.2826
   80MOL   O20617744   6.031   4.395   7.746 -0.3433  0.3375 -0.0670
   80MOL   H20717745   6.017   4.124   7.750  3.0008  1.0678 -2.3865
   80MOL   H20817746   5.831   3.990   7.638 -1.2465 -0.3932  1.1173
   80MOL   H20917747   5.627   4.366   7.575  0.3406  1.7709 -0.0073
   80MOL   H21017748   5.817   4.492   7.650  2.9766  0.6619  1.9854
   80MOL   C21117749   6.367   4.306   7.860  0.0690  0.9278 -0.2249
   80MOL   C21217750   6.237   4.360   7.860  0.8849  0.0666 -0.4651
   80MOL   C21317751   6.161   4.354   7.742  0.0471 -0.1194  0.1260
   80MOL   C21417752   6.219   4.309   7.622 -0.5928  0.4064 -0.0106
   80MOL   C21517753   6.347   4.248   7.621  0.3831  0.0772  0.2909
   80MOL   C21617754   6.418   4.254   7.737  0.3865 -0.1810 -0.3383
   80MOL   O21717755   6.548   4.206   7.741  0.3094 -0.5830 -0.2480
   80MOL   H21817756   6.417   4.290   7.954 -1.7853  0.1489  0.6702
   80MOL   H21917757   6.190   4.401   7.948 -1.2057 -0.8352 -1.1351
   80MOL   H22017758   6.152   4.323   7.538 -2.3446 -1.7758  0.9641
   80MOL   H22117759   6.397   4.212   7.532  1.2002  3.4276 -0.6757
   80MOL   H22217760   6.575   4.202   7.651 -0.4270 -0.4907 -0.4781
   81MOL     C117761   6.896   2.263   5.675  0.3212 -0.0309  0.1354
   81MOL     C217762   7.017   2.219   5.736 -0.4858  0.1123  0.6546
   81MOL     C317763   7.085   2.308   5.820 -0.2028 -0.5864 -0.1940
   81MOL     C417764   7.036   2.445   5.844  0.1357  0.1203  0.3478
   81MOL     C517765   6.922   2.482   5.779  0.1827  0.2105 -0.0139
   81MOL     C617766   6.858   2.393   5.696  0.3925 -0.1599  0.6510
   81MOL     O717767   6.739   2.431   5.640 -0.4530 -0.4688  0.3733
   81MOL     H817768   6.841   2.199   5.608  1.3113 -0.1512 -0.5698
   81MOL     H917769   7.048   2.118   5.715 -2.8630 -0.4170 -0.5077
   81MOL    H1017770   7.092   2.514   5.906  0.6167  0.6331 -0.6433
   81MOL    H1117771   6.896   2.586   5.793 -2.3094 -0.2799 -0.7518
   81MOL    H1217772   7.174   2.271   5.870  0.0085  1.8884  1.3360
   81MOL    C1317773   6.445   2.284   5.802 -0.1530  0.0581 -0.2772
   81MOL    C1417774   6.569   2.339   5.787 -0.8448 -0.4640  0.4657
   81MOL    C1517775   6.623   2.363   5.655  0.0541  0.9198  0.3726
   81MOL    C1617776   6.551   2.327   5.538  0.3699 -0.0605 -0.3868
   81MOL    C1717777   6.424   2.265   5.561  0.8496  0.1269 -0.3001
   81MOL    C1817778   6.366   2.246   5.690  0.0695  0.1431  0.6405
   81MOL    O1917779   6.242   2.184   5.704  0.0550  0.0822  0.1431
   81MOL    H2017780   6.399   2.257   5.897  1.8278  0.4552  0.8292
   81MOL    H2117781   6.636   2.367   5.866 -0.4399 -0.8939  0.2739
   81MOL    H2217782   6.598   2.341   5.441 -0.1092 -2.0933 -0.9313
   81MOL    H2317783   6.362   2.236   5.478  1.3368 -0.3855 -0.4844
   81MOL    C2417784   6.022   2.430   5.866 -0.1324 -0.5433 -0.7279
   81MOL    C2517785   6.119   2.377   5.784 -0.1643 -0.0036 -0.1633
   81MOL    C2617786   6.152   2.238   5.792 -0.0371  0.3356 -0.0136
   81MOL    C2717787   6.092   2.157   5.887 -0.3744 -0.3089  0.1122
   81MOL    C2817788   6.005   2.214   5.975 -0.7105  0.1445 -0.2019
   81MOL    C2917789   5.968   2.345   5.968 -0.1221 -0.6955  0.4902
   81MOL    O3017790   5.884   2.389   6.063  0.3389  0.0249  0.6036
   81MOL    H3117791   6.000   2.536   5.856 -0.5556 -0.8273 -3.0246
   81MOL    H3217792   6.160   2.439   5.705 -1.0080 -0.9506 -1.3600
   81MOL    H3317793   6.120   2.053   5.898  1.6126  0.1746 -0.1599
   81MOL    H3417794   5.982   2.148   6.057  0.7277 -1.0094 -0.7175
   81MOL    C3517795   5.542   2.384   5.925  0.0240  0.4301  0.0469
   81MOL    C3617796   5.674   2.348   5.949 -0.8107  0.2802  0.4945
   81MOL    C3717797   5.762   2.439   6.019  0.0265  0.3403  0.1678
   81MOL    C3817798   5.722   2.562   6.061 -0.1243  0.2890 -0.2820
   81MOL    C3917799   5.591   2.599   6.031  0.3240  0.0273 -0.0971
   81MOL    C4017800   5.499   2.509   5.969  0.4716 -0.1413  0.2249
   81MOL    O4117801   5.371   2.538   5.949 -0.6477  0.0427  0.1355
   81MOL    H4217802   5.474   2.312   5.882  1.3582  0.4948 -2.2533
   81MOL    H4317803   5.691   2.242   5.937 -1.2270  0.1770  0.8131
   81MOL    H4417804   5.791   2.629   6.110  1.6796 -0.5830 -1.5722
   81MOL    H4517805   5.566   2.702   6.050 -0.4645 -0.1274 -0.2557
   81MOL    C4617806   5.264   2.864   5.818 -0.7410 -0.1491 -0.1693
   81MOL    C4717807   5.310   2.763   5.905  0.9481  0.6621 -0.4585
   81MOL    C4817808   5.341   2.638   5.859 -0.5923  0.3253  1.1608
   81MOL    C4917809   5.327   2.608   5.720 -0.3761 -0.4020 -0.2500
   81MOL    C5017810   5.275   2.705   5.633  0.2925 -0.1288  0.2020
   81MOL    C5117811   5.231   2.830   5.685  0.0328  0.0498 -0.6183
   81MOL    O5217812   5.176   2.928   5.602 -0.3102  0.0650 -0.2888
   81MOL    H5317813   5.246   2.963   5.857  1.2959 -0.4590  1.6448
   81MOL    H5417814   5.333   2.794   6.006  0.7062 -0.2906 -0.0956
   81MOL    H5517815   5.351   2.509   5.685  0.2657 -1.1439  2.1881
   81MOL    H5617816   5.258   2.673   5.532  0.1320 -1.1729  0.5441
   81MOL    C5717817   4.846   2.789   5.491  0.2172  0.3914 -0.7295
   81MOL    C5817818   4.954   2.827   5.569  0.2541 -0.9346 -0.1377
   81MOL    C5917819   5.073   2.892   5.514 -0.4574  0.1950 -0.3413
   81MOL    C6017820   5.076   2.928   5.379 -0.2105 -0.1696  0.0962
   81MOL    C6117821   4.966   2.888   5.304 -0.2880  0.4815  0.1367
   81MOL    C6217822   4.857   2.814   5.352 -0.2985  0.0397  0.0384
   81MOL    O6317823   4.767   2.756   5.267 -0.0942 -0.7881  0.3085
   81MOL    H6417824   4.765   2.741   5.545  0.2843 -2.4703 -3.0294
   81MOL    H6517825   4.941   2.803   5.673  1.1937 -1.8829 -0.2191
   81MOL    H6617826   5.167   2.967   5.336 -0.3609 -2.6812 -2.6194
   81MOL    H6717827   4.965   2.919   5.200  0.5282 -3.5900 -1.1512
   81MOL    C6817828   4.465   2.971   5.259  0.2813  0.6575 -0.3395
   81MOL    C6917829   4.605   2.935   5.256  0.9776 -0.3401 -0.7933
   81MOL    C7017830   4.640   2.797   5.275  0.7913 -0.3648  0.0040
   81MOL    C7117831   4.538   2.701   5.288  0.4094 -0.0358  0.3523
   81MOL    C7217832   4.401   2.740   5.297  0.1662 -0.1623 -0.4515
   81MOL    C7317833   4.367   2.875   5.290 -0.3710 -0.0019 -0.4378
   81MOL    O7417834   4.234   2.911   5.302  0.2479 -0.4098  0.1153
   81MOL    H7517835   4.441   3.075   5.241 -0.5305  0.8649  1.7789
   81MOL    H7617836   4.688   3.002   5.238  0.9395 -0.1836 -0.3943
   81MOL    H7717837   4.561   2.597   5.304  0.9985  0.3200  1.9313
   81MOL    H7817838   4.326   2.663   5.306  0.1991 -0.1371  0.0229
   81MOL    C7917839   4.056   3.205   5.425  0.2686 -0.2631  1.0113
   81MOL    C8017840   4.107   3.104   5.336  0.7596 -0.2321 -0.7174
   81MOL    C8117841   4.189   3.003   5.387  0.8543  0.4933  0.1595
   81MOL    C8217842   4.231   3.016   5.523  0.4648 -0.2779  0.5255
   81MOL    C8317843   4.177   3.112   5.610  0.4750 -0.4907  0.1088
   81MOL    C8417844   4.090   3.205   5.557 -0.1247 -0.3156 -0.2318
   81MOL    O8517845   4.039   3.302   5.643 -0.2881 -0.4370  0.5790
   81MOL    H8617846   3.988   3.276   5.380  1.1484  1.4318  2.2796
   81MOL    H8717847   4.056   3.092   5.242  1.7049 -1.0161 -1.1342
   81MOL    H8817848   4.303   2.944   5.561  0.8926  0.9348  2.0917
   81MOL    H8917849   4.203   3.117   5.715  0.2543 -2.0706  0.2604
   81MOL    C9017850   3.914   3.615   5.486  0.1662  0.9098 -0.2490
   81MOL    C9117851   3.917   3.490   5.541  0.2472  0.4342 -0.2824
   81MOL    C9217852   4.032   3.432   5.593 -0.2855 -0.0853  0.4162
   81MOL    C9317853   4.152   3.507   5.597  0.0762 -0.5490 -0.7887
   81MOL    C9417854   4.146   3.640   5.539  0.2856 -0.3158 -0.2411
   81MOL    C9517855   4.036   3.692   5.475  0.6288 -0.4675  0.3520
   81MOL    O9617856   4.036   3.814   5.419  0.0490 -0.5494 -0.3830
   81MOL    H9717857   3.823   3.651   5.440 -0.0681 -0.1214 -0.6001
   81MOL    H9817858   3.832   3.427   5.559  0.4401 -0.0322 -0.9816
   81MOL    H9917859   4.245   3.472   5.640  0.2141  0.4689 -0.2360
   81MOL   H10017860   4.240   3.693   5.539 -0.3067  0.7592 -1.2486
   81MOL   C10117861   3.984   4.068   5.697 -0.2252  0.6682  0.3097
   81MOL   C10217862   4.023   3.946   5.634 -0.0357  0.4352 -1.0251
   81MOL   C10317863   3.996   3.925   5.495  0.0551  0.3429  0.1645
   81MOL   C10417864   3.919   4.020   5.427 -0.7438 -0.1301 -0.9318
   81MOL   C10517865   3.872   4.137   5.489 -0.2582 -0.3607  0.6571
   81MOL   C10617866   3.907   4.162   5.625 -0.3835  0.3769 -0.2794
   81MOL   O10717867   3.880   4.286   5.685  0.1158 -0.2712 -0.3767
   81MOL   H10817868   4.006   4.080   5.802  0.5251 -0.4639  0.2930
   81MOL   H10917869   4.075   3.868   5.688 -2.0150 -0.5847 -0.5525
   81MOL   H11017870   3.894   4.021   5.322 -3.0566 -0.7307 -0.4334
   81MOL   H11117871   3.815   4.209   5.433 -1.8863  0.0203  2.7123
   81MOL   C11217872   3.936   4.637   5.561 -0.3552 -0.5133  0.0792
   81MOL   C11317873   3.874   4.516   5.603 -0.0597  0.5183 -0.4110
   81MOL   C11417874   3.946   4.401   5.641 -0.5816  0.4097 -0.3495
   81MOL   C11517875   4.086   4.411   5.636 -0.0706 -0.1161 -0.5619
   81MOL   C11617876   4.152   4.528   5.601 -0.0908  0.3568  0.7779
   81MOL   C11717877   4.078   4.641   5.558 -0.8960 -0.1050  0.4015
   81MOL   O11817878   4.137   4.757   5.521  0.2345  0.1094 -0.0965
   81MOL   H11917879   3.871   4.717   5.529  1.0907  0.4810 -0.4385
   81MOL   H12017880   3.767   4.504   5.596 -0.1815  0.0314  1.8437
   81MOL   H12117881   4.146   4.328   5.670 -0.8367 -1.1244 -1.6434
   81MOL   H12217882   4.260   4.527   5.594 -0.1493 -1.5724 -0.2875
   81MOL   C12317883   4.172   5.094   5.655  0.1622  0.7473 -0.1188
   81MOL   C12417884   4.150   4.992   5.562 -0.5466  0.6559 -0.5735
   81MOL   C12517885   4.158   4.860   5.610 -0.2834 -0.0475 -0.1384
   81MOL   C12617886   4.193   4.825   5.744 -0.0595  0.6159 -0.5171
   81MOL   C12717887   4.212   4.934   5.833  0.0118  0.3544  0.1140
   81MOL   C12817888   4.202   5.068   5.792  0.7505  0.5194 -0.0860
   81MOL   O12917889   4.239   5.181   5.868 -0.4168 -0.4904 -0.0559
   81MOL   H13017890   4.175   5.198   5.627  3.0882  0.3184 -1.5489
   81MOL   H13117891   4.130   5.003   5.456 -0.6104 -2.0778 -0.8977
   81MOL   H13217892   4.206   4.724   5.780 -0.4655  0.6226 -0.3421
   81MOL   H13317893   4.243   4.911   5.934 -1.0698 -1.1484  0.1225
   81MOL   C13417894   4.175   5.244   6.238  0.2988 -0.2995  0.1437
   81MOL   C13517895   4.245   5.216   6.117  0.3620  0.5622 -0.0616
   81MOL   C13617896   4.175   5.204   5.990  1.0579 -0.1794 -0.1200
   81MOL   C13717897   4.034   5.207   5.993 -0.2356 -0.5284 -0.0999
   81MOL   C13817898   3.966   5.241   6.113  0.7990 -0.4359  0.4358
   81MOL   C13917899   4.035   5.256   6.233  0.4453  0.2544 -0.0762
   81MOL   O14017900   3.967   5.285   6.349  0.3952 -0.7344 -0.2172
   81MOL   H14117901   4.237   5.270   6.323  0.6632  0.1923 -0.2724
   81MOL   H14217902   4.351   5.196   6.116  0.5657  1.6363 -1.3411
   81MOL   H14317903   3.974   5.196   5.904 -0.2258 -1.3343 -0.0091
   81MOL   H14417904   3.859   5.255   6.113  0.9905  1.2255 -0.4425
   81MOL   C14517905   3.761   5.565   6.472  0.2853 -0.3305 -0.3488
   81MOL   C14617906   3.807   5.431   6.443 -0.2169 -0.0131 -0.4172
   81MOL   C14717907   3.933   5.412   6.377  0.7244 -0.3234 -0.0615
   81MOL   C14817908   4.011   5.526   6.339 -0.1432  0.6142 -1.0080
   81MOL   C14917909   3.959   5.658   6.367 -0.0198  0.0925  0.5391
   81MOL   C15017910   3.836   5.683   6.432  0.0442 -0.5632 -0.6327
   81MOL   O15117911   3.795   5.815   6.467 -0.3875  0.7102  0.4275
   81MOL   H15217912   3.681   5.572   6.545  0.5241 -1.7718  0.0787
   81MOL   H15317913   3.740   5.354   6.475  1.5987 -1.1139  0.8329
   81MOL   H15417914   4.106   5.521   6.288  0.5635  2.1639  0.1287
   81MOL   H15517915   4.012   5.746   6.336  0.3370  0.0002  0.8795
   81MOL   C15617916   3.487   5.963   6.319 -0.0122  0.2178  0.2124
   81MOL   C15717917   3.574   5.886   6.404 -0.6345 -0.0604 -0.5214
   81MOL   C15817918   3.713   5.882   6.384 -0.1672  1.1055 -0.0231
   81MOL   C15917919   3.765   5.950   6.272 -0.6004 -0.1964  0.6825
   81MOL   C16017920   3.683   6.027   6.187  0.0450 -0.0019  0.6692
   81MOL   C16117921   3.546   6.031   6.212 -0.2861  0.0614  0.4171
   81MOL   O16217922   3.469   6.108   6.133 -0.0365  0.6150  0.3925
   81MOL   H16317923   3.381   5.978   6.334  0.4315  2.0839  1.5925
   81MOL   H16417924   3.530   5.828   6.484  1.3001  3.4635  3.3414
   81MOL   H16517925   3.869   5.946   6.243 -1.2908 -0.2473 -2.0024
   81MOL   H16617926   3.733   6.066   6.099  0.5183 -0.6594  0.6461
   81MOL   C16717927   3.300   5.915   5.873  0.1837  0.0332 -0.0340
   81MOL   C16817928   3.327   5.980   5.997 -0.3009 -0.2195 -0.1990
   81MOL   C16917929   3.440   6.057   6.013  0.1183 -1.1310  0.7806
   81MOL   C17017930   3.521   6.083   5.901 -0.3421 -0.2419 -0.1297
   81MOL   C17117931   3.492   6.023   5.777 -0.0628  0.2978 -0.0958
   81MOL   C17217932   3.387   5.926   5.767  0.6878 -0.1237 -0.3252
   81MOL   O17317933   3.367   5.864   5.649  0.6635 -0.0370 -0.3015
   81MOL   H17417934   3.212   5.854   5.855  0.1792 -0.2581  0.9139
   81MOL   H17517935   3.264   5.958   6.082 -0.1941 -2.7864 -0.7325
   81MOL   H17617936   3.600   6.155   5.913  0.2946 -0.6081 -1.9901
   81MOL   H17717937   3.553   6.032   5.688  0.8221 -0.1469  0.4557
   81MOL   C17817938   3.062   5.978   5.475 -0.2867  0.5743 -0.3719
   81MOL   C17917939   3.145   5.902   5.565  0.6167  0.1711 -0.8339
   81MOL   C18017940   3.279   5.928   5.566  0.0438  0.1332  0.1083
   81MOL   C18117941   3.336   6.021   5.476  1.2242 -0.5185  0.5935
   81MOL   C18217942   3.251   6.094   5.387 -0.3492 -0.5525 -0.5357
   81MOL   C18317943   3.109   6.077   5.390  0.6094 -0.4778 -0.4344
   81MOL   O18417944   3.028   6.143   5.303  0.1614  0.3700  0.6311
   81MOL   H18517945   2.957   5.954   5.479  0.3388 -2.2064  0.0825
   81MOL   H18617946   3.102   5.817   5.618  0.8263  0.1948 -0.6246
   81MOL   H18717947   3.443   6.040   5.475  1.3111 -0.9778 -0.7809
   81MOL   H18817948   3.298   6.163   5.319 -1.9989  0.0486 -1.1020
   81MOL   C18917949   2.816   5.952   5.065  0.7375 -0.7551 -0.1684
   81MOL   C19017950   2.869   6.006   5.184 -1.1434  0.0915 -0.7132
   81MOL   C19117951   2.990   6.074   5.191  0.4245 -0.6654  0.2148
   81MOL   C19217952   3.068   6.086   5.075  0.6944 -0.5366 -0.1203
   81MOL   C19317953   3.019   6.034   4.952  0.4872  0.3218  0.2105
   81MOL   C19417954   2.899   5.956   4.951 -0.2211  0.6475  0.6008
   81MOL   O19517955   2.849   5.906   4.829  0.2733  0.0609  0.2816
   81MOL   H19617956   2.724   5.895   5.061  0.5177 -0.5508  1.4607
   81MOL   H19717957   2.814   5.993   5.276  1.4337 -0.5510  0.7863
   81MOL   H19817958   3.155   6.151   5.078 -1.7083  2.8364  0.0589
   81MOL   H19917959   3.083   6.046   4.866 -0.6771  0.0732 -0.7061
   81MOL   C20017960   3.092   5.764   4.587 -0.2748  0.0691 -0.6554
   81MOL   C20117961   3.020   5.852   4.667 -0.0363 -0.1775 -0.4222
   81MOL   C20217962   2.930   5.809   4.769  0.1538 -0.3621  0.5199
   81MOL   C20317963   2.930   5.675   4.806  0.2827  0.3139  1.1877
   81MOL   C20417964   3.000   5.579   4.727 -0.5954  0.9754  0.1012
   81MOL   C20517965   3.085   5.624   4.618  0.2657  0.4576  1.0461
   81MOL   O20617966   3.159   5.531   4.547 -0.2822  0.3347 -0.3658
   81MOL   H20717967   3.152   5.800   4.505  1.5324 -0.2860  0.4961
   81MOL   H20817968   3.024   5.953   4.630  3.4911 -0.5282 -1.1675
   81MOL   H20917969   2.871   5.653   4.894  0.4171  3.3874  2.0807
   81MOL   H21017970   2.991   5.472   4.736  0.1182  0.8588 -0.5444
   81MOL   C21117971   3.525   5.558   4.458 -0.3177 -0.6824 -0.4140
   81MOL   C21217972   3.383   5.543   4.453 -0.0553 -0.3513  0.4366
   81MOL   C21317973   3.297   5.533   4.564  0.3723  0.0234 -0.1524
   81MOL   C21417974   3.363   5.527   4.694  0.1620  0.3685  0.2309
   81MOL   C21517975   3.504   5.536   4.706  0.0511  0.1668 -0.6599
   81MOL   C21617976   3.587   5.554   4.589 -0.5463  0.0764 -0.0300
   81MOL   O21717977   3.724   5.554   4.602  0.8365 -0.4633 -0.3023
   81MOL   H21817978   3.580   5.564   4.366 -1.0725  1.5406 -0.7488
   81MOL   H21917979   3.335   5.541   4.356  1.3484  0.0499 -0.2735
   81MOL   H22017980   3.310   5.531   4.788  1.9885 -1.4155  1.3793
   81MOL   H22117981   3.554   5.523   4.801  0.8441 -2.1804 -1.3691
   81MOL   H22217982   3.742   5.544   4.694 -1.9386  0.1082  0.3410
   82MOL     C117983   2.360   2.589   2.844  0.0038 -0.2694  1.0038
   82MOL     C217984   2.400   2.692   2.758 -0.2026 -0.1873 -0.6251
   82MOL     C317985   2.457   2.812   2.815 -0.4409 -0.5577  0.2633
   82MOL     C417986   2.478   2.816   2.958 -0.1596 -0.0639  0.4362
   82MOL     C517987   2.446   2.711   3.037  0.2331  0.1697 -0.1776
   82MOL     C617988   2.392   2.596   2.983  0.3042  0.2218  0.6568
   82MOL     O717989   2.381   2.496   3.070 -0.3548  0.0479 -0.3098
   82MOL     H817990   2.329   2.495   2.801 -0.4367  1.1540 -1.8789
   82MOL     H917991   2.382   2.689   2.651 -0.5031  2.2838 -0.6598
   82MOL    H1017992   2.533   2.896   3.004 -2.1745  1.5314  0.1515
   82MOL    H1117993   2.460   2.727   3.143  0.3919  2.3421 -0.4997
   82MOL    H1217994   2.484   2.894   2.750  1.4668 -2.9685 -2.0991
   82MOL    C1317995   2.061   2.299   3.068  0.2545  0.8060  0.3620
   82MOL    C1417996   2.146   2.408   3.077 -0.0479  0.5028  0.0826
   82MOL    C1517997   2.291   2.399   3.050  0.7547 -0.2792  0.5513
   82MOL    C1617998   2.332   2.272   2.992 -0.1705 -0.5413 -0.3557
   82MOL    C1717999   2.244   2.164   2.985  0.8161 -0.5836 -0.6484
   82MOL    C1818000   2.116   2.177   3.028 -0.4148  0.1719  0.4866
   82MOL    O1918001   2.041   2.061   3.011 -0.0343 -0.1230  0.5597
   82MOL    H2018002   1.955   2.304   3.084  0.2241 -2.1344  1.4638
   82MOL    H2118003   2.089   2.490   3.119  0.0051  0.3942  0.3706
   82MOL    H2218004   2.434   2.256   2.960 -0.3243 -0.9281 -0.6567
   82MOL    H2318005   2.287   2.072   2.947  0.6908 -0.8145 -0.2385
   82MOL    C2418006   1.760   2.003   3.242 -0.0042  0.3792  0.0798
   82MOL    C2518007   1.834   2.055   3.136 -0.2941 -0.1804 -0.1537
   82MOL    C2618008   1.961   2.004   3.107 -0.1897 -0.4928  0.4888
   82MOL    C2718009   2.005   1.889   3.179 -0.1363  0.2801 -0.3502
   82MOL    C2818010   1.925   1.831   3.282 -0.4532  0.0470  0.1952
   82MOL    C2918011   1.807   1.893   3.321 -0.0280  0.5571  0.5105
   82MOL    O3018012   1.738   1.838   3.421  0.5675  0.0281  0.3355
   82MOL    H3118013   1.663   2.046   3.262 -0.7687 -0.8911 -0.8139
   82MOL    H3218014   1.793   2.139   3.082  2.4969  0.3177 -1.6107
   82MOL    H3318015   2.092   1.833   3.150  1.1609  2.3545 -0.5401
   82MOL    H3418016   1.950   1.742   3.338 -1.0247  0.8710  1.7861
   82MOL    C3518017   1.391   1.730   3.474  0.6917  0.1581  0.0726
   82MOL    C3618018   1.515   1.797   3.486  0.3546  0.0688  0.4693
   82MOL    C3718019   1.615   1.776   3.396  0.3204  0.2456  0.3525
   82MOL    C3818020   1.592   1.690   3.284  0.3602 -0.4083 -0.2348
   82MOL    C3918021   1.471   1.621   3.275  0.3872 -0.0806  0.3309
   82MOL    C4018022   1.365   1.641   3.366  0.5899  0.4014  0.0296
   82MOL    O4118023   1.248   1.570   3.366  0.5293 -0.0157 -0.3386
   82MOL    H4218024   1.309   1.751   3.540  0.8183  0.7513  0.0512
   82MOL    H4318025   1.521   1.858   3.575 -0.4145 -0.9122  1.1988
   82MOL    H4418026   1.676   1.661   3.222  1.4502  0.7332  0.6766
   82MOL    H4518027   1.470   1.548   3.195  0.5642  0.1974  0.0744
   82MOL    C4618028   1.027   1.554   3.078  0.2726  1.1036  0.0634
   82MOL    C4718029   1.142   1.533   3.158 -0.7224  0.0240  0.4501
   82MOL    C4818030   1.149   1.597   3.277 -0.7035  0.0290  0.1743
   82MOL    C4918031   1.043   1.688   3.317 -0.4043 -0.2900 -0.5343
   82MOL    C5018032   0.928   1.708   3.236  0.4378  0.2623 -0.2441
   82MOL    C5118033   0.918   1.639   3.114 -0.5691  0.3934  0.5060
   82MOL    O5218034   0.811   1.648   3.028 -0.6182  0.5290  0.2681
   82MOL    H5318035   1.022   1.501   2.984  0.6014  1.7667 -0.3360
   82MOL    H5418036   1.222   1.471   3.121 -0.4874  0.5316  0.1036
   82MOL    H5518037   1.045   1.746   3.408 -1.8529 -1.2255  0.1216
   82MOL    H5618038   0.854   1.781   3.267  0.1670 -0.3744  0.6155
   82MOL    C5718039   0.490   1.764   3.168  0.2808 -0.6228  0.7613
   82MOL    C5818040   0.618   1.767   3.111  0.0289  0.2616  0.4558
   82MOL    C5918041   0.689   1.648   3.084  0.2482  0.4600  0.4050
   82MOL    C6018042   0.624   1.527   3.122  0.5153  0.1635 -0.0398
   82MOL    C6118043   0.491   1.527   3.175 -1.6139  0.1355 -0.0219
   82MOL    C6218044   0.423   1.647   3.202  0.3436  0.2110  0.8879
   82MOL    O6318045   0.291   1.638   3.248 -0.7138 -0.0705  0.7327
   82MOL    H6418046   0.432   1.852   3.194  0.5092  0.8089 -3.2069
   82MOL    H6518047   0.661   1.865   3.098 -0.4411  0.4033 -0.0667
   82MOL    H6618048   0.686   1.440   3.120  0.4737  0.0923  1.2111
   82MOL    H6718049   0.436   1.435   3.183 -3.0784  0.9154 -0.7546
   82MOL    C6818050   0.037   1.792   3.027  0.2903  0.0027  0.0224
   82MOL    C6918051   0.116   1.765   3.139  0.0979 -0.7866  0.1065
   82MOL    C7018052   0.200   1.653   3.145 -0.6023 -0.1460 -0.1718
   82MOL    C7118053   0.192   1.559   3.039 -0.0237  0.6617 -0.4249
   82MOL    C7218054   0.112   1.586   2.926 -0.3894  0.2023 -0.0340
   82MOL    C7318055   0.027   1.702   2.917 -0.1023  0.4457  0.2575
   82MOL    O7418056   8.198   1.731   2.810 -0.3004 -0.0807  0.0278
   82MOL    H7518057   8.230   1.881   3.024 -0.0217 -0.1577  1.4523
   82MOL    H7618058   0.106   1.828   3.226  0.6545 -1.7355  0.8734
   82MOL    H7718059   0.246   1.467   3.051 -1.2255 -0.2183 -1.5590
   82MOL    H7818060   0.108   1.508   2.851 -0.2320 -0.7980  0.9971
   82MOL    C7918061   8.252   1.527   2.512 -1.0808  0.2117  0.0685
   82MOL    C8018062   8.232   1.566   2.644 -0.1470 -0.0076 -0.3789
   82MOL    C8118063   8.234   1.705   2.680  0.1297  0.6370  0.7392
   82MOL    C8218064   8.238   1.794   2.575 -0.5449  0.3039 -0.6101
   82MOL    C8318065   8.244   1.761   2.435 -0.5661  0.1936 -0.6752
   82MOL    C8418066   0.003   1.624   2.409 -0.8615 -0.0870  1.1256
   82MOL    O8518067   0.006   1.587   2.277  0.1686  0.0756  0.3083
   82MOL    H8618068   8.243   1.422   2.488 -0.6001 -0.5029  2.8285
   82MOL    H8718069   8.212   1.494   2.722  2.5446  2.0471  2.3414
   82MOL    H8818070   8.233   1.900   2.598  2.5337  0.4049 -0.2784
   82MOL    H8918071   8.240   1.835   2.357  1.4179  0.7672 -0.2546
   82MOL    C9018072   0.198   1.302   2.158 -0.3969 -0.4821  0.1658
   82MOL    C9118073   0.096   1.378   2.218  0.4457  0.1318 -0.6597
   82MOL    C9218074   0.114   1.516   2.235 -0.2939  0.5920  0.3279
   82MOL    C9318075   0.231   1.580   2.196  0.7842 -0.1313 -0.0016
   82MOL    C9418076   0.334   1.507   2.135  0.1746 -0.1658 -0.1116
   82MOL    C9518077   0.322   1.369   2.115  0.3575 -0.1744  0.1414
   82MOL    O9618078   0.430   1.299   2.065 -0.1581  0.6454 -1.0081
   82MOL    H9718079   0.195   1.195   2.151 -3.1478 -0.4401  0.3135
   82MOL    H9818080   0.008   1.324   2.251  2.8991 -2.8671  1.2537
   82MOL    H9918081   0.229   1.687   2.203 -1.0368  0.0060 -2.2056
   82MOL   H10018082   0.424   1.556   2.101 -0.1230  2.2953  2.4049
   82MOL   C10118083   0.452   1.350   1.700  0.2512 -0.4453 -0.2503
   82MOL   C10218084   0.392   1.322   1.825  0.2293 -0.1977 -0.6342
   82MOL   C10318085   0.476   1.329   1.936 -0.1398  0.2333  0.1124
   82MOL   C10418086   0.612   1.370   1.926  0.7064 -0.2356  0.0409
   82MOL   C10518087   0.665   1.402   1.802 -0.1368  0.0865  0.6433
   82MOL   C10618088   0.586   1.404   1.687 -0.4228  0.3758 -0.1036
   82MOL   O10718089   0.634   1.448   1.561  0.2048  0.1767  0.4803
   82MOL   H10818090   0.395   1.351   1.608  0.3726  1.9423 -0.3164
   82MOL   H10918091   0.285   1.306   1.833  0.1472  0.3875 -0.5278
   82MOL   H11018092   0.680   1.361   2.010  0.8001 -1.1362 -0.1354
   82MOL   H11118093   0.768   1.431   1.786  0.4735 -2.0949  0.4910
   82MOL   C11218094   0.498   1.322   1.233  0.0296  0.2066  0.4708
   82MOL   C11318095   0.516   1.401   1.348 -0.5788 -0.8543 -0.6921
   82MOL   C11418096   0.605   1.363   1.455 -0.1672  0.0836  0.7286
   82MOL   C11518097   0.666   1.235   1.448 -1.3257 -0.0744 -0.1993
   82MOL   C11618098   0.631   1.142   1.349 -0.0223  0.4561  0.7840
   82MOL   C11718099   0.544   1.189   1.245  0.7098  0.0594 -0.8936
   82MOL   O11818100   0.514   1.100   1.151 -0.0507  0.5449  0.5502
   82MOL   H11918101   0.444   1.345   1.143  1.4783  0.5473 -0.3261
   82MOL   H12018102   0.464   1.496   1.346 -0.0882 -0.5823 -0.6926
   82MOL   H12118103   0.747   1.200   1.511 -2.4242 -0.6733  0.9123
   82MOL   H12218104   0.672   1.043   1.344  1.2619  1.0662 -1.5318
   82MOL   C12318105   0.746   0.869   1.002  0.1054 -0.7276 -0.5766
   82MOL   C12418106   0.654   0.920   1.096 -0.0337 -0.3376  1.2373
   82MOL   C12518107   0.616   1.056   1.070  0.0210 -0.2333  0.1641
   82MOL   C12618108   0.669   1.136   0.971  0.0872 -1.1008 -0.5147
   82MOL   C12718109   0.764   1.079   0.886  0.3636 -0.3255  0.2540
   82MOL   C12818110   0.803   0.947   0.899 -0.4821 -0.7227 -0.2664
   82MOL   O12918111   0.886   0.885   0.807 -0.0302  0.0740 -0.4043
   82MOL   H13018112   0.778   0.767   1.013  1.1296 -0.3320  0.1578
   82MOL   H13118113   0.604   0.876   1.181 -1.0696  0.3426  0.9874
   82MOL   H13218114   0.631   1.237   0.969 -1.2093 -1.5686 -0.1202
   82MOL   H13318115   0.809   1.133   0.803 -0.4842 -0.7667 -0.5051
   82MOL   C13418116   1.238   0.878   0.728 -0.9884 -0.4836  0.3490
   82MOL   C13518117   1.101   0.862   0.714 -0.5438  0.6776 -0.0329
   82MOL   C13618118   1.022   0.904   0.822 -0.3486  0.2437  0.1416
   82MOL   C13718119   1.079   0.952   0.942  0.0988 -0.4956 -0.0306
   82MOL   C13818120   1.222   0.953   0.954 -0.2317  0.2062 -0.4080
   82MOL   C13918121   1.307   0.920   0.847  0.2912 -0.5475 -0.6668
   82MOL   O14018122   1.442   0.929   0.852  0.6821  0.4518  0.2598
   82MOL   H14118123   1.305   0.855   0.646 -0.5774 -0.8637  0.7845
   82MOL   H14218124   1.065   0.824   0.619 -0.8259 -1.1248  0.7705
   82MOL   H14318125   1.017   0.993   1.020 -0.2957  0.0793 -0.6385
   82MOL   H14418126   1.272   0.986   1.043 -1.6198 -0.8209  0.7807
   82MOL   C14518127   1.529   0.602   1.008 -0.1717 -0.0145 -0.4469
   82MOL   C14618128   1.465   0.693   0.923  0.3482 -0.3301 -0.8411
   82MOL   C14718129   1.508   0.831   0.924  0.2294  0.0586  0.0752
   82MOL   C14818130   1.622   0.869   0.995 -0.3403 -0.1903  0.3534
   82MOL   C14918131   1.687   0.774   1.076 -0.1690  0.9205 -0.6022
   82MOL   C15018132   1.640   0.646   1.086  0.3383 -0.2346 -0.4700
   82MOL   O15118133   1.706   0.562   1.172 -0.8735 -0.1257 -0.4546
   82MOL   H15218134   1.500   0.498   1.005 -0.6054  0.0493  1.4487
   82MOL   H15318135   1.389   0.650   0.860  0.9160 -1.4035 -0.8193
   82MOL   H15418136   1.671   0.964   0.980  2.2455 -1.1182  2.7433
   82MOL   H15518137   1.774   0.810   1.128 -0.1188  0.6864 -0.5240
   82MOL   C15618138   1.498   0.307   1.335  0.9336 -0.1743  0.0014
   82MOL   C15718139   1.548   0.430   1.296 -0.7105  0.4188  0.3621
   82MOL   C15818140   1.660   0.439   1.203  0.5866  0.2785  0.2773
   82MOL   C15918141   1.708   0.318   1.149 -0.1749 -0.0972 -0.0274
   82MOL   C16018142   1.650   0.189   1.192 -0.2512 -0.2156 -0.0922
   82MOL   C16118143   1.547   0.183   1.288  0.3793 -0.2861  0.3754
   82MOL   O16218144   1.498   0.063   1.325 -0.2861 -0.3100  0.3212
   82MOL   H16318145   1.412   0.315   1.401 -0.5606 -0.0842 -1.9137
   82MOL   H16418146   1.513   0.523   1.340 -2.0235  0.5385 -0.8969
   82MOL   H16518147   1.789   0.319   1.077 -0.3629  1.0809 -0.2402
   82MOL   H16618148   1.671   0.098   1.139 -0.7787  0.1514 -0.9511
   82MOL   C16718149   1.566   8.217   1.666  0.5399 -0.0596  0.1347
   82MOL   C16818150   1.505   0.017   1.552  0.1153 -0.5505  0.3103
   82MOL   C16918151   1.563   0.006   1.429  0.2498  0.0600 -0.3489
   82MOL   C17018152   1.692   8.199   1.422 -0.3939 -0.0695 -0.1416
   82MOL   C17118153   1.757   8.138   1.534  1.2023 -0.0670  0.1400
   82MOL   C17218154   1.688   8.154   1.659 -0.2810 -0.3657 -0.1506
   82MOL   O17318155   1.734   8.095   1.776  0.3379  0.3671  0.5235
   82MOL   H17418156   1.513   8.217   1.761 -1.2753 -1.8500 -0.8352
   82MOL   H17518157   1.404   0.054   1.564  0.2963  0.6434 -1.6448
   82MOL   H17618158   1.746   8.209   1.329  0.5344 -1.4849  0.2263
   82MOL   H17718159   1.855   8.096   1.525  1.2396  0.0487  0.0030
   82MOL   C17818160   1.601   7.747   1.750 -0.5675  1.1044  0.5682
   82MOL   C17918161   1.603   7.891   1.742  0.2079  0.2580  0.3701
   82MOL   C18018162   1.726   7.958   1.779  0.3875 -0.1501 -0.1573
   82MOL   C18118163   1.834   7.886   1.832 -0.1846  0.3146  0.2155
   82MOL   C18218164   1.835   7.746   1.850  0.2830 -0.5781 -0.8076
   82MOL   C18318165   1.719   7.680   1.800  0.2358 -0.3921  0.0493
   82MOL   O18418166   1.707   7.539   1.810 -0.5738 -0.1991 -0.0357
   82MOL   H18518167   1.518   7.685   1.721  0.3834 -0.1723  0.5238
   82MOL   H18618168   1.516   7.941   1.701  1.0251  1.3409 -0.0380
   82MOL   H18718169   1.923   7.940   1.859  0.3536 -0.0040 -0.9163
   82MOL   H18818170   1.917   7.691   1.894  1.1259  1.1838 -0.1690
   82MOL   C18918171   1.592   7.478   2.154 -0.0926  0.1556  0.0893
   82MOL   C19018172   1.666   7.528   2.044 -0.3742 -0.3919  0.1819
   82MOL   C19118173   1.634   7.488   1.914  0.3579 -0.1566 -0.0008
   82MOL   C19218174   1.534   7.388   1.892  1.3517 -0.1827  0.2426
   82MOL   C19318175   1.465   7.339   2.009 -0.2495  0.3099  0.0339
   82MOL   C19418176   1.487   7.388   2.138 -0.4052  0.5503  0.8179
   82MOL   O19518177   1.409   7.336   2.237  0.3350  0.9632  0.1952
   82MOL   H19618178   1.610   7.522   2.251 -5.1145 -0.5339  1.4749
   82MOL   H19718179   1.760   7.582   2.054 -0.9111  0.2887  1.8327
   82MOL   H19818180   1.508   7.372   1.788 -1.5573 -0.8722  1.0391
   82MOL   H19918181   1.384   7.269   1.994 -1.1562  0.6472  3.0410
   82MOL   C20018182   1.189   7.572   2.417 -0.3173 -0.0100 -0.6637
   82MOL   C20118183   1.252   7.505   2.311 -0.3098 -0.5967 -0.3070
   82MOL   C20218184   1.356   7.416   2.333  0.2214  0.5417 -0.3461
   82MOL   C20318185   1.406   7.397   2.462 -0.0247 -0.6717 -0.4567
   82MOL   C20418186   1.350   7.462   2.570 -0.1756  0.1729 -0.7362
   82MOL   C20518187   1.237   7.552   2.550  0.1944  0.0349 -0.1090
   82MOL   O20618188   1.161   7.604   2.648 -0.5246  0.2031  0.0825
   82MOL   H20718189   1.098   7.628   2.401 -0.6510 -1.2449 -3.3968
   82MOL   H20818190   1.221   7.514   2.208  0.6202 -2.8526 -0.8236
   82MOL   H20918191   1.480   7.322   2.484  1.9819  1.5101  0.5150
   82MOL   H21018192   1.380   7.444   2.672 -2.4583  0.4563  0.0252
   82MOL   C21118193   1.177   7.490   3.003  0.4633 -0.0365  0.0274
   82MOL   C21218194   1.191   7.574   2.884  0.0631  0.0192  0.0303
   82MOL   C21318195   1.142   7.523   2.761 -0.5373 -0.2077  0.3164
   82MOL   C21418196   1.077   7.400   2.753  0.5366 -0.8053 -0.3933
   82MOL   C21518197   1.060   7.328   2.875  0.7583  0.0020 -0.4266
   82MOL   C21618198   1.108   7.365   2.998 -0.1724 -0.2851  0.4723
   82MOL   O21718199   1.113   7.272   3.099  0.2073 -0.3846 -0.1343
   82MOL   H21818200   1.225   7.519   3.095  2.6158  0.7811 -1.3195
   82MOL   H21918201   1.242   7.669   2.888 -0.7497  0.4292  0.8512
   82MOL   H22018202   1.033   7.366   2.661 -0.0960  0.8417 -0.7056
   82MOL   H22118203   1.008   7.233   2.868  3.1840 -1.2908 -1.7068
   82MOL   H22218204   1.159   7.296   3.178  0.4419  0.9711 -0.6665
   83MOL     C118205   4.918   1.270   6.944  0.4444  0.5688 -0.3341
   83MOL     C218206   5.019   1.313   6.855  0.3363  0.7935  0.1291
   83MOL     C318207   5.151   1.306   6.895 -0.2520  0.4009  0.2127
   83MOL     C418208   5.188   1.260   7.024  0.2643 -0.3700 -0.1391
   83MOL     C518209   5.089   1.212   7.114 -0.3585  0.2463  0.0824
   83MOL     C618210   4.952   1.214   7.073  0.3857 -0.6174 -0.5769
   83MOL     O718211   4.851   1.170   7.156 -0.2993  0.0986  0.6133
   83MOL     H818212   4.815   1.264   6.912 -0.5786 -2.1110  3.1171
   83MOL     H918213   4.997   1.365   6.762 -0.5813  1.6507  0.8166
   83MOL    H1018214   5.292   1.271   7.050  0.1359 -0.8783  0.5935
   83MOL    H1118215   5.116   1.179   7.214 -3.0023 -0.9613  0.4376
   83MOL    H1218216   5.225   1.351   6.831 -0.1666 -0.6344 -0.4205
   83MOL    C1318217   4.858   1.383   7.471 -0.2798  0.5385  0.1356
   83MOL    C1418218   4.896   1.337   7.344 -0.0262 -0.2600 -0.3434
   83MOL    C1518219   4.823   1.227   7.281 -0.5091  0.1460 -0.4539
   83MOL    C1618220   4.724   1.168   7.357  0.0705 -0.2303 -0.1505
   83MOL    C1718221   4.690   1.217   7.487 -0.4166  0.1641  0.3058
   83MOL    C1818222   4.757   1.323   7.545 -0.4985  0.3151  0.0909
   83MOL    O1918223   4.698   1.373   7.661  0.0262  0.5655  0.1581
   83MOL    H2018224   4.900   1.472   7.516 -0.2318  0.6801 -0.1822
   83MOL    H2118225   4.976   1.390   7.296 -0.3221  0.8300  0.3480
   83MOL    H2218226   4.669   1.080   7.325  0.1931 -1.6452  3.2695
   83MOL    H2318227   4.617   1.157   7.541  2.9093 -2.0507  2.5336
   83MOL    C2418228   4.634   1.653   7.877 -0.1200 -0.7970  0.0944
   83MOL    C2518229   4.665   1.528   7.837  0.0944  0.2104  0.0951
   83MOL    C2618230   4.682   1.507   7.695  0.6625 -0.0001  0.0343
   83MOL    C2718231   4.688   1.615   7.609  0.0368 -0.7639  0.3022
   83MOL    C2818232   4.662   1.747   7.653 -0.0926  0.1446 -0.1681
   83MOL    C2918233   4.629   1.766   7.787  0.2088 -0.9155 -0.2220
   83MOL    O3018234   4.595   1.881   7.848 -0.0222 -0.8185  0.5187
   83MOL    H3118235   4.606   1.667   7.981  1.4439  0.0090  0.4197
   83MOL    H3218236   4.649   1.438   7.895  0.9584  0.4856  0.7690
   83MOL    H3318237   4.692   1.591   7.503 -0.3290 -0.9255  0.3231
   83MOL    H3418238   4.670   1.824   7.578 -1.7255  1.2308  0.7356
   83MOL    C3518239   4.726   2.231   7.847  0.3283  0.2055  0.5492
   83MOL    C3618240   4.637   2.123   7.843  1.0562  0.0595  0.1027
   83MOL    C3718241   4.681   1.990   7.850  0.0499  0.3872 -0.0676
   83MOL    C3818242   4.821   1.968   7.859  0.1532 -0.2160  0.6294
   83MOL    C3918243   4.910   2.075   7.867 -0.4601 -0.1549  0.7315
   83MOL    C4018244   4.863   2.205   7.862 -0.3638  0.0089  0.5474
   83MOL    O4118245   4.951   2.314   7.870  0.1617 -0.3170 -0.0870
   83MOL    H4218246   4.701   2.335   7.840 -0.2109 -0.0934 -2.5157
   83MOL    H4318247   4.531   2.144   7.848  0.9587 -0.1304 -1.1265
   83MOL    H4418248   4.857   1.867   7.868  2.1787  0.4695  0.5146
   83MOL    H4518249   5.014   2.048   7.859 -0.3233  0.0595  1.6937
   83MOL    C4618250   5.067   2.566   8.108  0.5135 -0.1056  0.0463
   83MOL    C4718251   5.048   2.496   7.989  0.6943 -0.0196 -0.5359
   83MOL    C4818252   4.974   2.375   7.991  0.4397 -0.4009 -0.3282
   83MOL    C4918253   4.950   2.313   8.119  0.1609  0.0933 -0.1473
   83MOL    C5018254   4.976   2.387   8.238  0.7467  0.2503  0.2348
   83MOL    C5118255   5.032   2.519   8.233 -0.2109 -1.4545  0.5122
   83MOL    O5218256   5.054   2.592   0.093 -0.0424 -0.3517 -0.2724
   83MOL    H5318257   5.111   2.664   8.105 -0.0989  0.1575 -0.6449
   83MOL    H5418258   5.080   2.549   7.900 -0.3563  1.4266 -0.0873
   83MOL    H5518259   4.908   2.214   8.121  0.3781 -0.0706 -2.5487
   83MOL    H5618260   4.959   2.336   0.077  0.6559 -0.9024 -0.4006
   83MOL    C5718261   5.138   2.441   0.419 -0.8330  0.6245 -0.2504
   83MOL    C5818262   5.154   2.492   0.287  0.1395  0.1836 -0.7716
   83MOL    C5918263   5.043   2.541   0.219  0.4254 -0.8898 -0.2144
   83MOL    C6018264   4.916   2.541   0.276  1.0063 -0.3124  0.9014
   83MOL    C6118265   4.898   2.495   0.411  0.4670 -0.3976 -0.0108
   83MOL    C6218266   5.012   2.436   0.481  0.2568  0.6079  0.0525
   83MOL    O6318267   4.992   2.382   0.607  0.1075 -0.1788 -0.1079
   83MOL    H6418268   5.235   2.420   0.463 -0.6712  0.0899 -0.8507
   83MOL    H6518269   5.256   2.496   0.250  1.0378  1.8412  1.7301
   83MOL    H6618270   4.830   2.564   0.215  2.4250 -0.7392 -1.3154
   83MOL    H6718271   4.800   2.494   0.455  0.8324  1.3537  0.8813
   83MOL    C6818272   5.131   2.035   0.584 -0.2376 -0.5879 -0.0436
   83MOL    C6918273   5.057   2.151   0.545  0.1200  0.8599 -0.2664
   83MOL    C7018274   5.062   2.267   0.635 -0.2870  0.4030  0.0809
   83MOL    C7118275   5.135   2.258   0.757  0.9092 -0.2178 -0.4158
   83MOL    C7218276   5.215   2.147   0.787  0.2377  0.1512 -0.2369
   83MOL    C7318277   5.219   2.033   0.697  0.6653  0.1968  0.0350
   83MOL    O7418278   5.292   1.916   0.716 -0.3785 -1.2010  0.0778
   83MOL    H7518279   5.125   1.949   0.519 -1.0630  0.5210 -1.4597
   83MOL    H7618280   5.014   2.144   0.446  0.8828  0.1587 -0.5550
   83MOL    H7718281   5.120   2.344   0.821 -1.0161 -1.5577  0.9943
   83MOL    H7818282   5.281   2.150   0.873  1.5786  0.2737 -1.2627
   83MOL    C7918283   5.252   1.802   1.059  0.0983  0.0913 -0.6818
   83MOL    C8018284   5.218   1.837   0.932  0.9000 -0.7170 -0.2362
   83MOL    C8118285   5.313   1.881   0.843 -0.1898 -0.5413 -0.1792
   83MOL    C8218286   5.448   1.871   0.885  0.0305 -0.0980 -0.2289
   83MOL    C8318287   5.492   1.846   1.019 -0.0496 -0.5092 -0.4068
   83MOL    C8418288   5.387   1.815   1.108 -0.6376  1.2251 -0.0382
   83MOL    O8518289   5.424   1.783   1.240 -0.4903  0.6909 -0.3413
   83MOL    H8618290   5.175   1.789   1.132  2.0863 -1.5179  1.2130
   83MOL    H8718291   5.118   1.840   0.890  2.4143  0.6990 -3.9717
   83MOL    H8818292   5.523   1.893   0.809 -0.5660  1.6554 -0.3409
   83MOL    H8918293   5.594   1.819   1.042  0.1362  1.8864  1.7647
   83MOL    C9018294   5.597   1.986   1.493 -0.2077  0.1404  0.0372
   83MOL    C9118295   5.579   1.890   1.386  0.3611 -0.3470  0.7523
   83MOL    C9218296   5.452   1.878   1.328  0.4980  0.4538 -0.1447
   83MOL    C9318297   5.346   1.962   1.375 -0.1738  0.1333  0.6626
   83MOL    C9418298   5.364   2.055   1.475  0.0862 -0.8828  0.2194
   83MOL    C9518299   5.487   2.069   1.532  0.0142 -0.2363  0.0336
   83MOL    O9618300   5.521   2.168   1.615 -0.1110  0.3130  0.4754
   83MOL    H9718301   5.699   2.004   1.525  0.4598 -0.7839 -1.5389
   83MOL    H9818302   5.660   1.825   1.357  0.0822 -0.6155  0.5708
   83MOL    H9918303   5.246   1.963   1.335 -0.8611  2.3071  2.3360
   83MOL   H10018304   5.287   2.122   1.511 -1.3019 -2.6498  0.6155
   83MOL   C10118305   5.319   2.462   1.705 -0.0817  0.4096  0.3909
   83MOL   C10218306   5.387   2.335   1.716 -0.0068 -0.1980 -0.5773
   83MOL   C10318307   5.452   2.282   1.600  0.7878 -0.1229  0.4204
   83MOL   C10418308   5.439   2.350   1.477  0.0166 -0.2964 -0.3995
   83MOL   C10518309   5.361   2.464   1.465 -0.0520 -1.0005  0.3776
   83MOL   C10618310   5.303   2.522   1.577  0.9524  0.3282 -0.1954
   83MOL   O10718311   5.217   2.631   1.560 -0.6039  0.4096 -0.1396
   83MOL   H10818312   5.273   2.496   1.796 -1.4173 -0.2175 -0.0368
   83MOL   H10918313   5.384   2.282   1.810  0.2091 -0.0022 -0.4603
   83MOL   H11018314   5.488   2.313   1.388  0.0412  1.1193 -0.9898
   83MOL   H11118315   5.334   2.511   1.372 -0.1525  0.2005  1.0045
   83MOL   C11218316   4.870   2.510   1.584  0.2520  0.5230  0.4198
   83MOL   C11318317   5.007   2.525   1.613 -0.7196  0.2624  0.6165
   83MOL   C11418318   5.090   2.601   1.525  1.1643 -0.5777  0.3772
   83MOL   C11518319   5.031   2.646   1.400 -0.7765 -0.3392  0.0974
   83MOL   C11618320   4.898   2.625   1.365 -0.7603 -0.0398  0.2224
   83MOL   C11718321   4.815   2.557   1.463 -0.1945 -0.7428 -0.5415
   83MOL   O11818322   4.685   2.526   1.432 -0.1131  0.4603  0.2411
   83MOL   H11918323   4.810   2.453   1.653  0.4255  0.4162  0.4826
   83MOL   H12018324   5.048   2.501   1.710  0.2067  0.6053  0.3140
   83MOL   H12118325   5.099   2.700   1.335 -2.0270 -0.2301 -1.1157
   83MOL   H12218326   4.865   2.673   1.274  2.2875 -0.9724 -1.4350
   83MOL   C12318327   4.443   2.791   1.348  0.0805 -0.2851  0.3168
   83MOL   C12418328   4.549   2.695   1.333 -0.1433 -0.3139  0.5173
   83MOL   C12518329   4.605   2.636   1.449  0.0747  0.2116 -0.1371
   83MOL   C12618330   4.557   2.679   1.576 -0.2951  0.1177  0.1639
   83MOL   C12718331   4.464   2.783   1.589 -0.5151 -0.5935  0.8841
   83MOL   C12818332   4.397   2.832   1.477 -0.2228 -0.4297 -0.5270
   83MOL   O12918333   4.292   2.926   1.483  0.0250 -0.3800 -0.1812
   83MOL   H13018334   4.396   2.831   1.259 -1.8086  1.5095  2.0606
   83MOL   H13118335   4.577   2.669   1.232  1.9845 -1.3740  1.3502
   83MOL   H13218336   4.599   2.625   1.660 -1.6216  0.3951  1.0158
   83MOL   H13318337   4.436   2.820   1.687 -0.7949 -0.3237  0.7033
   83MOL   C13418338   4.397   3.191   1.721  0.3038 -0.5420  0.0469
   83MOL   C13518339   4.393   3.108   1.607 -0.1416  0.6934  0.1602
   83MOL   C13618340   4.286   3.011   1.588 -0.2784 -0.3262  0.1954
   83MOL   C13718341   4.192   3.002   1.686 -0.1459  0.3383 -0.0183
   83MOL   C13818342   4.194   3.085   1.796  0.5929 -0.4159 -0.4355
   83MOL   C13918343   4.297   3.185   1.815  0.5653  0.1988  0.6322
   83MOL   O14018344   4.313   3.247   1.936  0.8282 -0.3197 -0.2628
   83MOL   H14118345   4.479   3.257   1.742 -0.6632  1.4309 -2.1477
   83MOL   H14218346   4.466   3.108   1.528 -1.9229  1.4109 -1.5332
   83MOL   H14318347   4.117   2.925   1.674 -0.1589  0.5978 -1.6223
   83MOL   H14418348   4.125   3.088   1.878  1.9342  3.2349  0.6726
   83MOL   C14518349   4.015   3.338   2.138 -0.3693 -0.1109 -0.9828
   83MOL   C14618350   4.115   3.252   2.072  0.2303 -0.0325 -0.2164
   83MOL   C14718351   4.203   3.314   1.985  0.1527 -0.5295 -0.1594
   83MOL   C14818352   4.182   3.447   1.947 -0.1382 -0.6643  0.4002
   83MOL   C14918353   4.091   3.534   2.020  0.4301 -0.1243 -0.5927
   83MOL   C15018354   4.009   3.478   2.119  0.3480  0.6106  0.2945
   83MOL   O15118355   3.923   3.547   2.200 -0.3691  0.0821 -0.2636
   83MOL   H15218356   3.963   3.286   2.217 -0.2949  0.8833 -0.2759
   83MOL   H15318357   4.126   3.149   2.100  0.3283  0.1454  0.4112
   83MOL   H15418358   4.239   3.490   1.865  0.0439 -0.0613  0.8429
   83MOL   H15518359   4.102   3.639   1.998  0.6571  0.0618  0.4142
   83MOL   C15618360   3.913   3.484   2.565  0.0413  0.1142 -0.2563
   83MOL   C15718361   3.878   3.485   2.430 -0.6550  1.0367 -0.5135
   83MOL   C15818362   3.956   3.553   2.336  0.4497 -0.1053  0.5764
   83MOL   C15918363   4.070   3.624   2.379  0.3841 -0.0563  0.0423
   83MOL   C16018364   4.098   3.635   2.516 -0.7547 -0.0266  0.4661
   83MOL   C16118365   4.019   3.566   2.612 -0.0877  0.0011  0.5303
   83MOL   O16218366   4.059   3.572   2.744 -0.3072  0.7013  0.3017
   83MOL   H16318367   3.843   3.438   2.634 -1.4556  2.1568 -0.3712
   83MOL   H16418368   3.808   3.411   2.392  0.3573 -1.2301  1.8430
   83MOL   H16518369   4.136   3.678   2.313 -1.5620  0.3921 -1.6148
   83MOL   H16618370   4.184   3.695   2.542 -0.8459  0.7409 -0.9205
   83MOL   C16718371   3.789   3.771   2.899  0.4043 -0.5197  0.1993
   83MOL   C16818372   3.891   3.742   2.806  0.2003 -0.4863  0.6689
   83MOL   C16918373   3.973   3.631   2.830 -0.5092  0.7282  0.2521
   83MOL   C17018374   3.967   3.566   2.954 -0.1711  0.3946 -1.1027
   83MOL   C17118375   3.881   3.602   3.054 -0.2558 -0.2298 -0.0869
   83MOL   C17218376   3.784   3.701   3.020 -0.3328  0.7428 -0.1233
   83MOL   O17318377   3.693   3.730   3.119  0.2281 -0.1851  0.6426
   83MOL   H17418378   3.720   3.850   2.876  1.7780  0.5760 -0.2419
   83MOL   H17518379   3.907   3.793   2.712 -0.1173 -1.7542 -0.0845
   83MOL   H17618380   4.034   3.488   2.984 -1.2893  0.4626  1.6734
   83MOL   H17718381   3.870   3.544   3.145 -1.6523 -0.9322 -0.6790
   83MOL   C17818382   3.345   3.742   2.997 -0.5472  0.3591  0.3947
   83MOL   C17918383   3.481   3.770   3.000 -0.0271 -0.1525  0.7441
   83MOL   C18018384   3.562   3.702   3.094 -0.2635  0.4775 -0.4749
   83MOL   C18118385   3.501   3.595   3.165  0.2124 -0.1017 -1.0412
   83MOL   C18218386   3.365   3.564   3.161 -0.0905  0.4417  0.3443
   83MOL   C18318387   3.285   3.641   3.077 -0.5594  0.1094  0.3735
   83MOL   O18418388   3.151   3.617   3.071 -0.5154  0.4114  0.1015
   83MOL   H18518389   3.278   3.797   2.932 -3.9171 -1.7650  1.9369
   83MOL   H18618390   3.519   3.855   2.944  1.3004 -1.7400 -0.8061
   83MOL   H18718391   3.561   3.544   3.239  1.0479 -0.3789 -1.8953
   83MOL   H18818392   3.321   3.495   3.231 -1.1988 -0.0914 -0.8672
   83MOL   C18918393   2.853   3.675   3.280  0.1651  0.2032 -0.4128
   83MOL   C19018394   2.941   3.628   3.179  0.2036  0.2130 -0.2982
   83MOL   C19118395   3.070   3.677   3.167  0.0580  0.1121 -0.4299
   83MOL   C19218396   3.113   3.778   3.251  0.1817  0.5521  0.0213
   83MOL   C19318397   3.025   3.825   3.358 -0.3834 -0.1837  0.7075
   83MOL   C19418398   2.894   3.779   3.370  0.4072  0.4752  0.0484
   83MOL   O19518399   2.809   3.827   3.471 -0.0601 -0.7609 -0.1683
   83MOL   H19618400   2.754   3.632   3.291  0.4116 -0.1844  0.2839
   83MOL   H19718401   2.905   3.544   3.122 -0.0673 -1.4924  2.3063
   83MOL   H19818402   3.213   3.819   3.246  0.2040  0.8531  2.5083
   83MOL   H19918403   3.067   3.906   3.414 -1.3789 -0.5473  1.9988
   83MOL   C20018404   2.861   4.059   3.753 -0.0212 -0.5006  0.0848
   83MOL   C20118405   2.819   4.013   3.625 -0.7671  0.4430 -0.1793
   83MOL   C20218406   2.859   3.877   3.584  0.2024 -0.4227  0.5279
   83MOL   C20318407   2.940   3.800   3.668 -0.7860  0.1118  0.3838
   83MOL   C20418408   2.980   3.850   3.792 -0.3157 -0.3285 -0.0864
   83MOL   C20518409   2.940   3.973   3.835  0.9369  0.2443 -0.1264
   83MOL   O20618410   2.980   4.015   3.960  0.6353  0.1264  0.1887
   83MOL   H20718411   2.849   4.162   3.783  0.1305 -0.2195 -0.8225
   83MOL   H20818412   2.761   4.071   3.555 -1.4082  0.0507  0.0267
   83MOL   H20918413   2.957   3.696   3.644 -1.6316 -0.3463  1.7280
   83MOL   H21018414   3.030   3.779   3.857  0.4618  0.0568 -0.2558
   83MOL   C21118415   2.758   4.189   4.213 -0.2142 -0.5663 -0.2400
   83MOL   C21218416   2.854   4.164   4.110 -0.0472  0.7081 -0.5007
   83MOL   C21318417   2.885   4.032   4.064  0.3198  0.1764 -0.3694
   83MOL   C21418418   2.823   3.926   4.128 -0.0143  0.3217 -0.2184
   83MOL   C21518419   2.739   3.950   4.239  0.7186 -0.3831  0.3067
   83MOL   C21618420   2.697   4.080   4.274 -0.3679  0.8101  0.5235
   83MOL   O21718421   2.601   4.099   4.366  0.5058  0.9765 -0.2340
   83MOL   H21818422   2.719   4.288   4.235 -0.7157 -0.8145  0.0075
   83MOL   H21918423   2.893   4.256   4.069 -2.1047  1.7521 -0.1470
   83MOL   H22018424   2.844   3.822   4.106 -1.1112  0.6018 -2.7346
   83MOL   H22118425   2.694   3.864   4.287 -2.1668  0.6901 -0.3540
   83MOL   H22218426   2.595   4.184   4.407  0.1688  0.7403  0.2117
   84MOL     C118427   4.664   7.756   4.165  0.2877 -0.6491 -0.3007
   84MOL     C218428   4.706   7.719   4.032 -0.4076 -0.2138  0.1578
   84MOL     C318429   4.845   7.738   4.000  0.0357 -0.2658 -0.0878
   84MOL     C418430   4.934   7.775   4.103  0.5138  0.0001 -0.0380
   84MOL     C518431   4.891   7.803   4.231  0.4865  0.0108  0.2776
   84MOL     C618432   4.753   7.800   4.262  0.2522 -0.1821 -0.8427
   84MOL     O718433   4.720   7.822   4.391  0.2318 -0.2301  0.7419
   84MOL     H818434   4.557   7.754   4.184  0.5011  0.3078  1.1052
   84MOL     H918435   4.628   7.701   3.959  0.3903  0.7326 -0.9474
   84MOL    H1018436   5.039   7.770   4.076  1.0015  0.0396  1.7760
   84MOL    H1118437   4.962   7.829   4.309 -0.1515 -0.2875  0.9647
   84MOL    H1218438   4.882   7.722   3.900  1.8536  1.7431  0.2307
   84MOL    C1318439   4.590   8.169   4.435  0.3950  0.4297 -0.5088
   84MOL    C1418440   4.604   8.037   4.389  0.3368 -0.3575  0.5280
   84MOL    C1518441   4.702   7.949   4.438  0.4620  0.0357 -0.1160
   84MOL    C1618442   4.792   8.001   4.532  0.7601  0.4890  0.0185
   84MOL    C1718443   4.777   8.131   4.586  0.4735  0.0442 -0.0298
   84MOL    C1818444   4.665   8.210   4.549 -0.2340  0.1436  0.4335
   84MOL    O1918445   4.666   0.078   4.610  0.0570 -0.1569 -0.1296
   84MOL    H2018446   4.523   8.245   4.397  0.1659  0.6336  0.2917
   84MOL    H2118447   4.542   8.000   4.308 -1.0230 -2.4148  2.4437
   84MOL    H2218448   4.872   7.933   4.560 -0.2810 -2.2980 -3.3700
   84MOL    H2318449   4.846   8.160   4.663 -0.9865 -0.5470  1.5179
   84MOL    C2418450   4.446   0.061   4.911 -0.0786  0.1267 -0.3901
   84MOL    C2518451   4.490   0.038   4.779 -0.6058  0.4072  0.2550
   84MOL    C2618452   4.613   0.096   4.737  0.1123 -0.3615  0.2871
   84MOL    C2718453   4.680   0.185   4.823 -0.3734  0.2810 -0.1086
   84MOL    C2818454   4.626   0.223   4.949  0.1207 -0.2183  0.0181
   84MOL    C2918455   4.502   0.163   4.988 -1.2507 -0.2935  0.2141
   84MOL    O3018456   4.442   0.204   5.104  0.5924  0.2117 -0.4108
   84MOL    H3118457   4.358   0.005   4.938  1.2350 -1.3788  0.8430
   84MOL    H3218458   4.453   8.208   4.721  0.6060 -2.4080  3.4299
   84MOL    H3318459   4.770   0.239   4.797  0.1107 -0.1648  0.6470
   84MOL    H3418460   4.680   0.290   5.014 -0.2662  0.6453 -0.5474
   84MOL    C3518461   4.089   0.135   5.129  0.3329 -0.1811  0.3861
   84MOL    C3618462   4.212   0.182   5.078 -0.0314  0.7056 -0.1860
   84MOL    C3718463   4.325   0.160   5.151 -0.2311  0.1200 -0.3668
   84MOL    C3818464   4.323   0.095   5.276 -0.0860  0.1556 -0.3628
   84MOL    C3918465   4.203   0.033   5.315  0.3185 -0.3917  0.4570
   84MOL    C4018466   4.088   0.051   5.242 -0.6210  0.3625 -1.0167
   84MOL    O4118467   3.973   8.244   5.287 -0.0268  0.1227  0.0724
   84MOL    H4218468   3.999   0.161   5.075 -0.5664 -0.7486  1.5915
   84MOL    H4318469   4.220   0.226   4.980 -0.9011  0.6097 -0.2998
   84MOL    H4418470   4.412   0.107   5.336 -2.2534  1.9889  2.6343
   84MOL    H4518471   4.188   8.223   5.401 -3.3117 -0.5067 -0.1873
   84MOL    C4618472   3.966   7.894   5.157 -0.2112 -0.1510 -0.1099
   84MOL    C4718473   3.987   8.034   5.158  0.6791  0.1096  0.9127
   84MOL    C4818474   3.959   8.108   5.278  0.7327  0.6527  0.8085
   84MOL    C4918475   3.902   8.048   5.390 -0.7736  1.0552 -0.3675
   84MOL    C5018476   3.884   7.909   5.384 -0.6284 -0.4120 -0.4775
   84MOL    C5118477   3.908   7.835   5.270 -0.6983 -0.2149  0.4102
   84MOL    O5218478   3.884   7.698   5.269 -0.1247 -0.2752 -0.5986
   84MOL    H5318479   3.988   7.846   5.063  0.0395 -0.9307  0.3480
   84MOL    H5418480   4.016   8.086   5.068  0.3500 -2.8841 -0.9978
   84MOL    H5518481   3.876   8.093   5.484 -3.5976  0.6907 -0.9387
   84MOL    H5618482   3.846   7.865   5.475  0.1968 -0.1306  0.0031
   84MOL    C5718483   3.813   7.490   5.569 -0.4258 -0.3356 -0.4991
   84MOL    C5818484   3.883   7.566   5.470 -1.1210  0.7425 -0.2261
   84MOL    C5918485   3.809   7.636   5.372 -0.0810 -0.2458 -0.6194
   84MOL    C6018486   3.671   7.637   5.381 -0.0224  0.1980  0.3521
   84MOL    C6118487   3.606   7.579   5.484 -0.5080 -0.1584  0.4613
   84MOL    C6218488   3.676   7.501   5.577 -0.5334  0.6117  0.5665
   84MOL    O6318489   3.600   7.440   5.674 -0.5263 -0.4007  0.5225
   84MOL    H6418490   3.863   7.426   5.640  1.8764  0.7146 -1.1232
   84MOL    H6518491   3.991   7.557   5.474 -1.2644 -1.1661 -0.3303
   84MOL    H6618492   3.616   7.704   5.318 -0.2782 -0.2944  0.0504
   84MOL    H6718493   3.499   7.591   5.494 -0.3461  2.3665 -0.5939
   84MOL    C6818494   3.395   7.178   5.520 -0.4908  0.3828 -0.8210
   84MOL    C6918495   3.505   7.255   5.556  0.2567 -0.3757 -0.1229
   84MOL    C7018496   3.491   7.374   5.630 -0.6816 -0.5563  0.2696
   84MOL    C7118497   3.365   7.422   5.671 -0.4950  0.0441 -0.2896
   84MOL    C7218498   3.258   7.339   5.647  0.2838  0.4513 -0.1169
   84MOL    C7318499   3.274   7.220   5.572 -0.1283 -0.3164 -0.0672
   84MOL    O7418500   3.170   7.148   5.535 -0.4129 -0.3589 -0.0016
   84MOL    H7518501   3.402   7.089   5.459 -2.1493  0.0817 -0.6097
   84MOL    H7618502   3.605   7.220   5.534  0.2760 -0.5747  0.2735
   84MOL    H7718503   3.359   7.517   5.723  0.3967 -0.2289  0.3351
   84MOL    H7818504   3.158   7.369   5.676  0.6296 -0.0123  1.5959
   84MOL    C7918505   2.838   7.307   5.487 -0.2890  1.1653 -0.3842
   84MOL    C8018506   2.947   7.240   5.548 -0.2690 -0.3125  0.1177
   84MOL    C8118507   3.062   7.208   5.472 -0.1353  0.2549 -0.2133
   84MOL    C8218508   3.066   7.232   5.332 -0.7468 -0.2008  0.0525
   84MOL    C8318509   2.949   7.279   5.268 -1.1606 -0.3518  0.5148
   84MOL    C8418510   2.836   7.321   5.348 -0.0460  0.2222 -0.3394
   84MOL    O8518511   2.726   7.362   5.283 -0.1087 -0.1939  0.1331
   84MOL    H8618512   2.746   7.324   5.541 -1.3897 -3.1424 -0.7620
   84MOL    H8718513   2.935   7.205   5.649  1.8823 -1.2738  0.0713
   84MOL    H8818514   3.161   7.222   5.282 -0.6701 -0.0727  0.1706
   84MOL    H8918515   2.942   7.297   5.162 -1.4782  0.6305  0.7042
   84MOL    C9018516   2.490   7.067   5.257  0.3045 -0.3606  0.5385
   84MOL    C9118517   2.606   7.144   5.295  0.1006 -0.0473 -0.4385
   84MOL    C9218518   2.622   7.279   5.246 -0.6982 -1.1432  0.1967
   84MOL    C9318519   2.516   7.338   5.177  0.1778  0.4748 -0.2730
   84MOL    C9418520   2.402   7.262   5.140 -0.1235 -0.3963  0.8216
   84MOL    C9518521   2.390   7.127   5.191 -0.2373 -0.2451  0.2901
   84MOL    O9618522   2.278   7.051   5.159 -0.1402 -0.2548 -0.3636
   84MOL    H9718523   2.487   6.963   5.287 -0.9428 -0.4862 -0.0008
   84MOL    H9818524   2.674   7.101   5.366 -0.6392 -0.4173  0.0515
   84MOL    H9918525   2.530   7.442   5.148  3.1162 -0.1232 -1.2337
   84MOL   H10018526   2.317   7.315   5.098  0.9489  0.0825 -0.8265
   84MOL   C10118527   2.033   7.065   5.443  0.4823 -0.0210 -0.1707
   84MOL   C10218528   2.157   7.048   5.369  0.2895 -0.5973  0.0688
   84MOL   C10318529   2.160   7.061   5.231  0.2137 -0.0531  0.2052
   84MOL   C10418530   2.044   7.086   5.155  0.5221 -0.1867  0.3310
   84MOL   C10518531   1.915   7.100   5.226 -0.2456  0.0602 -0.0440
   84MOL   C10618532   1.914   7.086   5.369  0.0147 -0.6099  0.2572
   84MOL   O10718533   1.795   7.100   5.430  0.3527  0.9011  0.3544
   84MOL   H10818534   2.013   7.039   5.545  0.0807 -1.9489 -0.7230
   84MOL   H10918535   2.248   7.035   5.426  0.4386 -0.6680 -0.1831
   84MOL   H11018536   2.050   7.086   5.047  0.0257  1.3652  0.2946
   84MOL   H11118537   1.829   7.119   5.163 -1.7952  0.1313  2.0307
   84MOL   C11218538   1.578   6.913   5.665  0.3169  0.6160 -0.2113
   84MOL   C11318539   1.637   7.017   5.591 -0.0926  0.6742  0.4773
   84MOL   C11418540   1.745   6.991   5.501  0.2500  0.3722  0.1925
   84MOL   C11518541   1.791   6.858   5.491  0.4885  0.4765 -0.8119
   84MOL   C11618542   1.742   6.756   5.571  0.0428  0.1663  0.2558
   84MOL   C11718543   1.630   6.781   5.660  0.3371 -0.5228  0.4147
   84MOL   O11818544   1.575   6.676   5.734  0.1207 -0.3149  0.5878
   84MOL   H11918545   1.486   6.939   5.714  0.9111  1.3643  0.5149
   84MOL   H12018546   1.607   7.121   5.588  0.0522  0.7241  0.7754
   84MOL   H12118547   1.871   6.832   5.423  1.3956  0.2273  0.3308
   84MOL   H12218548   1.782   6.656   5.575  1.9160  0.9012  0.2550
   84MOL   C12318549   1.330   6.398   5.719 -0.4621 -0.5850  0.2920
   84MOL   C12418550   1.447   6.474   5.747 -0.2303  0.5174  0.6170
   84MOL   C12518551   1.472   6.599   5.686  0.1746  0.2845  0.1542
   84MOL   C12618552   1.383   6.638   5.580  0.1704  0.5191 -0.4049
   84MOL   C12718553   1.265   6.566   5.550  0.6254 -0.5698 -0.0156
   84MOL   C12818554   1.235   6.453   5.626  0.2994  0.5434 -0.3036
   84MOL   O12918555   1.114   6.392   5.599 -0.6116 -0.0904  0.5296
   84MOL   H13018556   1.323   6.304   5.772  0.3615 -0.8068  0.0073
   84MOL   H13118557   1.517   6.438   5.820 -1.3368 -0.0466  1.4133
   84MOL   H13218558   1.404   6.725   5.521  0.5461  0.5426 -0.2382
   84MOL   H13318559   1.197   6.600   5.473  0.7672 -0.2834 -0.0147
   84MOL   C13418560   0.955   6.090   5.741  0.5898  0.4802  0.3194
   84MOL   C13518561   1.036   6.170   5.659  0.0640 -0.3721  0.0211
   84MOL   C13618562   1.044   6.307   5.686  1.1262  0.0055  0.7002
   84MOL   C13718563   0.972   6.364   5.795 -0.5538 -0.3579 -0.3762
   84MOL   C13818564   0.895   6.280   5.882  0.6639  0.1739  0.6012
   84MOL   C13918565   0.893   6.142   5.857 -0.2677  0.1508  0.3765
   84MOL   O14018566   0.821   6.060   5.933  0.0626 -0.0085 -0.1588
   84MOL   H14118567   0.949   5.983   5.727  1.1017  0.8501 -3.0078
   84MOL   H14218568   1.097   6.129   5.579  0.9083 -1.3141  1.1347
   84MOL   H14318569   0.985   6.468   5.822 -0.6923 -0.2826 -0.6008
   84MOL   H14418570   0.853   6.318   5.974 -1.7507 -1.7768  0.3742
   84MOL   C14518571   0.468   6.164   5.959 -0.3078 -0.3657 -0.0127
   84MOL   C14618572   0.607   6.149   5.984  0.4669 -0.1844 -0.4053
   84MOL   C14718573   0.687   6.068   5.904  0.1863 -0.5057  0.4005
   84MOL   C14818574   0.636   6.018   5.779 -0.3518  0.9536  0.4775
   84MOL   C14918575   0.501   6.045   5.749 -0.0051 -0.4416  0.2729
   84MOL   C15018576   0.415   6.112   5.841 -0.0147 -1.2265  0.5825
   84MOL   O15118577   0.278   6.126   5.820  0.3134 -0.2913  0.0324
   84MOL   H15218578   0.412   6.217   6.035 -0.6135 -3.7737  2.2982
   84MOL   H15318579   0.654   6.192   6.072 -2.9397  0.9870  0.9034
   84MOL   H15418580   0.699   5.964   5.710 -0.5244  0.2184  0.8938
   84MOL   H15518581   0.462   6.002   5.658  0.6639  0.9761 -0.7026
   84MOL   C15618582   0.087   6.087   5.503 -0.3541 -0.4347  0.1387
   84MOL   C15718583   0.146   6.058   5.630  0.1243  0.2070 -0.3111
   84MOL   C15818584   0.243   6.144   5.687  0.3126 -0.6927  0.5387
   84MOL   C15918585   0.292   6.252   5.612 -0.1013  0.5432  0.1345
   84MOL   C16018586   0.254   6.273   5.479  0.4253  0.5180  0.7969
   84MOL   C16118587   0.141   6.201   5.431  0.8942  0.2740 -0.0857
   84MOL   O16218588   0.098   6.234   5.304 -0.1055 -0.3350  0.5768
   84MOL   H16318589   0.006   6.031   5.460  0.2032 -0.2706 -1.1514
   84MOL   H16418590   0.104   5.974   5.683 -1.4689  0.5031 -1.0679
   84MOL   H16518591   0.362   6.318   5.661  1.2518 -3.0300  3.2900
   84MOL   H16618592   0.294   6.356   5.423  1.2075  1.0340  2.0828
   84MOL   C16718593   0.246   6.475   5.067 -0.4287  0.1260  0.5421
   84MOL   C16818594   0.167   6.418   5.167  0.7629  0.0919  0.5280
   84MOL   C16918595   0.188   6.282   5.206 -0.3810 -0.2969  0.2700
   84MOL   C17018596   0.296   6.208   5.156 -0.2945  0.0184  0.6699
   84MOL   C17118597   0.383   6.266   5.059  0.7497  0.4596 -0.2815
   84MOL   C17218598   0.350   6.397   5.008  0.1426  0.1308  0.1778
   84MOL   O17318599   0.422   6.443   4.898 -0.3206  0.3968 -0.4234
   84MOL   H17418600   0.224   6.567   5.015  0.2627 -0.6670 -1.2270
   84MOL   H17518601   0.077   6.466   5.202  1.8058  3.6873 -1.3438
   84MOL   H17618602   0.310   6.111   5.201 -1.3185 -1.3403 -1.8431
   84MOL   H17718603   0.464   6.219   5.005  1.7719  0.1068  1.5239
   84MOL   C17818604   0.207   6.389   4.599  0.4569  0.1590 -0.4104
   84MOL   C17918605   0.264   6.371   4.726  0.3102 -0.0865 -0.8112
   84MOL   C18018606   0.369   6.451   4.769 -0.0422 -0.0350 -0.5054
   84MOL   C18118607   0.429   6.539   4.678  0.5017 -0.8982  0.1066
   84MOL   C18218608   0.365   6.571   4.560 -0.0514  0.6956  0.2843
   84MOL   C18318609   0.255   6.493   4.512  0.5141  0.1507  0.6040
   84MOL   O18418610   0.203   6.515   4.386  0.1592 -0.4432 -0.6048
   84MOL   H18518611   0.127   6.330   4.557  0.5487 -1.0758  1.1110
   84MOL   H18618612   0.231   6.300   4.800 -0.4137  2.3550  1.3162
   84MOL   H18718613   0.512   6.601   4.708 -0.7027  1.9634 -2.1818
   84MOL   H18818614   0.399   6.651   4.496 -0.7353  1.0311  0.3381
   84MOL   C18918615   0.378   6.333   4.111  0.2727 -0.3800 -0.3921
   84MOL   C19018616   0.363   6.412   4.233 -0.1532 -0.1455 -0.0249
   84MOL   C19118617   0.231   6.430   4.286 -0.1226  0.1440  1.0987
   84MOL   C19218618   0.122   6.373   4.224 -0.2351 -0.3951  0.0471
   84MOL   C19318619   0.142   6.304   4.100  0.0687 -0.0096  0.1986
   84MOL   C19418620   0.268   6.278   4.044 -0.3298 -0.2868 -0.2258
   84MOL   O19518621   0.284   6.226   3.917 -0.0789 -0.1191  0.8901
   84MOL   H19618622   0.467   6.317   4.052 -0.7568  2.3813 -2.8174
   84MOL   H19718623   0.447   6.446   4.292 -1.1973  0.4495  1.1408
   84MOL   H19818624   0.024   6.381   4.269  0.6355 -0.4725  2.0013
   84MOL   H19918625   0.055   6.274   4.043  0.0592  0.0021  0.2073
   84MOL   C20018626   0.263   5.863   3.900  0.5150 -0.8893  0.2569
   84MOL   C20118627   0.219   5.995   3.922 -0.3629 -0.2837  0.5984
   84MOL   C20218628   0.317   6.097   3.912 -0.1630 -0.2189  0.0476
   84MOL   C20318629   0.454   6.062   3.891 -0.0996 -0.2682 -0.2207
   84MOL   C20418630   0.491   5.933   3.882 -0.0485  0.3866  0.6194
   84MOL   C20518631   0.398   5.831   3.882 -0.1247  0.0839 -0.7194
   84MOL   O20618632   0.438   5.702   3.871 -0.1115  0.3781 -0.2888
   84MOL   H20718633   0.197   5.779   3.911 -1.8574  0.7197 -1.1431
   84MOL   H20818634   0.114   6.015   3.939  0.0818  1.4778  1.3646
   84MOL   H20918635   0.525   6.140   3.870 -1.2912  0.2967 -2.3409
   84MOL   H21018636   0.592   5.899   3.866  0.3316  1.4025  0.8667
   84MOL   C21118637   0.262   5.567   3.568 -0.2340 -0.0721  0.1472
   84MOL   C21218638   0.336   5.659   3.648 -0.1359 -0.0612 -0.6887
   84MOL   C21318639   0.367   5.621   3.781  0.8146  0.0968 -0.0159
   84MOL   C21418640   0.309   5.503   3.832  0.2047  0.3113 -0.6806
   84MOL   C21518641   0.233   5.420   3.752 -0.4483  0.1625  0.2706
   84MOL   C21618642   0.203   5.456   3.619 -0.0283  0.5742  0.3956
   84MOL   O21718643   0.115   5.385   3.541 -0.1294  0.3237  0.3086
   84MOL   H21818644   0.236   5.590   3.466  3.4566 -2.1548 -1.3193
   84MOL   H21918645   0.381   5.749   3.606  2.2274 -0.7059  0.3402
   84MOL   H22018646   0.330   5.484   3.936 -1.6569  0.9156 -0.1712
   84MOL   H22118647   0.201   5.326   3.796 -2.3024  0.9905  0.7406
   84MOL   H22218648   0.109   5.423   3.455 -0.2597 -1.4239 -0.4778
   85MOL     C118649   7.964   4.226   6.619  1.3645 -0.2400 -0.0059
   85MOL     C218650   7.900   4.337   6.553 -0.3346 -0.0491  0.5780
   85MOL     C318651   7.793   4.311   6.468  0.3317  0.4629 -0.6344
   85MOL     C418652   7.734   4.186   6.460  0.5735 -0.0111 -0.4090
   85MOL     C518653   7.790   4.077   6.525  0.4888  0.3031 -0.9631
   85MOL     C618654   7.909   4.100   6.604  0.2958 -0.2499 -0.5847
   85MOL     O718655   7.970   3.998   6.666 -0.3807  0.0530 -0.3009
   85MOL     H818656   8.039   4.255   6.691 -1.2066  0.2642  2.5799
   85MOL     H918657   7.945   4.434   6.569 -2.9202  1.2172  0.3907
   85MOL    H1018658   7.645   4.176   6.399  0.4637  0.6389 -0.3602
   85MOL    H1118659   7.754   3.976   6.512 -1.3269  1.0214 -1.7959
   85MOL    H1218660   7.750   4.381   6.398  2.7182  1.3755 -1.2114
   85MOL    C1318661   8.120   3.994   7.009  0.0461 -0.7992 -0.0036
   85MOL    C1418662   8.110   3.997   6.868  0.6044 -0.5734  0.4897
   85MOL    C1518663   7.984   4.013   6.805 -0.9239  0.5005 -0.0922
   85MOL    C1618664   7.871   4.022   6.891  0.9396  0.3436 -0.0110
   85MOL    C1718665   7.883   4.030   7.028  0.1464  0.6464  0.0584
   85MOL    C1818666   8.008   4.011   7.091  0.4511  0.4524  0.1378
   85MOL    O1918667   8.024   4.012   7.225  0.3393  0.4289 -0.0897
   85MOL    H2018668   8.217   3.982   7.055  1.3412 -0.1416 -2.4559
   85MOL    H2118669   8.191   4.006   6.796  1.0880 -1.6553  0.8934
   85MOL    H2218670   7.773   4.013   6.847  2.1295 -2.2744 -2.3089
   85MOL    H2318671   7.792   4.047   7.083 -0.2324 -1.3307  0.0980
   85MOL    C2418672   8.233   4.278   7.361  0.2194 -0.0441 -0.0276
   85MOL    C2518673   8.192   4.160   7.308 -0.0949  0.4411 -1.1741
   85MOL    C2618674   8.056   4.133   7.279 -0.3893  0.5915  0.7456
   85MOL    C2718675   7.965   4.237   7.312  0.2151 -0.0736  0.9294
   85MOL    C2818676   8.005   4.364   7.359 -0.0176  0.3087 -0.0794
   85MOL    C2918677   8.143   4.384   7.384  0.5817 -0.2360 -0.4647
   85MOL    O3018678   8.192   4.504   7.418  0.5752 -0.1128 -0.1107
   85MOL    H3118679   0.086   4.293   7.369 -0.1134  1.6671  1.4717
   85MOL    H3218680   0.010   4.084   7.281  1.8737  2.1062 -0.7316
   85MOL    H3318681   7.861   4.231   7.282  0.2096 -0.5363  1.0454
   85MOL    H3418682   7.932   4.442   7.372 -1.8287 -1.0546 -1.7179
   85MOL    C3518683   8.000   4.803   7.513  0.2631  0.3672 -0.0409
   85MOL    C3618684   8.068   4.706   7.437  0.9830  0.0295 -0.1022
   85MOL    C3718685   8.112   4.591   7.492 -0.7359 -0.6612 -0.2329
   85MOL    C3818686   8.080   4.563   7.625  0.4339 -0.0844  0.1033
   85MOL    C3918687   8.010   4.651   7.705 -0.3661 -0.3311 -0.3019
   85MOL    C4018688   7.957   4.772   7.647 -0.6820 -1.0058  0.7254
   85MOL    O4118689   7.877   4.854   7.721 -0.1966 -0.3653  0.3360
   85MOL    H4218690   7.974   4.899   7.470  0.1150 -0.3998 -1.7174
   85MOL    H4318691   8.091   4.734   7.335  2.1201  0.2277  0.2119
   85MOL    H4418692   8.115   4.469   7.665 -0.0408  0.1192  1.0041
   85MOL    H4518693   7.988   4.618   7.805  0.9999  2.1345  0.8396
   85MOL    C4618694   7.903   5.216   7.630  0.1862  0.4854  0.4536
   85MOL    C4718695   7.854   5.080   7.646  0.1606  0.0866  0.6161
   85MOL    C4818696   7.917   4.985   7.722 -0.2744 -0.5539 -0.5998
   85MOL    C4918697   8.033   5.031   7.790  0.0953 -0.0369 -0.3435
   85MOL    C5018698   8.082   5.169   7.785  0.2367  0.2205  0.4974
   85MOL    C5118699   8.023   5.253   7.690 -0.1527  0.0397  0.1836
   85MOL    O5218700   8.069   5.386   7.674  0.2393 -0.1144  0.4883
   85MOL    H5318701   7.839   5.282   7.573 -0.5662 -1.7870 -1.4478
   85MOL    H5418702   7.768   5.053   7.587  1.0040 -0.3433 -0.4172
   85MOL    H5518703   8.080   4.964   7.861  1.0804  1.2269  0.2198
   85MOL    H5618704   8.160   5.204   7.850  1.5570 -1.4019 -0.1699
   85MOL    C5718705   7.864   5.568   7.914 -0.1858  0.2550 -0.4056
   85MOL    C5818706   7.905   5.475   7.819  0.3619 -0.2833  0.3279
   85MOL    C5918707   8.037   5.468   7.781  0.3358 -0.3140 -0.0251
   85MOL    C6018708   8.140   5.542   7.846  0.3850 -0.1086  0.1333
   85MOL    C6118709   8.101   5.626   7.949 -0.0489  0.1930 -0.0292
   85MOL    C6218710   7.965   5.636   7.986 -0.5070  0.3307 -0.4254
   85MOL    O6318711   7.926   5.720   8.087  0.6773 -1.0282 -0.1906
   85MOL    H6418712   7.759   5.586   7.934 -0.0830  1.0680 -0.5953
   85MOL    H6518713   7.831   5.423   7.760 -0.1832 -0.7370  1.3970
   85MOL    H6618714   8.243   5.535   7.813 -0.1148 -0.2420 -1.4246
   85MOL    H6718715   8.172   5.683   8.008 -0.1224 -0.4483  0.6924
   85MOL    C6818716   7.925   6.039   7.893 -0.2398 -0.2796  0.2221
   85MOL    C6918717   7.917   5.900   7.920  0.3490  0.7852  0.3391
   85MOL    C7018718   7.927   5.853   8.054 -0.3167  0.1139  0.7440
   85MOL    C7118719   7.941   5.943   8.161 -0.5990  0.5843  0.3288
   85MOL    C7218720   7.942   6.081   8.136  1.1399  0.3878 -0.2839
   85MOL    C7318721   7.933   6.130   8.001  0.8038  0.3719  0.2061
   85MOL    O7418722   7.962   6.263   7.978 -0.3259 -0.3330 -0.1562
   85MOL    H7518723   7.923   6.081   7.794 -0.5760  1.9722  1.1492
   85MOL    H7618724   7.911   5.834   7.835 -1.3270  3.3634 -1.5860
   85MOL    H7718725   7.958   5.898   0.003  0.4912 -1.5973 -0.8302
   85MOL    H7818726   7.954   6.150   8.218  1.1152 -0.2230  0.2396
   85MOL    C7918727   7.619   6.394   7.936 -0.1122  0.2681 -0.5321
   85MOL    C8018728   7.728   6.322   7.989  0.1545  0.2971  0.0598
   85MOL    C8118729   7.856   6.333   7.934  0.7121  0.5515 -0.5251
   85MOL    C8218730   7.881   6.426   7.835 -0.0733 -0.3774 -0.0053
   85MOL    C8318731   7.782   6.514   7.795  0.0855 -0.5849  0.0299
   85MOL    C8418732   7.651   6.497   7.846 -0.1780 -0.4441  0.3130
   85MOL    O8518733   7.547   6.569   7.797  0.3108 -0.1806  0.2797
   85MOL    H8618734   7.525   6.386   7.989  0.8069  0.6203  1.2024
   85MOL    H8718735   7.713   6.243   8.061 -2.3911 -1.0764 -1.8765
   85MOL    H8818736   7.985   6.425   7.807 -0.2939 -1.2021 -0.8205
   85MOL    H8918737   7.800   6.588   7.718 -2.9891  2.5679  2.1536
   85MOL    C9018738   7.426   6.828   8.024 -0.1929  0.6994  0.9205
   85MOL    C9118739   7.447   6.702   7.964  0.0593 -0.1289 -0.6976
   85MOL    C9218740   7.522   6.693   7.848  0.8712 -0.3889  0.8523
   85MOL    C9318741   7.578   6.809   7.789 -0.2896  0.1188 -0.1888
   85MOL    C9418742   7.557   6.937   7.855  0.0214  0.1597 -0.4916
   85MOL    C9518743   7.489   6.942   7.974  0.4398  0.1548  0.1282
   85MOL    O9618744   7.471   7.060   8.044 -0.0463  0.6007  0.1898
   85MOL    H9718745   7.366   6.827   8.114 -0.4690 -2.5298  0.7835
   85MOL    H9818746   7.394   6.612   7.990  1.2860 -0.6884 -0.0917
   85MOL    H9918747   7.641   6.800   7.701  0.0693 -1.0773  0.1828
   85MOL   H10018748   7.611   7.024   7.822  0.5804  0.6694  1.7416
   85MOL   C10118749   7.778   7.077   0.012  0.3324  0.0478  0.2958
   85MOL   C10218750   7.677   7.029   8.179 -0.2936  0.1870 -0.3281
   85MOL   C10318751   7.575   7.111   8.119 -0.2962  1.3174  0.0934
   85MOL   C10418752   7.585   7.251   8.144  0.1112  0.2836 -0.1681
   85MOL   C10518753   7.691   7.300   8.219 -0.3073 -0.3586 -0.6772
   85MOL   C10618754   7.793   7.214   0.026 -0.3137 -0.3659 -0.4384
   85MOL   O10718755   7.897   7.269   0.099 -0.0160  0.5638  0.2458
   85MOL   H10818756   7.835   7.005   0.069  0.5358 -1.0023 -1.2135
   85MOL   H10918757   7.676   6.922   8.161  2.5907  0.3291 -1.4679
   85MOL   H11018758   7.506   7.319   8.116  0.7934  0.9094 -0.5996
   85MOL   H11118759   7.693   7.407   8.234 -0.9044 -0.7027  1.9715
   85MOL   C11218760   8.232   7.261   8.189  0.2930 -0.0981 -0.0711
   85MOL   C11318761   8.093   7.289   8.217  0.2927 -0.2976  0.3318
   85MOL   C11418762   8.029   7.235   0.072  0.0450 -0.2236 -0.1898
   85MOL   C11518763   8.093   7.143   0.152  0.4664  0.6483 -0.3957
   85MOL   C11618764   8.229   7.114   0.127  0.1565  0.5382 -0.3768
   85MOL   C11718765   0.044   7.167   0.018  0.4353  0.1072  0.8394
   85MOL   O11818766   0.167   7.122   8.247  0.2144  0.2140 -0.3861
   85MOL   H11918767   0.035   7.302   8.107 -0.0939  1.5429  0.4598
   85MOL   H12018768   8.045   7.362   8.152  2.2755  2.0869  1.4538
   85MOL   H12118769   8.043   7.107   0.241  2.1010  0.4390  0.4464
   85MOL   H12218770   0.030   7.043   0.188  1.9429  1.3236 -1.0316
   85MOL   C12318771   0.402   7.356   8.092 -0.4921 -0.5746  0.3008
   85MOL   C12418772   0.317   7.251   8.104 -0.1778  0.1628 -1.0366
   85MOL   C12518773   0.255   7.228   8.228  0.0479  0.0525 -0.4842
   85MOL   C12618774   0.279   7.314   0.080 -0.4428  0.4921  0.1567
   85MOL   C12718775   0.362   7.425   0.071 -0.0491 -1.0950  0.6444
   85MOL   C12818776   0.416   7.449   8.196 -1.0255  0.0885 -0.1470
   85MOL   O12918777   0.503   7.552   8.187  0.5415 -0.4381  0.2262
   85MOL   H13018778   0.461   7.358   8.001  1.1342  2.3310  1.3285
   85MOL   H13118779   0.290   7.188   8.021 -1.7187 -0.3079 -0.2084
   85MOL   H13218780   0.218   7.293   0.167 -2.3537 -2.1072 -1.7171
   85MOL   H13318781   0.376   7.498   0.149  0.9861 -1.3414  0.6990
   85MOL   C13418782   0.815   7.471   0.112  0.8714 -0.0036  0.3385
   85MOL   C13518783   0.681   7.489   0.087 -0.0916 -0.2556  0.2505
   85MOL   C13618784   0.633   7.517   8.212 -0.0361 -0.1873 -0.2216
   85MOL   C13718785   0.725   7.536   8.108 -0.6139 -0.5013 -0.6006
   85MOL   C13818786   0.858   7.515   8.133 -0.2147  0.8545  0.4458
   85MOL   C13918787   0.909   7.475   0.008  0.5347 -0.3755 -0.2441
   85MOL   O14018788   1.040   7.447   0.045  0.2876  0.0706 -0.2987
   85MOL   H14118789   0.847   7.428   0.205 -0.6411 -1.2187  0.3173
   85MOL   H14218790   0.605   7.478   0.164  0.0748 -0.7239  0.3487
   85MOL   H14318791   0.686   7.582   8.018 -0.7351  1.1802  0.2870
   85MOL   H14418792   0.921   7.527   8.046 -0.6538  0.2578  0.0483
   85MOL   C14518793   1.231   7.769   8.248 -0.1604 -0.0787  0.1846
   85MOL   C14618794   1.124   7.682   0.017  0.1499 -0.1286 -0.4498
   85MOL   C14718795   1.147   7.541   0.038  0.3302 -0.0820  0.3787
   85MOL   C14818796   1.275   7.495   0.058 -0.3149  0.7100  0.0553
   85MOL   C14918797   1.384   7.582   0.040  0.2110  0.2591  0.0774
   85MOL   C15018798   1.363   7.715   0.009  0.7576 -0.5213 -0.1188
   85MOL   O15118799   1.469   7.800   8.245  0.1394  0.2456  0.0933
   85MOL   H15218800   1.202   7.872   8.229 -0.5901 -0.2852 -0.2692
   85MOL   H15318801   1.022   7.716   0.006  0.4212  1.3345  1.2441
   85MOL   H15418802   1.285   7.388   0.069 -0.2369  0.5225 -1.6079
   85MOL   H15518803   1.484   7.543   0.049  0.6530  1.1194 -0.9539
   85MOL   C15618804   1.597   7.837   0.332  0.8982  0.4273 -0.7124
   85MOL   C15718805   1.508   7.830   0.227 -0.0325  0.7974 -0.0879
   85MOL   C15818806   1.556   7.811   0.095  0.1640  0.4002 -0.1974
   85MOL   C15918807   1.697   7.809   0.073 -0.0239  0.3280 -0.4857
   85MOL   C16018808   1.785   7.839   0.176  0.2756  0.7240 -0.5269
   85MOL   C16118809   1.734   7.845   0.300  0.3032 -0.4750  0.2799
   85MOL   O16218810   1.825   7.877   0.395 -0.0187  0.0546  0.4096
   85MOL   H16318811   1.573   7.845   0.437  0.6767 -0.5276 -0.6810
   85MOL   H16418812   1.403   7.842   0.248 -0.8987 -1.2278 -3.0080
   85MOL   H16518813   1.741   7.791   8.230 -0.9919  0.3305 -0.9318
   85MOL   H16618814   1.892   7.831   0.168  0.3390 -0.1530  1.0691
   85MOL   C16718815   1.904   7.554   0.557 -0.4271 -0.1855 -0.5235
   85MOL   C16818816   1.890   7.653   0.460 -0.4401 -0.3093 -0.0917
   85MOL   C16918817   1.859   7.786   0.494 -0.7389 -0.3649  0.8882
   85MOL   C17018818   1.857   7.821   0.631 -0.3148 -0.2199  0.2777
   85MOL   C17118819   1.873   7.729   0.734  0.1281  0.5005 -0.6724
   85MOL   C17218820   1.895   7.595   0.693 -0.1423  0.5948 -0.2229
   85MOL   O17318821   1.909   7.500   0.789  0.4460  0.1486  0.0950
   85MOL   H17418822   1.902   7.450   0.529 -0.6757  0.1566 -1.8174
   85MOL   H17518823   1.886   7.630   0.354  1.2882  0.6414 -0.3700
   85MOL   H17618824   1.830   7.924   0.648 -0.8737  0.2322 -3.0637
   85MOL   H17718825   1.868   7.754   0.839  3.3828 -0.6717 -0.1915
   85MOL   C17818826   1.564   7.408   0.922 -0.5500 -0.6263 -0.2986
   85MOL   C17918827   1.674   7.430   0.828 -0.5296  0.7631  0.6398
   85MOL   C18018828   1.799   7.483   0.875 -0.2834 -0.0340  0.6482
   85MOL   C18118829   1.805   7.527   1.006  0.1954 -0.0526 -0.1351
   85MOL   C18218830   1.696   7.506   1.093 -0.1700  0.2505 -0.3478
   85MOL   C18318831   1.578   7.443   1.058  0.6966  0.8091 -0.8898
   85MOL   O18418832   1.486   7.395   1.144  0.4023 -0.8641  0.2543
   85MOL   H18518833   1.474   7.361   0.887  0.9098 -3.0654 -0.9399
   85MOL   H18618834   1.651   7.400   0.727 -1.0772 -1.6845  1.4357
   85MOL   H18718835   1.889   7.581   1.047 -0.6703  0.6001  0.7770
   85MOL   H18818836   1.711   7.511   1.200 -2.2422 -3.4412  0.2014
   85MOL   C18918837   1.287   7.654   1.306  0.3230  0.3194  0.3263
   85MOL   C19018838   1.340   7.572   1.201 -0.0568 -0.3189 -0.5455
   85MOL   C19118839   1.436   7.479   1.237  0.2629 -0.4265 -0.0562
   85MOL   C19218840   1.463   7.438   1.370  0.6095  0.3163  0.0755
   85MOL   C19318841   1.403   7.517   1.478 -0.1167 -0.4086  0.3943
   85MOL   C19418842   1.331   7.639   1.443 -0.8592  0.1338 -0.0368
   85MOL   O19518843   1.290   7.719   1.544  0.7393  0.5877  0.3297
   85MOL   H19618844   1.214   7.725   1.270 -0.2832 -0.3267  0.2757
   85MOL   H19718845   1.317   7.579   1.096 -1.7418  3.5678  0.0087
   85MOL   H19818846   1.533   7.358   1.388 -2.2472 -2.1802  0.5266
   85MOL   H19918847   1.436   7.500   1.579 -2.5432 -0.9307  1.1129
   85MOL   C20018848   1.155   8.055   1.458  0.5932 -0.0695  0.3392
   85MOL   C20118849   1.242   7.948   1.481  0.2086 -0.2047 -0.0875
   85MOL   C20218850   1.196   7.820   1.513  0.1833  0.4401 -0.9249
   85MOL   C20318851   1.064   7.785   1.509 -0.0733 -0.0200  0.0804
   85MOL   C20418852   0.969   7.891   1.475 -0.2124 -0.1667 -0.1643
   85MOL   C20518853   1.017   8.026   1.450 -0.7728 -0.5788 -0.0206
   85MOL   O20618854   0.927   8.122   1.429  0.0746  0.3515  0.2512
   85MOL   H20718855   1.193   8.153   1.433  0.4085 -0.2081 -0.4992
   85MOL   H20818856   1.347   7.974   1.488 -0.1498  1.4863 -0.6610
   85MOL   H20918857   1.047   7.680   1.523  0.3206 -0.0525  0.3203
   85MOL   H21018858   0.863   7.869   1.466 -0.0073 -0.2844 -2.8227
   85MOL   C21118859   0.863   8.104   1.064 -0.5592  0.2329  0.6943
   85MOL   C21218860   0.920   8.070   1.187 -0.4689  0.1976  0.8919
   85MOL   C21318861   0.886   8.152   1.298  0.0416 -0.0897  0.2131
   85MOL   C21418862   0.789   8.252   1.293  0.1913 -0.4740  0.2266
   85MOL   C21518863   0.745   0.037   1.163 -0.4880  0.7995  0.1761
   85MOL   C21618864   0.784   8.215   1.049 -0.8557  0.2011 -0.0725
   85MOL   O21718865   0.735   0.006   0.932  0.4991 -0.4144  0.0233
   85MOL   H21818866   0.894   8.047   0.977 -1.6111  1.0180 -0.1951
   85MOL   H21918867   0.982   7.981   1.193 -1.3170 -0.3835  1.2640
   85MOL   H22018868   0.761   0.057   1.379 -1.7532  1.9306 -1.9797
   85MOL   H22118869   0.677   0.120   1.151 -1.5405 -0.0026  0.5569
   85MOL   H22218870   0.772   8.207   0.862  1.9923 -1.8402  1.8480
   86MOL     C118871   3.638   4.643   4.042 -1.0854 -0.4847 -0.1664
   86MOL     C218872   3.630   4.729   4.159 -0.2448 -0.0858 -0.3195
   86MOL     C318873   3.695   4.856   4.154  0.1284  0.4383  0.9598
   86MOL     C418874   3.759   4.903   4.036 -1.0780 -0.3100 -0.0873
   86MOL     C518875   3.765   4.817   3.923 -0.4632 -0.5073 -0.3760
   86MOL     C618876   3.696   4.695   3.926 -0.5416 -0.1363 -0.5546
   86MOL     O718877   3.698   4.619   3.818 -0.1345 -0.0368 -0.2142
   86MOL     H818878   3.592   4.546   4.037 -1.2203 -0.5120  1.4572
   86MOL     H918879   3.574   4.694   4.245  0.9782  0.7013  0.8183
   86MOL    H1018880   3.816   4.995   4.041  2.8271 -2.6954  2.3770
   86MOL    H1118881   3.821   4.847   3.835 -0.5626 -1.5662 -0.8082
   86MOL    H1218882   3.688   4.922   4.239  0.4887 -0.1586  1.4579
   86MOL    C1318883   3.763   4.263   3.751 -0.7219 -0.4546  0.1577
   86MOL    C1418884   3.692   4.379   3.775 -0.2625 -0.4621 -0.3096
   86MOL    C1518885   3.765   4.492   3.818 -0.2422 -0.7903  0.5142
   86MOL    C1618886   3.901   4.495   3.843 -0.3918 -0.2744 -0.5060
   86MOL    C1718887   3.970   4.376   3.821 -0.6190  0.4339  0.0628
   86MOL    C1818888   3.905   4.260   3.769 -0.2777  0.3252 -0.2363
   86MOL    O1918889   3.982   4.149   3.748 -0.3971 -0.0980  0.3462
   86MOL    H2018890   3.703   4.179   3.719 -0.9041 -1.2214  2.4479
   86MOL    H2118891   3.590   4.376   3.741  0.2539 -1.3343 -1.8397
   86MOL    H2218892   3.951   4.583   3.879 -0.5305 -0.6627  0.6512
   86MOL    H2318893   4.077   4.369   3.834 -0.8375 -0.7038  1.3268
   86MOL    C2418894   3.933   3.789   3.793  0.5632  0.1911  0.8472
   86MOL    C2518895   3.972   3.908   3.736 -0.2893 -0.3650  0.3543
   86MOL    C2618896   3.947   4.029   3.809  0.0138 -0.7070  0.2935
   86MOL    C2718897   3.897   4.022   3.943 -0.2284 -0.1942  0.1022
   86MOL    C2818898   3.875   3.900   3.997  0.2548 -0.1615 -1.0796
   86MOL    C2918899   3.883   3.784   3.920 -0.1872  0.2958  0.5800
   86MOL    O3018900   3.841   3.659   3.963 -0.4853 -0.0234 -0.4220
   86MOL    H3118901   3.931   3.707   3.724 -0.0916  0.3510  0.6746
   86MOL    H3218902   4.007   3.924   3.635 -1.6534 -0.5253 -0.1521
   86MOL    H3318903   3.888   4.116   3.995  0.4022 -0.5940  0.9411
   86MOL    H3418904   3.838   3.898   4.099  0.5335  1.5046 -0.9365
   86MOL    C3518905   4.160   3.479   4.010  0.0709 -0.3179  0.2647
   86MOL    C3618906   4.069   3.582   3.997 -0.2232 -1.1670 -0.3524
   86MOL    C3718907   3.934   3.558   3.971  0.4851  0.0373 -0.1463
   86MOL    C3818908   3.888   3.425   3.955 -0.4004  0.2261 -0.0388
   86MOL    C3918909   3.984   3.318   3.960 -0.5153  0.0180 -0.0742
   86MOL    C4018910   4.117   3.346   3.994 -0.2258  0.2949  0.0770
   86MOL    O4118911   4.215   3.250   4.017  0.1395  0.5664  0.3778
   86MOL    H4218912   4.259   3.498   4.050 -0.2478  0.2574  0.7973
   86MOL    H4318913   4.102   3.683   4.017 -2.2997 -0.3122 -1.0697
   86MOL    H4418914   3.790   3.395   3.922 -1.4779  1.7139  1.6992
   86MOL    H4518915   3.953   3.214   3.951  1.9022 -0.7679  0.3489
   86MOL    C4618916   4.443   3.120   3.753 -0.0274  0.4258  0.4996
   86MOL    C4718917   4.388   3.202   3.859  0.0347  0.2290  0.3242
   86MOL    C4818918   4.258   3.177   3.909 -0.5977  0.1928 -1.0579
   86MOL    C4918919   4.175   3.080   3.838 -0.6942  0.0572  0.3056
   86MOL    C5018920   4.227   3.014   3.720 -0.4744 -0.1720 -0.3731
   86MOL    C5118921   4.360   3.040   3.680 -0.3044  0.8253 -0.0104
   86MOL    O5218922   4.405   2.991   3.561 -0.3388  0.8460  0.3908
   86MOL    H5318923   4.546   3.147   3.730 -0.4682  2.4123  0.7544
   86MOL    H5418924   4.453   3.279   3.900  0.9611  0.8941 -2.2890
   86MOL    H5518925   4.077   3.047   3.870 -1.2780 -0.3311 -1.8245
   86MOL    H5618926   4.166   2.943   3.666  1.4066 -0.4942 -2.1394
   86MOL    C5718927   4.465   3.079   3.205 -0.1258 -0.2025 -0.2903
   86MOL    C5818928   4.456   3.009   3.325 -0.1065  0.4077 -0.9561
   86MOL    C5918929   4.405   3.060   3.445  0.5590 -0.5185  0.6122
   86MOL    C6018930   4.349   3.191   3.438  0.1947  0.9515 -0.0304
   86MOL    C6118931   4.338   3.260   3.312  0.2321  0.6245 -0.0761
   86MOL    C6218932   4.394   3.200   3.198 -0.6663 -0.5462 -0.1127
   86MOL    O6318933   4.405   3.270   3.084 -0.3120  0.6937  0.2967
   86MOL    H6418934   4.514   3.042   3.116 -0.4350  1.3399 -1.1269
   86MOL    H6518935   4.504   2.912   3.329 -0.8859  0.0074 -1.2598
   86MOL    H6618936   4.313   3.252   3.519 -2.2759  0.7064 -0.8956
   86MOL    H6718937   4.298   3.360   3.298 -0.4806  0.0960 -1.9890
   86MOL    C6818938   4.214   3.067   2.837 -0.2776 -0.5084  0.2728
   86MOL    C6918939   4.264   3.109   2.957 -0.3051  0.2688 -0.4035
   86MOL    C7018940   4.343   3.229   2.966  0.3670  0.1317  0.1033
   86MOL    C7118941   4.351   3.316   2.856 -0.2067  0.4961 -0.6635
   86MOL    C7218942   4.285   3.284   2.736 -0.5881 -0.1979 -0.5689
   86MOL    C7318943   4.219   3.159   2.730  0.2419  0.4295 -0.5323
   86MOL    O7418944   4.169   3.132   2.607 -0.1242  0.5334  0.2768
   86MOL    H7518945   4.152   2.978   2.834 -1.4798  0.3137  0.2589
   86MOL    H7618946   4.233   3.047   3.040 -1.5513  2.0703  0.5133
   86MOL    H7718947   4.406   3.409   2.861  1.4773 -0.3085 -3.2786
   86MOL    H7818948   4.278   3.349   2.649  0.8081 -3.1411 -2.9874
   86MOL    C7918949   4.359   3.202   2.303  0.7530  0.3932  0.3023
   86MOL    C8018950   4.256   3.216   2.398  0.2731  0.6400  0.0302
   86MOL    C8118951   4.260   3.122   2.511  0.2999  0.1713 -1.1891
   86MOL    C8218952   4.353   3.014   2.504 -0.2445  0.3532  0.7607
   86MOL    C8318953   4.448   3.004   2.402  0.0114 -0.3234 -0.2437
   86MOL    C8418954   4.455   3.097   2.301 -0.0662  0.0332 -0.8238
   86MOL    O8518955   4.556   3.100   2.207  0.3930 -0.2204  0.0886
   86MOL    H8618956   4.366   3.282   2.230  0.5409  1.0073  0.9545
   86MOL    H8718957   4.198   3.307   2.399 -1.6671 -0.5757  0.6760
   86MOL    H8818958   4.345   2.934   2.577 -1.6690 -1.2302 -1.0783
   86MOL    H8918959   4.517   2.921   2.409 -0.0208 -0.6501 -3.1319
   86MOL    C9018960   4.835   3.326   2.194  0.6749 -0.9404  0.0309
   86MOL    C9118961   4.704   3.282   2.173 -0.5592  0.0189  0.2085
   86MOL    C9218962   4.672   3.161   2.244 -0.5579 -0.4474  0.2346
   86MOL    C9318963   4.764   3.105   2.338  0.8497 -0.4935 -0.3493
   86MOL    C9418964   4.885   3.168   2.371  0.4917 -0.4762 -0.4590
   86MOL    C9518965   4.920   3.281   2.297 -0.5505 -0.0860  0.1358
   86MOL    O9618966   5.044   3.346   2.324 -0.2926  0.4734  0.6930
   86MOL    H9718967   4.879   3.405   2.136 -2.3289 -0.6565 -1.9499
   86MOL    H9818968   4.633   3.313   2.099 -1.1835 -3.2831 -0.6708
   86MOL    H9918969   4.741   3.013   2.389 -0.5480 -0.0586 -0.1569
   86MOL   H10018970   4.943   3.126   2.453 -2.5753  0.0843  2.0692
   86MOL   C10118971   5.153   3.553   2.602  0.4946 -0.3466 -0.1753
   86MOL   C10218972   5.146   3.447   2.510  0.7119 -0.2793 -0.6749
   86MOL   C10318973   5.043   3.453   2.411 -0.0114  0.7906 -0.3272
   86MOL   C10418974   4.954   3.564   2.406  0.6417  0.1749  0.3279
   86MOL   C10518975   4.969   3.673   2.492 -0.0887 -0.0360 -0.0074
   86MOL   C10618976   5.066   3.659   2.597 -0.9381 -0.7038 -0.1057
   86MOL   O10718977   5.079   3.754   2.691  0.4085  0.0655  0.0962
   86MOL   H10818978   5.223   3.558   2.684 -1.1295 -1.5191  1.2987
   86MOL   H10918979   5.213   3.363   2.498 -0.3807 -1.0549 -1.4369
   86MOL   H11018980   4.866   3.553   2.345 -0.9495  0.7354  2.4590
   86MOL   H11118981   4.904   3.759   2.503  0.9438  0.4264  2.8658
   86MOL   C11218982   4.976   3.611   3.015  0.5759  0.6970  1.1845
   86MOL   C11318983   5.052   3.630   2.898 -0.0360 -0.0369 -0.1918
   86MOL   C11418984   5.008   3.724   2.803  0.0624 -0.5106 -0.3090
   86MOL   C11518985   4.891   3.794   2.827  1.0480 -0.2286 -0.9035
   86MOL   C11618986   4.804   3.751   2.937 -0.5652 -0.3731 -0.4997
   86MOL   C11718987   4.848   3.668   3.033 -0.1159 -1.2655  0.1783
   86MOL   O11818988   4.771   3.645   3.150 -0.2210 -0.4309  0.1916
   86MOL   H11918989   5.024   3.545   3.087 -0.1138 -2.7442 -1.3671
   86MOL   H12018990   5.147   3.579   2.884  0.1157  0.4855 -1.0960
   86MOL   H12118991   4.855   3.874   2.763  0.0859  0.7976  0.8747
   86MOL   H12218992   4.711   3.801   2.959  0.2130  1.4375 -1.2613
   86MOL   C12318993   4.403   3.649   3.095  0.1963  0.0523 -0.2601
   86MOL   C12418994   4.540   3.624   3.070  0.0319  0.4177 -0.8029
   86MOL   C12518995   4.633   3.664   3.167 -0.4682 -0.3293 -0.3531
   86MOL   C12618996   4.594   3.736   3.278 -0.2024 -0.2295  0.8896
   86MOL   C12718997   4.460   3.765   3.299  0.5236  0.2652 -0.4964
   86MOL   C12818998   4.359   3.721   3.206  0.0295 -0.1391 -0.5635
   86MOL   O12918999   4.229   3.762   3.224 -0.3667  0.2389  0.2783
   86MOL   H13019000   4.328   3.612   3.027 -0.0988 -2.6875  1.4577
   86MOL   H13119001   4.575   3.579   2.978  0.1370  0.6767 -0.8900
   86MOL   H13219002   4.658   3.775   3.355 -3.1823  1.8955  2.3941
   86MOL   H13319003   4.439   3.812   3.394 -1.1012 -1.8182  0.1974
   86MOL   C13419004   4.075   4.082   3.320  0.1282  0.3745 -0.0438
   86MOL   C13519005   4.096   3.942   3.312  0.6727  0.1009  0.6009
   86MOL   C13619006   4.203   3.898   3.229 -0.1808  0.6910  0.1652
   86MOL   C13719007   4.270   3.987   3.145  0.0164 -0.0409  0.6146
   86MOL   C13819008   4.235   4.122   3.148 -0.3320  0.0088 -0.5323
   86MOL   C13919009   4.145   4.174   3.240 -0.3496 -0.3255  0.0733
   86MOL   O14019010   4.099   4.304   3.246  0.3832  0.4358 -0.0054
   86MOL   H14119011   3.993   4.112   3.384 -0.0006 -0.2821  0.1098
   86MOL   H14219012   4.035   3.878   3.375  0.8219 -1.4824 -0.8326
   86MOL   H14319013   4.339   3.947   3.072 -1.1348 -2.6571  0.9190
   86MOL   H14419014   4.274   4.187   3.071  0.2767  0.1296 -0.1315
   86MOL   C14519015   4.355   4.490   3.422  0.1601 -0.0661  0.2279
   86MOL   C14619016   4.256   4.395   3.397 -0.6353  0.2868 -0.7993
   86MOL   C14719017   4.191   4.401   3.270 -0.3337  0.9047  0.4458
   86MOL   C14819018   4.221   4.506   3.172 -0.0150  0.4772  0.3122
   86MOL   C14919019   4.329   4.590   3.210 -0.3280 -0.2068  0.0537
   86MOL   C15019020   4.396   4.582   3.330 -0.4352  0.4532  0.0338
   86MOL   O15119021   4.509   4.665   3.358  0.0937 -0.1046  0.0471
   86MOL   H15219022   4.405   4.484   3.518 -1.2668 -0.1659  0.9887
   86MOL   H15319023   4.229   4.317   3.467  2.8169 -1.4649 -1.2838
   86MOL   H15419024   4.151   4.507   3.090 -1.9013 -0.2214  1.8586
   86MOL   H15519025   4.361   4.672   3.147 -0.6282 -0.4183 -0.3728
   86MOL   C15619026   4.757   4.583   3.617  0.8614 -0.4119 -0.2061
   86MOL   C15719027   4.640   4.630   3.561 -0.1986  0.1839  0.4689
   86MOL   C15819028   4.613   4.605   3.423  0.3018 -0.1709  0.2126
   86MOL   C15919029   4.716   4.543   3.339  0.0731 -0.5550 -0.0423
   86MOL   C16019030   4.838   4.510   3.400  0.1846 -0.2061  0.0880
   86MOL   C16119031   4.859   4.530   3.536  0.1279 -0.0257 -0.4792
   86MOL   O16219032   4.975   4.478   3.594 -0.1051 -0.6013  0.2052
   86MOL   H16319033   4.783   4.587   3.722  4.7805 -2.4317 -0.9971
   86MOL   H16419034   4.567   4.680   3.622 -2.4724 -0.9728 -1.2493
   86MOL   H16519035   4.705   4.532   3.232  1.4750 -2.0959 -0.0478
   86MOL   H16619036   4.921   4.466   3.347 -0.8084 -1.0636 -0.7904
   86MOL   C16719037   5.261   4.620   3.401  0.3785  0.4271  0.3194
   86MOL   C16819038   5.141   4.613   3.478 -0.2938  0.1578  1.1070
   86MOL   C16919039   5.096   4.491   3.534 -0.2058 -0.2720  0.2173
   86MOL   C17019040   5.173   4.377   3.509 -0.5208 -0.4881  0.6372
   86MOL   C17119041   5.300   4.384   3.448 -0.0626  0.3995 -0.2715
   86MOL   C17219042   5.342   4.506   3.398  0.1828 -1.1966 -0.3336
   86MOL   O17319043   5.464   4.515   3.339  0.5234 -0.3168 -0.0233
   86MOL   H17419044   5.304   4.711   3.364 -0.0939  0.7674  0.6020
   86MOL   H17519045   5.083   4.705   3.475  2.5784  1.9853 -2.7879
   86MOL   H17619046   5.136   4.280   3.539 -0.3072 -0.4537  1.0138
   86MOL   H17719047   5.359   4.295   3.434 -0.9701 -0.4949  1.3916
   86MOL   C17819048   5.778   4.341   3.340  0.4135  0.3009  0.7242
   86MOL   C17919049   5.663   4.406   3.297  0.1366 -0.0081  1.0741
   86MOL   C18019050   5.568   4.447   3.391 -0.2464 -0.4072 -0.3148
   86MOL   C18119051   5.598   4.437   3.530  0.3967 -0.2346  0.0801
   86MOL   C18219052   5.719   4.381   3.575 -0.0166 -0.6988 -0.0057
   86MOL   C18319053   5.804   4.319   3.477  0.4069  0.3969 -0.6329
   86MOL   O18419054   5.922   4.262   3.513  0.2619 -0.0623  0.3414
   86MOL   H18519055   5.848   4.308   3.264 -0.7387  0.9166 -0.6482
   86MOL   H18619056   5.649   4.425   3.192  1.8069  2.9329  1.3447
   86MOL   H18719057   5.534   4.479   3.606  0.0152 -1.3372  0.3907
   86MOL   H18819058   5.747   4.372   3.679  1.5521 -1.4696 -0.4818
   86MOL   C18919059   5.919   3.897   3.413  0.5004  0.0698 -0.0707
   86MOL   C19019060   5.904   4.039   3.402 -0.0094 -0.2040  0.3428
   86MOL   C19119061   5.923   4.121   3.514  1.7527 -0.4067  1.0476
   86MOL   C19219062   5.947   4.061   3.643 -0.3502 -0.0587 -0.3235
   86MOL   C19319063   5.937   3.924   3.654  0.5415 -0.2446  0.1384
   86MOL   C19419064   5.926   3.838   3.542 -0.2450 -0.7084  0.1628
   86MOL   O19519065   5.936   3.703   3.556  0.2593  0.1072 -0.6294
   86MOL   H19619066   5.926   3.839   3.323  0.8854 -2.1621  1.3634
   86MOL   H19719067   5.910   4.102   3.315 -0.6132 -1.7973 -0.8716
   86MOL   H19819068   5.965   4.125   3.729  1.1629 -1.7350  0.6444
   86MOL   H19919069   5.958   3.875   3.748  1.5536 -0.2857 -0.0976
   86MOL   C20019070   6.177   3.433   3.507 -0.3971 -0.5094  0.6029
   86MOL   C20119071   6.060   3.503   3.525 -0.1734 -0.0656 -0.5658
   86MOL   C20219072   6.063   3.644   3.552 -0.4923 -0.4364 -0.5276
   86MOL   C20319073   6.188   3.711   3.547 -0.3263  0.2340  0.2037
   86MOL   C20419074   6.303   3.632   3.523  0.4974  0.2157  0.1735
   86MOL   C20519075   6.301   3.493   3.502  0.0465 -0.2002  0.9700
   86MOL   O20619076   6.415   3.426   3.468  0.6934 -0.4034 -0.2109
   86MOL   H20719077   6.160   3.327   3.497 -2.2327 -0.1455 -0.3712
   86MOL   H20819078   5.964   3.454   3.525 -0.1966 -0.0301 -1.3217
   86MOL   H20919079   6.186   3.819   3.551  0.3674  0.2642 -0.1366
   86MOL   H21019080   6.394   3.689   3.510 -1.3154  2.9163 -1.2198
   86MOL   C21119081   6.386   3.355   3.101 -0.1603  0.0650 -0.3899
   86MOL   C21219082   6.373   3.416   3.227  0.2583  0.1792 -0.2799
   86MOL   C21319083   6.429   3.359   3.350  0.1669  0.0908 -0.4558
   86MOL   C21419084   6.479   3.229   3.348 -1.2955 -0.2198 -0.6868
   86MOL   C21519085   6.494   3.165   3.220  0.4595  0.0786  0.4790
   86MOL   C21619086   6.446   3.227   3.098 -0.4223 -0.2876  0.2280
   86MOL   O21719087   6.469   3.166   2.979  0.1871  0.6393  0.0589
   86MOL   H21819088   6.346   3.412   3.019  1.6290  3.0677  0.7676
   86MOL   H21919089   6.322   3.511   3.235  3.4484  1.7518  2.4922
   86MOL   H22019090   6.521   3.194   3.442 -1.0086  0.5849 -0.5104
   86MOL   H22119091   6.533   3.065   3.210  1.0341  0.2185  1.2980
   86MOL   H22219092   6.393   3.192   2.928 -0.1688 -0.5679 -0.0427
   87MOL     C119093   6.692   1.455   6.217 -0.0267 -0.2617  0.5564
   87MOL     C219094   6.582   1.370   6.206  0.8090  0.1902 -0.2248
   87MOL     C319095   6.448   1.421   6.215  0.1871  0.0665  0.1588
   87MOL     C419096   6.426   1.559   6.229  0.0631 -0.1345 -0.0071
   87MOL     C519097   6.540   1.646   6.236 -0.2212 -0.4565  0.1576
   87MOL     C619098   6.672   1.591   6.240 -0.8080 -0.0066  0.6268
   87MOL     O719099   6.778   1.680   6.258  0.1387  0.2538 -0.0147
   87MOL     H819100   6.792   1.418   6.199 -1.2098 -3.4807  0.2031
   87MOL     H919101   6.602   1.264   6.194  0.2968  0.1192 -0.4654
   87MOL    H1019102   6.327   1.602   6.242 -0.0487 -1.1130  2.8793
   87MOL    H1119103   6.533   1.754   6.240  0.1461 -0.3129 -2.0086
   87MOL    H1219104   6.363   1.356   6.216  0.1751  0.0445 -1.2429
   87MOL    C1319105   6.894   1.724   6.613  0.2911 -0.8106  0.4968
   87MOL    C1419106   6.853   1.661   6.492 -0.4143  1.2347  0.1771
   87MOL    C1519107   6.794   1.734   6.386  0.1930 -0.4594  0.3134
   87MOL    C1619108   6.764   1.871   6.411 -0.6556  0.6404  0.5890
   87MOL    C1719109   6.791   1.934   6.533  0.5237 -0.1719 -0.1259
   87MOL    C1819110   6.851   1.860   6.634  0.5303  1.0937  0.7546
   87MOL    O1919111   6.876   1.924   6.747 -0.2546 -0.5246  0.1217
   87MOL    H2019112   6.944   1.662   6.686  0.2513 -1.5250 -0.0716
   87MOL    H2119113   6.874   1.555   6.487 -0.6154  1.1939  0.1766
   87MOL    H2219114   6.718   1.926   6.330 -0.4131 -0.9389 -0.6437
   87MOL    H2319115   6.757   2.034   6.556  0.3897 -0.5889  1.5410
   87MOL    C2419116   6.785   1.786   7.076  0.0980 -0.8203  0.3983
   87MOL    C2519117   6.862   1.830   6.968 -0.7575  0.0017 -0.1551
   87MOL    C2619118   6.799   1.890   6.857 -1.2703 -0.1280  0.2228
   87MOL    C2719119   6.661   1.897   6.846 -0.6561 -0.0182  0.3200
   87MOL    C2819120   6.584   1.857   6.959  0.5851 -0.0691  0.6696
   87MOL    C2919121   6.643   1.802   7.072  0.5678  0.1095 -0.1943
   87MOL    O3019122   6.557   1.786   7.178 -0.1857 -0.6026  0.6272
   87MOL    H3119123   6.826   1.757   7.172  0.7143  1.9411  1.0047
   87MOL    H3219124   6.969   1.837   6.970 -0.8327  1.3509 -0.4795
   87MOL    H3319125   6.627   1.945   6.755 -0.4598  1.0203  0.7889
   87MOL    H3419126   6.478   1.880   6.952  0.5953 -0.8040 -2.9298
   87MOL    C3519127   6.338   2.048   7.327  0.8759 -0.2490  0.4638
   87MOL    C3619128   6.379   1.924   7.272 -0.3589 -0.3782 -0.3501
   87MOL    C3719129   6.518   1.902   7.245 -0.6728  0.4869  0.0772
   87MOL    C3819130   6.611   1.986   7.307 -0.6965  0.1317  0.3134
   87MOL    C3919131   6.570   2.107   7.378 -0.4780  0.4336 -0.2465
   87MOL    C4019132   6.432   2.140   7.380  0.2233  0.0816 -0.6051
   87MOL    O4119133   6.391   2.268   7.411 -0.2038 -0.1955 -0.0246
   87MOL    H4219134   6.234   2.079   7.330  1.0898  0.4095  1.2108
   87MOL    H4319135   6.308   1.854   7.229 -1.6503  0.5279  0.2610
   87MOL    H4419136   6.715   1.963   7.289 -1.3186 -0.0498 -3.5618
   87MOL    H4519137   6.654   2.166   7.412 -0.0162 -0.4817  0.2266
   87MOL    C4619138   6.393   2.460   7.096 -0.2142  0.5885  0.0886
   87MOL    C4719139   6.378   2.348   7.182 -0.5239 -0.0145  0.7096
   87MOL    C4819140   6.390   2.370   7.319 -0.2099 -0.5686 -0.6471
   87MOL    C4919141   6.406   2.506   7.367 -0.4840 -0.0804 -0.1655
   87MOL    C5019142   6.406   2.616   7.281 -1.0505 -0.0373 -0.5240
   87MOL    C5119143   6.406   2.596   7.143  0.0048 -0.9895  0.3596
   87MOL    O5219144   6.402   2.704   7.063 -0.3868  0.2012  0.2404
   87MOL    H5319145   6.389   2.436   6.990 -2.0593 -0.6061  0.3957
   87MOL    H5419146   6.363   2.245   7.155 -0.8920 -0.6587  3.2740
   87MOL    H5519147   6.436   2.525   7.469  1.9818  2.4601 -1.3042
   87MOL    H5619148   6.431   2.713   7.322  2.5532 -1.2090  0.2044
   87MOL    C5719149   6.039   2.771   7.055  0.7617 -0.2818  0.5533
   87MOL    C5819150   6.169   2.740   7.103  0.2579  0.9360  0.1260
   87MOL    C5919151   6.278   2.725   7.018 -0.1385  0.2412 -0.2781
   87MOL    C6019152   6.256   2.734   6.878 -0.0351  0.1708  0.3030
   87MOL    C6119153   6.125   2.760   6.824  0.3466 -0.2302  0.0460
   87MOL    C6219154   6.016   2.780   6.914  0.5346  0.3440 -0.3482
   87MOL    O6319155   5.896   2.825   6.863 -0.5205 -0.5949 -0.1030
   87MOL    H6419156   5.957   2.788   7.124  1.6588 -1.2514  1.8914
   87MOL    H6519157   6.175   2.730   7.211  2.4259  0.9082  0.0286
   87MOL    H6619158   6.340   2.728   6.810  0.9124  0.1889  1.4557
   87MOL    H6719159   6.104   2.787   6.722 -0.2670  0.1347  0.2656
   87MOL    C6819160   5.875   3.187   6.910  0.7753 -0.3096 -0.7972
   87MOL    C6919161   5.899   3.049   6.936  0.1635 -0.4430 -0.1183
   87MOL    C7019162   5.882   2.955   6.834 -0.3949  0.1967 -0.2358
   87MOL    C7119163   5.833   2.996   6.708  0.0060 -0.7289  0.8828
   87MOL    C7219164   5.821   3.133   6.678 -0.3202 -0.5387  0.6094
   87MOL    C7319165   5.839   3.228   6.779 -0.3694  0.3349 -0.2703
   87MOL    O7419166   5.844   3.364   6.751  0.6954 -0.3926  0.3238
   87MOL    H7519167   5.895   3.267   6.980  1.6203 -0.1104 -1.2482
   87MOL    H7619168   5.914   3.025   7.040  1.6630 -0.6913 -0.3864
   87MOL    H7719169   5.819   2.925   6.628  3.9534 -1.1288  0.4438
   87MOL    H7819170   5.787   3.159   6.579  0.4683 -3.5619 -0.5049
   87MOL    C7919171   6.209   3.400   6.679 -0.2377 -0.6976 -0.6263
   87MOL    C8019172   6.082   3.339   6.681  0.6404 -0.0060 -0.1664
   87MOL    C8119173   5.973   3.419   6.737 -0.2733  0.6002 -0.3102
   87MOL    C8219174   6.000   3.547   6.783 -0.1590 -0.4474  0.2919
   87MOL    C8319175   6.129   3.607   6.780  0.4304  0.3290 -0.7190
   87MOL    C8419176   6.232   3.529   6.725 -0.2527 -0.3156  0.0073
   87MOL    O8519177   6.366   3.574   6.715  0.4350  0.1195 -0.3884
   87MOL    H8619178   6.293   3.346   6.638  2.9655  3.0078  0.7376
   87MOL    H8719179   6.069   3.234   6.658 -2.5460 -0.0164  1.4054
   87MOL    H8819180   5.914   3.600   6.821  0.1497  1.4041 -1.5057
   87MOL    H8919181   6.138   3.708   6.817 -0.0006 -0.1227  0.6601
   87MOL    C9019182   6.362   3.855   6.481  0.0867 -0.1112 -0.0284
   87MOL    C9119183   6.326   3.730   6.534 -0.6838  0.1424 -0.3641
   87MOL    C9219184   6.387   3.697   6.658  0.4406  0.3501  0.1646
   87MOL    C9319185   6.472   3.787   6.727  0.1798  0.2437 -0.0012
   87MOL    C9419186   6.510   3.906   6.666  0.1624 -0.1399 -1.1259
   87MOL    C9519187   6.455   3.943   6.546  0.9716 -0.2542  0.4931
   87MOL    O9619188   6.499   4.064   6.491 -0.3838 -0.1238 -0.5325
   87MOL    H9719189   6.319   3.888   6.388  1.5113 -1.9484 -1.3666
   87MOL    H9819190   6.259   3.666   6.479  0.4054 -1.0813 -0.2934
   87MOL    H9919191   6.518   3.761   6.821  1.0323  4.3471  0.8492
   87MOL   H10019192   6.582   3.978   6.701 -0.7045  0.5668 -0.7896
   87MOL   C10119193   6.194   4.190   6.338 -0.0558  0.1623  0.2008
   87MOL   C10219194   6.287   4.157   6.437  0.3437 -0.0769  0.4320
   87MOL   C10319195   6.419   4.120   6.402  0.0054 -0.8400  0.1469
   87MOL   C10419196   6.467   4.133   6.269  0.2801  0.5433  0.3023
   87MOL   C10519197   6.375   4.169   6.172 -0.0753 -0.2463 -0.0530
   87MOL   C10619198   6.239   4.191   6.201  0.2316  0.1714 -0.5645
   87MOL   O10719199   6.147   4.217   6.107  0.2081  0.4450  0.5091
   87MOL   H10819200   6.092   4.211   6.368 -0.3975 -0.0057 -0.8026
   87MOL   H10919201   6.253   4.161   6.540  2.3998 -0.5367  1.1612
   87MOL   H11019202   6.568   4.106   6.243 -0.3367 -0.4402 -1.1084
   87MOL   H11119203   6.400   4.169   6.067  2.8671  0.0688  0.6175
   87MOL   C11219204   5.986   3.881   6.040 -0.2262 -0.4223 -0.0549
   87MOL   C11319205   6.056   3.988   6.108 -0.1608 -0.4987  0.5152
   87MOL   C11419206   6.095   4.106   6.042 -0.4686 -0.7901  0.2971
   87MOL   C11519207   6.057   4.124   5.909  0.3093  0.3103 -0.3009
   87MOL   C11619208   5.993   4.021   5.843  0.3538  0.3497  0.4849
   87MOL   C11719209   5.956   3.897   5.906  0.1390 -0.5960  0.0753
   87MOL   O11819210   5.876   3.805   5.840  0.2431  0.2428  0.2195
   87MOL   H11919211   5.946   3.798   6.095 -2.2189  0.2851 -0.4185
   87MOL   H12019212   6.072   3.988   6.215 -1.1166  2.8007  0.7246
   87MOL   H12119213   6.082   4.216   5.858 -0.2130 -0.1027 -1.3148
   87MOL   H12219214   5.967   4.033   5.739  1.6081 -0.0917  0.0990
   87MOL   C12319215   6.063   3.588   5.612 -0.2709  0.3098 -0.2310
   87MOL   C12419216   6.000   3.701   5.660 -0.8540 -0.0061  0.5953
   87MOL   C12519217   5.937   3.692   5.788  0.0283 -0.5427  1.0031
   87MOL   C12619218   5.925   3.578   5.860 -0.6407 -0.5519  0.5731
   87MOL   C12719219   5.994   3.464   5.821  0.3531 -0.0238  0.4172
   87MOL   C12819220   6.070   3.473   5.699  0.1322  0.3624  0.0068
   87MOL   O12919221   6.138   3.365   5.647 -0.1553  0.1803  0.1002
   87MOL   H13019222   6.108   3.592   5.515  0.6813  2.4995  0.2781
   87MOL   H13119223   6.001   3.793   5.604 -0.6734  0.1908  0.9176
   87MOL   H13219224   5.873   3.584   5.954 -0.4119  1.2326  0.6019
   87MOL   H13319225   6.003   3.380   5.888  1.7324  1.2486  1.8663
   87MOL   C13419226   6.506   3.388   5.592 -0.1305  1.2642  0.3586
   87MOL   C13519227   6.368   3.412   5.579  0.0099 -0.0338 -0.6771
   87MOL   C13619228   6.273   3.364   5.675 -0.2168  0.6422 -0.2443
   87MOL   C13719229   6.334   3.291   5.787  1.0125  0.8957 -0.4254
   87MOL   C13819230   6.476   3.276   5.803  0.5753  0.0551  0.2937
   87MOL   C13919231   6.558   3.327   5.705  0.2835 -0.3789  0.1304
   87MOL   O14019232   6.691   3.324   5.703  0.0446  0.5300  0.0715
   87MOL   H14119233   6.569   3.429   5.515  0.3325  0.4577  0.3136
   87MOL   H14219234   6.326   3.460   5.491 -0.8628  0.6857  0.1222
   87MOL   H14319235   6.276   3.242   5.863  2.5373 -0.2223  0.0471
   87MOL   H14419236   6.514   3.223   5.889  0.7492 -1.0775 -0.4781
   87MOL   C14519237   6.857   2.994   5.639  0.0386  0.3583  0.4469
   87MOL   C14619238   6.809   3.127   5.619 -0.0712  0.1010 -0.9977
   87MOL   C14719239   6.754   3.203   5.725  0.1179 -1.0067 -0.4396
   87MOL   C14819240   6.770   3.150   5.857  0.2965 -0.4891 -0.0054
   87MOL   C14919241   6.835   3.025   5.880  0.4970  0.0629 -0.2651
   87MOL   C15019242   6.873   2.944   5.770  0.2386 -0.0165  0.2794
   87MOL   O15119243   6.930   2.822   5.795  0.2135 -0.0364  0.7432
   87MOL   H15219244   6.865   2.934   5.550 -0.1953  3.1376 -1.5118
   87MOL   H15319245   6.798   3.152   5.515  1.8449  1.3180 -0.9117
   87MOL   H15419246   6.738   3.192   5.951 -0.2455 -1.7256  0.3652
   87MOL   H15519247   6.838   2.989   5.982 -2.2003  1.2000  0.2527
   87MOL   C15619248   7.218   2.785   6.018  1.1119  0.4255  0.2186
   87MOL   C15719249   7.090   2.798   5.975 -0.1716  0.4898  0.0153
   87MOL   C15819250   7.060   2.820   5.841  0.4482 -0.0865  0.3735
   87MOL   C15919251   7.168   2.843   5.749 -0.3451 -0.1208  0.8218
   87MOL   C16019252   7.305   2.834   5.793 -0.3536 -0.0244  0.2752
   87MOL   C16119253   7.329   2.802   5.933  0.2163 -0.9279 -0.1029
   87MOL   O16219254   7.455   2.786   5.979  0.6628  0.0963  0.4489
   87MOL   H16319255   7.235   2.747   6.117 -0.5085 -3.8999 -1.0444
   87MOL   H16419256   7.007   2.796   6.044  1.1169  2.5379  1.6807
   87MOL   H16519257   7.135   2.856   5.647 -1.8621 -1.1499  1.1672
   87MOL   H16619258   7.392   2.849   5.730 -0.3038 -1.2263  0.0530
   87MOL   C16719259   7.547   3.102   6.145 -0.4970 -0.4977  0.0136
   87MOL   C16819260   7.499   3.010   6.049 -1.0508  0.7650  0.1395
   87MOL   C16919261   7.498   2.872   6.080 -0.1788  0.8050 -0.0098
   87MOL   C17019262   7.539   2.825   6.201 -0.0771 -0.4423 -0.0175
   87MOL   C17119263   7.577   2.914   6.303 -0.3958 -0.1775 -0.6284
   87MOL   C17219264   7.578   3.053   6.272  0.3216 -0.1380 -0.3491
   87MOL   O17319265   7.603   3.136   6.382 -0.2038  0.4083 -0.1493
   87MOL   H17419266   7.543   3.209   6.128  3.0255 -0.2951  0.0403
   87MOL   H17519267   7.455   3.042   5.956 -1.4265 -3.4405 -1.2224
   87MOL   H17619268   7.528   2.718   6.215 -0.8976 -0.2631  0.7336
   87MOL   H17719269   7.599   2.886   6.405  0.2084  0.2615 -0.6285
   87MOL   C17819270   7.956   3.171   6.466  0.5572  0.9050 -0.4859
   87MOL   C17919271   7.833   3.113   6.444  0.2747 -0.4496  0.4132
   87MOL   C18019272   7.730   3.192   6.392  0.3182 -0.1434 -0.6373
   87MOL   C18119273   7.747   3.332   6.363  0.0752 -0.4188 -0.4830
   87MOL   C18219274   7.872   3.383   6.402 -0.4480 -0.8734 -0.3067
   87MOL   C18319275   7.978   3.310   6.461  0.5739  0.2509 -0.2423
   87MOL   O18419276   8.091   3.366   6.521 -0.1645 -1.0209  0.2638
   87MOL   H18519277   8.027   3.108   6.518 -2.3868 -0.7532  1.6910
   87MOL   H18619278   7.809   3.013   6.477 -1.3530 -0.0029  0.6373
   87MOL   H18719279   7.671   3.394   6.317  0.0881  1.3611  1.8145
   87MOL   H18819280   7.888   3.489   6.390  1.6669 -1.1735 -0.2479
   87MOL   C18919281   8.157   3.727   6.530  0.1215  0.8997 -0.7058
   87MOL   C19019282   8.114   3.602   6.572  0.2572 -0.4787  0.4807
   87MOL   C19119283   8.127   3.496   6.485 -0.1686  0.5771 -0.3352
   87MOL   C19219284   8.190   3.514   6.362 -0.2970 -0.1383 -0.4107
   87MOL   C19319285   8.230   3.639   6.321  0.8851 -0.0544 -0.0317
   87MOL   C19419286   8.203   3.751   6.400  0.0086  0.2127 -0.2531
   87MOL   O19519287   8.223   3.880   6.352 -0.3981 -0.1204  0.6203
   87MOL   H19619288   8.142   3.811   6.596 -2.5004  0.1636 -0.3199
   87MOL   H19719289   8.066   3.592   6.668  0.2029 -0.8648  0.4137
   87MOL   H19819290   8.219   3.422   6.314  0.8700  0.2238 -0.4318
   87MOL   H19919291   0.031   3.653   6.229  0.4834 -0.6975 -0.3743
   87MOL   C20019292   7.929   3.981   6.159  0.4444 -0.0840  0.1379
   87MOL   C20119293   8.010   3.936   6.264  0.5433  0.0933  0.3611
   87MOL   C20219294   8.146   3.917   6.250  0.4590 -0.5276 -0.3471
   87MOL   C20319295   8.205   3.948   6.127  0.6550 -0.3776  0.1691
   87MOL   C20419296   8.126   4.004   6.023 -0.0627 -0.0998  0.8881
   87MOL   C20519297   7.984   4.015   6.037 -0.1869  0.0913  0.1159
   87MOL   O20619298   7.908   4.052   5.931 -0.5048  0.2915 -0.1044
   87MOL   H20719299   7.823   3.990   6.178  0.5530  2.1232 -0.2249
   87MOL   H20819300   7.954   3.908   6.352 -3.3888 -0.9709 -2.3475
   87MOL   H20919301   0.058   3.943   6.112  0.8182 -1.1158  1.4661
   87MOL   H21019302   8.167   4.007   5.923 -0.4996 -1.3509  0.6615
   87MOL   C21119303   7.728   3.749   5.829  0.1905 -0.0854  0.3201
   87MOL   C21219304   7.832   3.840   5.847  0.2109  0.4703 -0.1678
   87MOL   C21319305   7.800   3.965   5.899 -0.0099 -0.4096 -0.8529
   87MOL   C21419306   7.669   4.000   5.936 -1.0136  0.1807  0.4430
   87MOL   C21519307   7.567   3.909   5.916 -0.5864 -0.3629  0.2412
   87MOL   C21619308   7.597   3.781   5.861 -0.4903  0.1538  0.1211
   87MOL   O21719309   7.502   3.688   5.844 -0.0947  0.1559  0.2319
   87MOL   H21819310   7.765   3.651   5.802 -0.2789 -0.1573 -0.0666
   87MOL   H21919311   7.936   3.819   5.829  0.4514  0.6215  1.0432
   87MOL   H22019312   7.653   4.096   5.984 -2.8443 -0.1975  0.6485
   87MOL   H22119313   7.467   3.932   5.950 -0.8536 -1.2827  0.0882
   87MOL   H22219314   7.525   3.605   5.806 -0.8926  0.2517 -0.4884
   88MOL     C119315   7.221   7.503   5.999  0.3745 -0.4418 -0.4122
   88MOL     C219316   7.114   7.591   6.028  0.3396  0.7407 -0.0632
   88MOL     C319317   6.986   7.561   5.979  0.5503 -0.1005  0.0116
   88MOL     C419318   6.965   7.438   5.915  0.1119 -0.5142 -0.1268
   88MOL     C519319   7.072   7.346   5.895 -0.2728  0.0684 -0.0985
   88MOL     C619320   7.197   7.378   5.933 -0.3015 -0.0509  0.4904
   88MOL     O719321   7.307   7.299   5.910 -0.3575 -0.8890  0.2022
   88MOL     H819322   7.323   7.523   6.030  0.3178  0.9342 -1.1023
   88MOL     H919323   7.139   7.679   6.084  1.8985  1.3831 -1.7200
   88MOL    H1019324   6.876   7.398   5.870 -0.1379  0.7936 -0.8094
   88MOL    H1119325   7.050   7.251   5.847  2.0716 -0.8096  0.4673
   88MOL    H1219326   6.896   7.615   6.008 -1.2680 -2.8513 -0.3065
   88MOL    C1319327   7.397   6.945   5.963 -0.0514 -0.0832  0.1548
   88MOL    C1419328   7.378   7.070   5.903  0.2023 -0.2882 -0.4109
   88MOL    C1519329   7.317   7.175   5.973 -0.1684 -0.1644 -0.5723
   88MOL    C1619330   7.249   7.150   6.094 -0.5859 -0.0387 -0.1229
   88MOL    C1719331   7.263   7.024   6.150  0.0097  0.3978  0.0858
   88MOL    C1819332   7.341   6.919   6.091  0.2149  0.1512 -0.2064
   88MOL    O1919333   7.352   6.792   6.150 -0.5676 -0.2357 -0.4059
   88MOL    H2019334   7.469   6.879   5.917 -0.4731 -2.5922  2.9663
   88MOL    H2119335   7.415   7.089   5.803 -2.1522  1.4954 -0.9952
   88MOL    H2219336   7.186   7.224   6.141 -1.4746 -1.2743  0.6560
   88MOL    H2319337   7.211   7.014   6.245 -1.5903  1.1189 -0.6931
   88MOL    C2419338   7.188   6.777   6.476  0.1409  0.3847 -0.4522
   88MOL    C2519339   7.288   6.789   6.381 -0.3368 -0.2069 -0.0447
   88MOL    C2619340   7.262   6.762   6.247 -0.0549  0.4605 -0.3700
   88MOL    C2719341   7.131   6.712   6.211  0.7120 -0.2878 -0.0832
   88MOL    C2819342   7.035   6.695   6.302  0.4506 -0.6838 -0.2233
   88MOL    C2919343   7.060   6.727   6.439  0.7606 -0.5308  0.2076
   88MOL    O3019344   6.965   6.711   6.538  0.1803  0.2623 -0.0047
   88MOL    H3119345   7.206   6.802   6.580  2.5117  1.5575 -1.1048
   88MOL    H3219346   7.384   6.832   6.407 -0.9351  0.9371  0.3264
   88MOL    H3319347   7.113   6.695   6.106 -1.7978 -0.4037  0.3252
   88MOL    H3419348   6.932   6.678   6.275  0.1009 -1.1502  1.3615
   88MOL    C3519349   6.731   6.423   6.528 -0.1774 -0.2450 -0.0661
   88MOL    C3619350   6.781   6.548   6.499 -0.8652  0.0425 -0.2043
   88MOL    C3719351   6.905   6.587   6.558  0.1739 -0.1247  0.8457
   88MOL    C3819352   6.978   6.498   6.638  0.2451  0.0266  1.1774
   88MOL    C3919353   6.931   6.371   6.671 -0.6980  1.0572  0.0866
   88MOL    C4019354   6.808   6.331   6.606 -0.0099  0.0344 -0.4018
   88MOL    O4119355   6.756   6.209   6.631  0.5483  0.2543  0.0310
   88MOL    H4219356   6.646   6.379   6.478 -0.6818 -0.7936  1.2666
   88MOL    H4319357   6.726   6.607   6.427 -0.1112  0.2852 -0.5835
   88MOL    H4419358   7.070   6.529   6.687 -1.1673  2.0362  2.6276
   88MOL    H4519359   6.982   6.302   6.737  0.5778  1.3834 -0.5456
   88MOL    C4619360   6.859   6.030   6.316  0.4016 -0.2178 -0.5682
   88MOL    C4719361   6.861   6.121   6.422 -0.3505 -0.8399 -0.2855
   88MOL    C4819362   6.757   6.121   6.522  0.2771 -0.4474  0.2253
   88MOL    C4919363   6.657   6.024   6.510  0.0955  0.2961 -0.7393
   88MOL    C5019364   6.660   5.919   6.416 -0.6337 -0.2284 -0.2270
   88MOL    C5119365   6.758   5.927   6.311  0.4213 -1.1000 -0.1649
   88MOL    O5219366   6.752   5.838   6.211  0.6951 -0.1847 -0.0080
   88MOL    H5319367   6.933   6.023   6.238  1.5058  3.3956  0.1032
   88MOL    H5419368   6.946   6.186   6.428 -1.3984  0.4900  0.3881
   88MOL    H5519369   6.585   6.018   6.590  1.5684  0.4057  0.6307
   88MOL    H5619370   6.586   5.842   6.435  0.7205 -1.5872 -0.4316
   88MOL    C5719371   6.854   5.848   5.847  0.7151  0.2625 -0.0082
   88MOL    C5819372   6.782   5.860   5.968  0.0248  0.4505  0.2039
   88MOL    C5919373   6.834   5.846   6.096  0.1356  0.0374 -0.3636
   88MOL    C6019374   6.973   5.816   6.106 -0.0845 -0.1173 -0.6162
   88MOL    C6119375   7.046   5.803   5.986 -0.2564 -0.0706  0.5569
   88MOL    C6219376   6.989   5.812   5.857  0.3707  0.7474  1.1931
   88MOL    O6319377   7.081   5.799   5.749  0.1914 -0.4806 -0.0418
   88MOL    H6419378   6.799   5.869   5.756 -1.1157  1.9452  1.4236
   88MOL    H6519379   6.677   5.882   5.953 -0.0447 -0.0657 -0.0878
   88MOL    H6619380   7.005   5.792   6.206  0.3373 -1.1532 -0.9933
   88MOL    H6719381   7.148   5.767   5.982 -0.5899 -0.8816 -2.1162
   88MOL    C6819382   7.405   5.960   5.785  0.2611  0.0536 -0.1748
   88MOL    C6919383   7.308   5.860   5.779 -0.9893 -0.3224 -0.5184
   88MOL    C7019384   7.175   5.899   5.748 -1.3680  0.2770  0.7655
   88MOL    C7119385   7.142   6.032   5.715 -0.2718 -0.3018  0.1694
   88MOL    C7219386   7.247   6.131   5.719  0.0911  0.5722 -0.3122
   88MOL    C7319387   7.379   6.096   5.757 -0.1877  0.0310 -0.3315
   88MOL    O7419388   7.477   6.188   5.753 -0.1710  0.1323 -0.4805
   88MOL    H7519389   7.501   5.925   5.819 -0.3719 -1.9694 -0.4456
   88MOL    H7619390   7.335   5.756   5.790  0.1870  0.0350  0.0352
   88MOL    H7719391   7.036   6.055   5.718 -0.2479 -0.2849  0.9700
   88MOL    H7819392   7.210   6.228   5.690 -1.7495 -0.2084 -0.6403
   88MOL    C7919393   7.646   6.354   6.028 -0.5366 -0.3114  0.4530
   88MOL    C8019394   7.614   6.254   5.930 -0.5444 -0.2778  0.2794
   88MOL    C8119395   7.492   6.264   5.861 -0.4645 -0.0678  0.4240
   88MOL    C8219396   7.404   6.371   5.886 -0.0647  0.4066 -0.0517
   88MOL    C8319397   7.433   6.469   5.988 -0.6240  0.2534 -0.5133
   88MOL    C8419398   7.552   6.460   6.059  0.1861  0.3680  0.1683
   88MOL    O8519399   7.587   6.548   6.160  0.3609 -0.2286 -0.2731
   88MOL    H8619400   7.743   6.357   6.075  0.1824 -0.0933 -1.0387
   88MOL    H8719401   7.690   6.188   5.891 -0.3305 -0.2281  0.6074
   88MOL    H8819402   7.307   6.388   5.841 -0.1681  1.2568  0.4851
   88MOL    H8919403   7.358   6.544   6.010 -0.8924  0.1288 -0.9927
   88MOL    C9019404   7.644   6.465   6.519  0.4134 -0.1364  0.0816
   88MOL    C9119405   7.667   6.501   6.385  0.3304  0.2001 -0.0660
   88MOL    C9219406   7.562   6.514   6.292 -0.0071  0.9673 -0.7384
   88MOL    C9319407   7.434   6.501   6.346  0.0408  0.2955 -0.2660
   88MOL    C9419408   7.410   6.468   6.481 -0.2403 -0.2723  0.3900
   88MOL    C9519409   7.515   6.449   6.570 -0.5648 -0.1204 -0.1551
   88MOL    O9619410   7.502   6.414   6.699  0.1135  0.2982  0.2472
   88MOL    H9719411   7.733   6.456   6.580  0.3447  1.1318  0.3867
   88MOL    H9819412   7.766   6.515   6.344  1.1534 -1.3144  1.3508
   88MOL    H9919413   7.350   6.502   6.279  1.8941 -1.5150 -2.7361
   88MOL   H10019414   7.309   6.468   6.518 -0.0337  0.1597  0.9664
   88MOL   C10119415   7.220   6.222   6.835 -0.0767  0.8102  0.9429
   88MOL   C10219416   7.300   6.333   6.805 -0.3218 -0.4689  0.0411
   88MOL   C10319417   7.424   6.311   6.732  0.4961 -0.0894  0.0021
   88MOL   C10419418   7.458   6.178   6.701  0.1822 -0.6230  0.4380
   88MOL   C10519419   7.380   6.069   6.734 -0.0163 -0.7767 -0.0930
   88MOL   C10619420   7.255   6.093   6.798 -0.6356  0.2645 -0.7195
   88MOL   O10719421   7.169   5.984   6.815  0.2564 -0.0322 -0.2452
   88MOL   H10819422   7.125   6.231   6.885 -0.5641  0.2355  0.1202
   88MOL   H10919423   7.278   6.433   6.837  2.1559  0.5154 -1.1750
   88MOL   H11019424   7.556   6.152   6.665  0.7477  1.0800  0.7325
   88MOL   H11119425   7.405   5.967   6.708 -0.5832 -1.4497  1.9452
   88MOL   C11219426   7.045   5.814   6.510  0.7234 -0.2144  0.1101
   88MOL   C11319427   7.064   5.910   6.615 -0.1144  0.0570 -0.0992
   88MOL   C11419428   7.163   5.892   6.717  0.0024 -0.6615 -0.0071
   88MOL   C11519429   7.235   5.771   6.715  0.2743  0.6877 -0.5810
   88MOL   C11619430   7.218   5.680   6.614  0.2250 -0.7110  0.0788
   88MOL   C11719431   7.128   5.698   6.509 -0.4615  0.7757 -0.1395
   88MOL   O11819432   7.110   5.615   6.407 -0.6506 -0.1200  0.3916
   88MOL   H11919433   6.982   5.837   6.425  2.4609 -0.3127 -1.2438
   88MOL   H12019434   7.004   5.999   6.615 -0.9683 -0.4575 -2.8163
   88MOL   H12119435   7.310   5.753   6.790 -0.9435 -2.8750 -0.0878
   88MOL   H12219436   7.262   5.582   6.627 -0.9027 -1.4895 -1.8456
   88MOL   C12319437   6.810   5.410   6.499 -0.4440  0.9102 -0.6721
   88MOL   C12419438   6.893   5.522   6.480 -1.1733 -0.1448 -0.0545
   88MOL   C12519439   7.020   5.516   6.418 -0.5297  0.6258  0.3604
   88MOL   C12619440   7.049   5.390   6.357  0.2121 -0.1845  0.4213
   88MOL   C12719441   6.963   5.279   6.363 -0.2971  0.2798  1.0760
   88MOL   C12819442   6.847   5.284   6.443 -0.3530 -0.2567 -0.6179
   88MOL   O12919443   6.772   5.172   6.459  0.3757  0.1080 -0.6308
   88MOL   H13019444   6.720   5.424   6.556 -1.6636  0.3864 -2.4380
   88MOL   H13119445   6.852   5.613   6.522 -1.6441 -0.4321  0.1114
   88MOL   H13219446   7.147   5.373   6.316 -1.0869 -1.2311 -2.3662
   88MOL   H13319447   6.982   5.187   6.309  0.8756  0.1886  1.6211
   88MOL   C13419448   6.418   5.219   6.364 -0.0505  0.1742 -0.0145
   88MOL   C13519449   6.556   5.197   6.351 -0.4384 -0.0929 -0.8356
   88MOL   C13619450   6.633   5.185   6.466  0.8582  0.2921 -0.0665
   88MOL   C13719451   6.570   5.191   6.592 -0.1294  0.5571 -0.7125
   88MOL   C13819452   6.435   5.214   6.607  0.0645  0.5817 -0.3585
   88MOL   C13919453   6.359   5.233   6.488  0.7990 -0.5840 -0.7979
   88MOL   O14019454   6.227   5.269   6.496 -0.6915 -0.7774 -0.6986
   88MOL   H14119455   6.355   5.234   6.278 -0.7324 -3.7166 -0.2733
   88MOL   H14219456   6.598   5.187   6.252 -0.9870  3.0977 -1.4133
   88MOL   H14319457   6.632   5.194   6.680  0.0305  1.3608 -0.8487
   88MOL   H14419458   6.393   5.210   6.707 -1.1108 -1.4559 -0.9025
   88MOL   C14519459   5.999   5.000   6.406  0.5928 -0.1926  0.1646
   88MOL   C14619460   6.077   5.114   6.399 -0.4065  0.2335  0.2816
   88MOL   C14719461   6.142   5.168   6.511  0.1755  0.0886  0.4387
   88MOL   C14819462   6.118   5.113   6.636 -0.1786  0.0779  0.0546
   88MOL   C14919463   6.024   5.006   6.642  0.6210 -0.0053 -0.0931
   88MOL   C15019464   5.961   4.950   6.531  0.5203  0.1510 -0.3589
   88MOL   O15119465   5.857   4.861   6.528 -0.1735  0.0776  0.1202
   88MOL   H15219466   5.955   4.962   6.316 -1.9232  1.3017  0.6988
   88MOL   H15319467   6.107   5.156   6.304  2.5774  0.6380  1.3556
   88MOL   H15419468   6.174   5.152   6.720 -0.5887  1.0110 -0.0997
   88MOL   H15519469   5.986   4.972   6.737 -3.3366  2.7741 -0.5664
   88MOL   C15619470   5.679   4.684   6.805  0.8157 -0.4826  0.8652
   88MOL   C15719471   5.706   4.779   6.699 -0.7195 -0.4143  0.4790
   88MOL   C15819472   5.830   4.771   6.630  0.2683 -0.7865 -0.6792
   88MOL   C15919473   5.920   4.663   6.656  0.5133 -0.1608 -0.3974
   88MOL   C16019474   5.880   4.565   6.754 -0.3064  0.2966 -0.4293
   88MOL   C16119475   5.761   4.569   6.826  0.6388 -0.2798  1.3455
   88MOL   O16219476   5.728   4.471   6.915  0.1343 -0.2579  0.2163
   88MOL   H16319477   5.594   4.703   6.868  0.7078  2.4241 -0.1054
   88MOL   H16419478   5.646   4.868   6.689  0.8696  0.3767 -2.4165
   88MOL   H16519479   6.018   4.650   6.612  1.7720 -1.1342  2.5620
   88MOL   H16619480   5.940   4.477   6.770  0.0441  0.2883 -1.7604
   88MOL   C16719481   5.432   4.260   6.919  0.6534  0.3240 -0.0601
   88MOL   C16819482   5.521   4.360   6.948 -0.1657 -1.2143  0.0133
   88MOL   C16919483   5.639   4.375   6.883 -0.4429 -0.2962  0.2476
   88MOL   C17019484   5.677   4.277   6.797  0.0222  0.9785  0.0541
   88MOL   C17119485   5.589   4.170   6.763  0.5345 -0.1847 -0.2875
   88MOL   C17219486   5.462   4.165   6.821  0.9095 -0.1851  0.1212
   88MOL   O17319487   5.372   4.075   6.788 -0.0750 -0.4249  0.2206
   88MOL   H17419488   5.334   4.256   6.963  0.5763 -1.4312 -0.3252
   88MOL   H17519489   5.500   4.436   7.022  1.0896 -0.4653 -0.3834
   88MOL   H17619490   5.775   4.281   6.751  0.4337 -0.0507  0.8252
   88MOL   H17719491   5.621   4.107   6.681  1.3584  1.4374 -1.2294
   88MOL   C17819492   5.215   4.167   6.476 -0.6884  0.9520  0.1254
   88MOL   C17919493   5.266   4.175   6.605  0.0905 -0.3577 -0.0154
   88MOL   C18019494   5.342   4.065   6.657  0.2356  0.1612  0.1426
   88MOL   C18119495   5.353   3.938   6.595  0.3636 -0.7770  0.3112
   88MOL   C18219496   5.289   3.933   6.469  0.4769  0.1571 -0.4383
   88MOL   C18319497   5.224   4.046   6.417  0.5368  0.1751 -0.3664
   88MOL   O18419498   5.164   4.035   6.292 -0.0052 -0.1702  0.2625
   88MOL   H18519499   5.163   4.255   6.441 -2.6297  0.3210  1.3732
   88MOL   H18619500   5.258   4.266   6.662  1.2500  0.0245 -0.4580
   88MOL   H18719501   5.402   3.854   6.641  0.1318 -0.1543  1.7228
   88MOL   H18819502   5.283   3.837   6.419 -0.3781 -0.8254  1.4777
   88MOL   C18919503   4.889   3.773   6.302  0.2013 -0.0989  0.1757
   88MOL   C19019504   5.014   3.836   6.305 -0.5240  0.2779  0.0306
   88MOL   C19119505   5.039   3.973   6.285  0.2172 -0.7684  0.1224
   88MOL   C19219506   4.926   4.058   6.266 -0.3092 -0.4067 -0.5007
   88MOL   C19319507   4.796   3.992   6.256 -0.0350 -0.2361 -0.0382
   88MOL   C19419508   4.782   3.851   6.264 -0.2312  0.8061  0.0947
   88MOL   O19519509   4.654   3.798   6.250  0.7460 -0.4528  0.3550
   88MOL   H19619510   4.880   3.665   6.299  0.0696 -0.0657 -0.7425
   88MOL   H19719511   5.098   3.770   6.326 -1.0331 -0.0934  0.9418
   88MOL   H19819512   4.933   4.166   6.267 -0.2804 -0.4181  1.8512
   88MOL   H19919513   4.708   4.051   6.234 -1.6579 -1.0254  4.0041
   88MOL   C20019514   4.413   3.897   6.508 -0.1487  0.4423  0.1439
   88MOL   C20119515   4.498   3.898   6.390  0.5190 -1.0135  0.9965
   88MOL   C20219516   4.588   3.793   6.366  0.8769 -0.6453 -0.1664
   88MOL   C20319517   4.599   3.684   6.458  0.5505  0.1424  0.2398
   88MOL   C20419518   4.524   3.687   6.574  0.1640 -0.1818 -0.4067
   88MOL   C20519519   4.426   3.793   6.602  0.8002  0.1361  0.2058
   88MOL   O20619520   4.348   3.771   6.717  0.0740  0.1725  0.8119
   88MOL   H20719521   4.346   3.979   6.531 -2.1873 -1.8315  2.6189
   88MOL   H20819522   4.486   3.980   6.320 -1.0198 -2.8179 -0.9327
   88MOL   H20919523   4.664   3.599   6.442 -0.7733 -0.7462 -0.5021
   88MOL   H21019524   4.519   3.606   6.646 -0.9907 -1.0123 -1.3864
   88MOL   C21119525   4.232   4.079   6.880  0.1829 -0.1969  0.2168
   88MOL   C21219526   4.237   3.966   6.793 -0.0329 -0.1479 -0.4285
   88MOL   C21319527   4.344   3.875   6.807  0.4790 -0.0948  0.7676
   88MOL   C21419528   4.444   3.892   6.898 -0.1244 -0.1811 -0.4964
   88MOL   C21519529   4.445   4.001   6.981 -0.2811  0.3375 -0.6204
   88MOL   C21619530   4.336   4.089   6.971 -0.4411 -0.7674 -0.5300
   88MOL   O21719531   4.320   4.188   7.064 -1.0091 -0.5672  0.5631
   88MOL   H21819532   4.150   4.149   6.882  0.4718  0.1695 -0.7498
   88MOL   H21919533   4.152   3.945   6.729 -1.9070  0.8563  1.6878
   88MOL   H22019534   4.526   3.821   6.906  0.4255  0.4564 -0.4390
   88MOL   H22119535   4.526   4.008   7.052 -0.3324  0.1325 -0.5420
   88MOL   H22219536   4.367   4.179   7.146  1.0127  0.6853 -0.4087
   89MOL     C119537   3.115   2.147   7.235 -0.2123 -0.0741 -0.1187
   89MOL     C219538   3.145   2.180   7.099 -0.0182  0.7763 -0.6759
   89MOL     C319539   3.119   2.308   7.048  0.3253  0.0436 -0.6278
   89MOL     C419540   3.060   2.401   7.130 -0.3417 -0.1863  0.5459
   89MOL     C519541   3.021   2.370   7.264  0.3298 -0.3903  0.3426
   89MOL     C619542   3.062   2.246   7.318 -0.1544  0.0750  0.0986
   89MOL     O719543   3.028   2.221   7.448  0.8298 -0.1509 -0.5429
   89MOL     H819544   3.132   2.045   7.267 -3.2144 -0.5078  0.2543
   89MOL     H919545   3.192   2.112   7.029 -0.1929 -2.6915  2.4169
   89MOL    H1019546   3.049   2.504   7.100  1.3266  0.6272  2.6333
   89MOL    H1119547   2.973   2.438   7.333 -0.6095  0.3901 -1.0671
   89MOL    H1219548   3.132   2.320   6.942  1.5392  0.7687 -0.4103
   89MOL    C1319549   3.200   2.082   7.735 -0.1389  0.2898 -0.4328
   89MOL    C1419550   3.105   2.094   7.635 -0.1593 -0.0580 -0.0483
   89MOL    C1519551   3.132   2.189   7.535 -0.1966 -0.4111 -0.1931
   89MOL    C1619552   3.251   2.261   7.537 -0.7501  0.2835  0.1616
   89MOL    C1719553   3.352   2.238   7.625  0.4684  0.3703  0.0452
   89MOL    C1819554   3.323   2.149   7.731  0.0014  0.1763  0.2491
   89MOL    O1919555   3.413   2.116   7.829 -0.3752  0.2313 -0.1851
   89MOL    H2019556   3.178   2.008   7.810 -0.4589 -0.0505 -0.8589
   89MOL    H2119557   3.013   2.037   7.638  0.9265 -1.7954  2.1482
   89MOL    H2219558   3.274   2.334   7.462  0.2710 -0.9961 -0.7820
   89MOL    H2319559   3.443   2.295   7.622  0.0401  1.0836  0.6662
   89MOL    C2419560   3.759   2.035   7.713 -0.1602 -0.6281  0.1420
   89MOL    C2519561   3.649   2.110   7.744 -0.2942  0.2246  0.1634
   89MOL    C2619562   3.530   2.042   7.793 -0.4302 -0.2764  0.7904
   89MOL    C2719563   3.528   1.901   7.796 -0.0610 -0.2192  0.0104
   89MOL    C2819564   3.646   1.826   7.760 -0.2385  0.2949 -0.1516
   89MOL    C2919565   3.766   1.896   7.714  0.7627  0.0745 -0.1117
   89MOL    O3019566   3.882   1.833   7.685  0.5390  0.2644  0.0145
   89MOL    H3119567   3.846   2.091   7.680  0.5284 -0.7558  1.6782
   89MOL    H3219568   3.647   2.218   7.734 -1.5625  0.2120  0.1935
   89MOL    H3319569   3.435   1.852   7.821 -1.0278  1.4552 -0.2816
   89MOL    H3419570   3.645   1.721   7.784  0.9053 -0.1917 -2.1490
   89MOL    C3519571   3.906   1.519   7.498  0.4285  0.3664  0.8317
   89MOL    C3619572   3.919   1.616   7.598  0.2889 -0.3322 -0.0445
   89MOL    C3719573   3.862   1.743   7.581 -1.2087 -0.7143  0.0052
   89MOL    C3819574   3.786   1.776   7.464  0.0226 -0.5233  0.1917
   89MOL    C3919575   3.769   1.679   7.368  0.2421 -0.1652  0.1590
   89MOL    C4019576   3.830   1.554   7.383  0.0870 -0.2477 -0.3081
   89MOL    O4119577   3.825   1.457   7.283  0.1476  0.2819 -0.2470
   89MOL    H4219578   3.945   1.419   7.511  0.1776 -0.0466 -1.4455
   89MOL    H4319579   3.975   1.583   7.684  0.9961  0.5605 -0.1558
   89MOL    H4419580   3.750   1.878   7.463 -0.5123 -0.7182 -0.7938
   89MOL    H4519581   3.711   1.706   7.281 -0.7587  1.0608  1.2020
   89MOL    C4619582   4.058   1.596   7.015 -0.7618  0.6362 -0.6352
   89MOL    C4719583   4.009   1.565   7.145 -0.2271 -0.6349 -0.0559
   89MOL    C4819584   3.892   1.482   7.163  0.4813 -0.5035  0.2315
   89MOL    C4919585   3.824   1.440   7.046 -0.1139  0.5525  0.1558
   89MOL    C5019586   3.864   1.481   6.918 -0.3060  0.1532  0.2379
   89MOL    C5119587   3.980   1.557   6.901  0.3481  0.3920  0.5300
   89MOL    O5219588   4.023   1.594   6.776 -0.0204 -0.6671 -0.4109
   89MOL    H5319589   4.143   1.662   7.004 -0.7140  0.3138 -2.3651
   89MOL    H5419590   4.059   1.615   7.227  0.8836 -0.3117 -0.9130
   89MOL    H5519591   3.740   1.373   7.042  0.7690 -0.5295 -0.4010
   89MOL    H5619592   3.818   1.452   6.824 -0.3826 -1.7891  0.8402
   89MOL    C5719593   4.226   1.318   6.647  0.1814 -0.2552 -0.6175
   89MOL    C5819594   4.180   1.421   6.726  0.6723 -0.6044 -0.5218
   89MOL    C5919595   4.071   1.503   6.690 -0.0526  0.0012  0.0845
   89MOL    C6019596   4.019   1.488   6.561  0.0770 -0.0090 -1.0723
   89MOL    C6119597   4.075   1.397   6.475 -0.0569  0.5462 -0.0230
   89MOL    C6219598   4.178   1.306   6.516  0.1989  0.9084 -0.8906
   89MOL    O6319599   4.227   1.211   6.430 -0.2998 -0.4382 -0.2289
   89MOL    H6419600   4.308   1.260   6.686  0.9991  0.6267 -1.0062
   89MOL    H6519601   4.213   1.434   6.828 -5.3917 -0.8685  1.6775
   89MOL    H6619602   3.931   1.542   6.530 -1.2158 -0.5189  1.5525
   89MOL    H6719603   4.025   1.377   6.381  0.4754  1.0351 -0.4111
   89MOL    C6819604   3.970   1.004   6.278  0.0177 -0.3885  0.1841
   89MOL    C6919605   4.050   1.117   6.301  0.1849 -0.2777  0.5303
   89MOL    C7019606   4.151   1.108   6.397  0.2868  0.5685  0.6678
   89MOL    C7119607   4.172   0.987   6.474  0.2409  0.8671  0.3268
   89MOL    C7219608   4.097   0.869   6.443  0.0675 -0.1004  0.6431
   89MOL    C7319609   3.997   0.878   6.345  0.1866  0.0874  0.2434
   89MOL    O7419610   3.918   0.772   6.327  0.0752  0.3657 -0.3663
   89MOL    H7519611   3.893   1.028   6.206  0.1670  1.2717  0.5667
   89MOL    H7619612   4.018   1.211   6.259  1.2040 -0.0732  0.1910
   89MOL    H7719613   4.237   0.986   6.560  0.2514  0.2820  0.3123
   89MOL    H7819614   4.119   0.776   6.493  0.7240 -0.4779 -0.3180
   89MOL    C7919615   3.625   0.606   6.463 -0.6768 -0.3365 -0.1638
   89MOL    C8019616   3.744   0.630   6.396 -0.3836 -0.6512  0.9032
   89MOL    C8119617   3.791   0.761   6.378 -0.1642 -0.0584  0.2097
   89MOL    C8219618   3.722   0.869   6.437  0.1084  0.1021  0.3501
   89MOL    C8319619   3.600   0.849   6.504  0.4269  0.3522  0.2646
   89MOL    C8419620   3.557   0.718   6.524 -0.5316 -0.3363 -0.0952
   89MOL    O8519621   3.448   0.693   6.597 -0.1849  0.4495 -0.4223
   89MOL    H8619622   3.596   0.502   6.471  1.4203 -1.1752 -2.6006
   89MOL    H8719623   3.801   0.551   6.349 -0.2136 -1.0949  1.8519
   89MOL    H8819624   3.750   0.971   6.415 -1.4160  0.3571 -0.5176
   89MOL    H8919625   3.543   0.931   6.547  1.2964  0.2135  1.7218
   89MOL    C9019626   3.542   0.551   6.931  0.1583  0.4958 -0.3695
   89MOL    C9119627   3.543   0.641   6.817 -0.1062 -0.8134 -0.3680
   89MOL    C9219628   3.466   0.608   6.701 -0.8258  0.5686 -0.2831
   89MOL    C9319629   3.396   0.486   6.705 -0.3603  0.0869  0.4677
   89MOL    C9419630   3.394   0.405   6.820 -0.2584 -0.7455 -0.0300
   89MOL    C9519631   3.463   0.433   6.935 -0.1762  0.7686  0.2209
   89MOL    O9619632   3.455   0.350   7.039  0.3464  0.1911  0.0563
   89MOL    H9719633   3.599   0.573   7.020 -2.4560  2.2379  0.9243
   89MOL    H9819634   3.604   0.730   6.819  0.1064 -0.9123 -1.8147
   89MOL    H9919635   3.346   0.457   6.614 -0.9932  0.7874  0.5871
   89MOL   H10019636   3.345   0.309   6.811  0.2697 -1.0520  0.3142
   89MOL   C10119637   3.774   0.204   7.136  0.4998  0.4713 -0.1352
   89MOL   C10219638   3.672   0.298   7.115 -0.3808 -0.7475 -0.3714
   89MOL   C10319639   3.557   0.263   7.050  0.3149  0.0990 -0.3152
   89MOL   C10419640   3.542   0.137   6.996  0.1207  0.0250  0.9477
   89MOL   C10519641   3.650   0.044   7.005 -0.7548  0.3617 -0.4909
   89MOL   C10619642   3.763   0.078   7.081 -0.3823 -0.1301  0.7383
   89MOL   O10719643   3.857   8.235   7.095 -0.3010  0.1113 -0.7730
   89MOL   H10819644   3.862   0.234   7.191 -0.4462 -1.4706  2.5616
   89MOL   H10919645   3.681   0.403   7.139 -2.4190 -0.3169 -1.4367
   89MOL   H11019646   3.454   0.111   6.940  2.2268 -4.4560 -0.5415
   89MOL   H11119647   3.656   8.206   6.948  0.5101  0.0360  0.1502
   89MOL   C11219648   4.138   0.067   6.867 -0.0094 -0.5765 -0.5305
   89MOL   C11319649   4.011   0.028   6.918 -0.1560  0.2893 -0.1947
   89MOL   C11419650   3.987   0.016   7.058 -0.3289  0.3484 -0.3677
   89MOL   C11519651   4.092   0.043   7.150  0.8083  0.5457  0.2001
   89MOL   C11619652   4.215   0.091   7.104 -0.3269 -0.2964 -0.0427
   89MOL   C11719653   4.237   0.106   6.965 -0.0272 -0.6264  0.2189
   89MOL   O11819654   4.342   0.182   6.926 -0.6443 -0.3683 -0.5576
   89MOL   H11919655   4.152   0.077   6.761 -0.5015  0.9251 -0.4627
   89MOL   H12019656   3.939   8.250   6.844 -1.0706 -0.4481  0.9905
   89MOL   H12119657   4.070   0.041   7.256 -1.4765 -2.6187 -0.2959
   89MOL   H12219658   4.285   0.148   7.164  3.2690 -1.7785 -2.6243
   89MOL   C12319659   4.639   0.133   6.707 -0.4023 -0.7092 -0.2827
   89MOL   C12419660   4.515   0.173   6.760  0.1987 -0.5120 -0.0111
   89MOL   C12519661   4.459   0.125   6.880 -0.0622  0.0880  0.5292
   89MOL   C12619662   4.522   0.021   6.944  0.1782 -0.0447 -0.9754
   89MOL   C12719663   4.638   8.221   6.893 -0.0622 -0.5011  0.4198
   89MOL   C12819664   4.699   0.016   6.772 -1.2658 -0.2575 -0.1857
   89MOL   O12919665   4.806   8.204   6.716  0.1977  0.1978  0.1853
   89MOL   H13019666   4.683   0.191   6.627 -0.8675 -1.6355 -1.2245
   89MOL   H13119667   4.466   0.251   6.702 -0.2488 -1.0233 -0.3255
   89MOL   H13219668   4.484   8.235   7.036  0.1235  2.4157  0.1242
   89MOL   H13319669   4.689   8.137   6.938 -0.4207 -0.0849  1.5978
   89MOL   C13419670   5.125   0.121   6.803  0.8036 -0.1847 -0.5572
   89MOL   C13519671   4.995   0.094   6.750 -0.3509 -0.1167  0.2284
   89MOL   C13619672   4.925   8.228   6.780 -0.6034 -0.2603  0.1854
   89MOL   C13719673   4.980   8.134   6.869  1.1353  0.9053  0.4768
   89MOL   C13819674   5.098   8.170   6.935  0.4238 -0.0727  0.4871
   89MOL   C13919675   5.167   0.034   6.902 -0.5258  0.4797 -0.7901
   89MOL   O14019676   5.287   0.050   6.970  0.0631 -0.2072 -0.3961
   89MOL   H14119677   5.178   0.211   6.778  1.1458  0.3707  2.0457
   89MOL   H14219678   4.957   0.167   6.680  0.6255  0.2109  0.0318
   89MOL   H14319679   4.934   8.039   6.891  1.3830  0.1205 -2.1595
   89MOL   H14419680   5.138   8.117   7.020  0.8160  1.5301  1.3181
   89MOL   C14519681   5.449   0.357   7.101  0.5627  0.3711  0.1910
   89MOL   C14619682   5.425   0.237   7.028  0.4290 -0.3633 -0.1803
   89MOL   C14719683   5.298   0.179   7.024 -0.9503  0.6750  0.1306
   89MOL   C14819684   5.198   0.244   7.091  0.5585  0.1243 -0.1321
   89MOL   C14919685   5.217   0.368   7.162  0.8392 -0.6721  0.3474
   89MOL   C15019686   5.347   0.421   7.165  0.4314  0.6038 -0.5185
   89MOL   O15119687   5.375   0.533   7.242 -0.9766  0.0140  0.6742
   89MOL   H15219688   5.545   0.402   7.122  0.0860  1.6776 -0.3686
   89MOL   H15319689   5.506   0.193   6.972  0.5820  0.9156 -0.9890
   89MOL   H15419690   5.102   0.194   7.097  0.1005  0.9284 -0.7454
   89MOL   H15519691   5.138   0.407   7.224 -0.9526 -3.1962 -0.2608
   89MOL   C15619692   5.151   0.812   7.269 -0.4698  0.3877 -0.5495
   89MOL   C15719693   5.239   0.717   7.212  0.2084  0.3603  1.0726
   89MOL   C15819694   5.281   0.609   7.294  0.4005  0.2237 -0.1651
   89MOL   C15919695   5.225   0.597   7.425 -0.9274  0.3863  0.3068
   89MOL   C16019696   5.126   0.684   7.472  0.1836  0.5795  0.0290
   89MOL   C16119697   5.090   0.789   7.392  0.1924  0.3777  0.0683
   89MOL   O16219698   4.986   0.871   7.437 -0.3258  1.0565  0.4077
   89MOL   H16319699   5.126   0.898   7.208 -0.1211  0.9532  0.0947
   89MOL   H16419700   5.290   0.729   7.117  2.7533  1.7268  2.5683
   89MOL   H16519701   5.260   0.520   7.493  2.0600  2.1166  0.7929
   89MOL   H16619702   5.104   0.686   7.578 -1.1700  1.4549 -0.2518
   89MOL   C16719703   4.661   0.696   7.484 -0.0377  0.4056 -0.1122
   89MOL   C16819704   4.795   0.744   7.506  0.1522 -0.1401  0.1945
   89MOL   C16919705   4.859   0.831   7.417 -0.8742  0.5563 -1.2235
   89MOL   C17019706   4.801   0.868   7.299 -0.2876  0.3776  0.5568
   89MOL   C17119707   4.665   0.825   7.266  0.1932 -0.0977  0.8456
   89MOL   C17219708   4.596   0.742   7.363 -0.5049  0.1576 -0.5859
   89MOL   O17319709   4.468   0.693   7.341 -0.2112  0.1892 -0.6492
   89MOL   H17419710   4.601   0.640   7.553 -0.1407  0.1313 -0.4208
   89MOL   H17519711   4.851   0.710   7.592  0.8328 -1.1258 -0.6286
   89MOL   H17619712   4.863   0.924   7.231 -0.0132  0.4289  0.8491
   89MOL   H17719713   4.613   0.844   7.172 -0.7638 -2.7679  0.7959
   89MOL   C17819714   4.306   0.649   7.013 -0.0794  0.3583 -0.5801
   89MOL   C17919715   4.338   0.703   7.140 -0.6532  0.4127  0.1521
   89MOL   C18019716   4.441   0.647   7.214 -0.2097  0.6261 -0.7702
   89MOL   C18119717   4.511   0.532   7.168 -0.0884 -0.5162  0.1301
   89MOL   C18219718   4.477   0.475   7.045 -0.0264  0.8830  0.2667
   89MOL   C18319719   4.376   0.531   6.962  0.5952  0.0656 -0.8632
   89MOL   O18419720   4.351   0.481   6.841  0.2928 -0.0907  0.1683
   89MOL   H18519721   4.231   0.700   6.955 -0.4951  1.0117  0.5144
   89MOL   H18619722   4.287   0.787   7.183  0.0249  0.5709  0.6569
   89MOL   H18719723   4.583   0.487   7.235 -1.7050 -1.2556  1.4129
   89MOL   H18819724   4.539   0.394   7.010 -0.9157  0.2460  0.1404
   89MOL   C18919725   4.622   0.591   6.621 -0.0434 -0.1801 -0.6710
   89MOL   C19019726   4.557   0.564   6.744  0.3150 -0.0163  0.3191
   89MOL   C19119727   4.413   0.540   6.739 -0.2433  0.2906 -0.0093
   89MOL   C19219728   4.344   0.550   6.618 -0.5526  0.3074  0.4105
   89MOL   C19319729   4.409   0.610   6.512 -0.7652  0.2417  0.3212
   89MOL   C19419730   4.549   0.631   6.509  0.4693  0.1759  0.1452
   89MOL   O19519731   4.615   0.683   6.399  0.0716 -0.5472  0.0311
   89MOL   H19619732   4.728   0.609   6.630 -0.3207  1.3143 -0.3527
   89MOL   H19719733   4.613   0.551   6.836  2.0116 -0.0054 -0.6990
   89MOL   H19819734   4.236   0.541   6.615 -0.5403  0.6744 -1.8274
   89MOL   H19919735   4.352   0.638   6.424  0.3735 -1.9652 -1.1443
   89MOL   C20019736   4.530   1.047   6.392  0.4509  0.1939  0.1413
   89MOL   C20119737   4.521   0.911   6.427 -0.9749  0.2164 -0.6846
   89MOL   C20219738   4.616   0.817   6.380 -0.4626  0.2641  0.0658
   89MOL   C20319739   4.716   0.855   6.289 -0.8390  0.8736  0.0315
   89MOL   C20419740   4.723   0.994   6.247  0.6626 -0.0650  0.4997
   89MOL   C20519741   4.636   1.092   6.304  0.5016  1.4856  0.6836
   89MOL   O20619742   4.636   1.217   6.259 -0.0872 -0.1405 -0.0798
   89MOL   H20719743   4.456   1.121   6.419  0.6417  0.2975  0.3722
   89MOL   H20819744   4.442   0.894   6.500  0.4635  1.3204  1.1592
   89MOL   H20919745   4.777   0.776   6.248 -4.1087 -1.9776  0.4946
   89MOL   H21019746   4.807   1.027   6.188  0.2853  1.2495  0.7019
   89MOL   C21119747   4.569   1.465   6.521 -0.2880 -0.1692  0.3623
   89MOL   C21219748   4.549   1.377   6.416 -0.1819  0.8924 -0.1965
   89MOL   C21319749   4.659   1.312   6.358  0.0425 -0.0336 -0.1908
   89MOL   C21419750   4.792   1.344   6.401 -0.1337 -0.5908 -0.2888
   89MOL   C21519751   4.808   1.433   6.505  0.7357 -0.1777 -0.5092
   89MOL   C21619752   4.698   1.494   6.571 -0.7367  0.1778 -0.1474
   89MOL   O21719753   4.705   1.585   6.672  0.3567 -0.5238 -0.0204
   89MOL   H21819754   4.480   1.496   6.574  0.2887  0.3903  1.0194
   89MOL   H21919755   4.446   1.352   6.395 -0.3791  1.7575 -0.2441
   89MOL   H22019756   4.875   1.294   6.353 -0.5851 -1.6630  0.0190
   89MOL   H22119757   4.910   1.452   6.534 -0.3151 -1.2800  4.3927
   89MOL   H22219758   4.784   1.637   6.670 -0.0392  0.0758 -1.0233
   90MOL     C119759   0.340   1.916   4.654  0.0712 -0.4304 -0.4502
   90MOL     C219760   0.445   1.961   4.747 -0.1860  0.6297  0.3061
   90MOL     C319761   0.568   2.006   4.702 -0.1805 -0.2016 -0.6012
   90MOL     C419762   0.578   2.018   4.563  0.5917  0.1153 -0.1301
   90MOL     C519763   0.479   1.984   4.468  0.6392  0.4558  0.5400
   90MOL     C619764   0.362   1.928   4.516  0.6655  0.7575 -0.5709
   90MOL     O719765   0.266   1.873   4.436  0.1998  0.3294  0.8643
   90MOL     H819766   0.248   1.878   4.695 -1.1809  0.7681 -2.0966
   90MOL     H919767   0.418   1.949   4.851  0.2968 -1.1388  0.2399
   90MOL    H1019768   0.672   2.037   4.513  0.8760 -0.1377  0.3044
   90MOL    H1119769   0.505   1.994   4.364 -1.8156  0.1388 -0.1331
   90MOL    H1219770   0.652   2.035   4.763 -0.3863 -1.3464  0.2308
   90MOL    C1319771   0.247   1.504   4.404  0.7148 -0.4518  0.1836
   90MOL    C1419772   0.217   1.640   4.435 -0.6393  0.0579 -0.0805
   90MOL    C1519773   0.296   1.747   4.391 -0.0936  0.3940 -0.1500
   90MOL    C1619774   0.389   1.713   4.290  0.3079 -0.3708 -0.3810
   90MOL    C1719775   0.426   1.578   4.268  0.2697  0.8208  0.1507
   90MOL    C1819776   0.352   1.470   4.321 -0.2528  0.0687  0.1444
   90MOL    O1919777   0.397   1.339   4.314  0.7784 -0.2648  0.6951
   90MOL    H2019778   0.193   1.424   4.452 -0.7145 -0.7783 -1.9200
   90MOL    H2119779   0.130   1.658   4.496 -0.3423 -0.8935  0.6496
   90MOL    H2219780   0.443   1.796   4.247  0.6693 -0.0704  0.6432
   90MOL    H2319781   0.508   1.556   4.202 -0.3600 -0.1546 -0.3314
   90MOL    C2419782   0.112   1.170   4.147  0.2687 -0.0749  0.0106
   90MOL    C2519783   0.203   1.269   4.195 -0.1356  0.0366 -0.3129
   90MOL    C2619784   0.315   1.237   4.274  0.4234 -0.3253 -0.6705
   90MOL    C2719785   0.338   1.104   4.308  0.2183  0.4925 -0.0456
   90MOL    C2819786   0.250   1.001   4.264 -0.4946 -0.1101  0.2167
   90MOL    C2919787   0.132   1.035   4.180 -0.5709  0.5952 -0.1953
   90MOL    O3019788   0.042   0.942   4.147 -0.6200 -0.0781 -0.0159
   90MOL    H3119789   0.040   1.206   4.075 -0.0274  1.3425  0.9990
   90MOL    H3219790   0.192   1.368   4.152 -1.5479 -0.2307 -0.5953
   90MOL    H3319791   0.425   1.073   4.362  1.4188  2.2320 -0.9243
   90MOL    H3419792   0.266   0.899   4.297 -1.3273 -0.5582 -0.7448
   90MOL    C3519793   0.150   0.724   3.864 -0.0536  0.0091 -0.1154
   90MOL    C3619794   0.136   0.774   3.994 -0.0303  0.5748  0.1440
   90MOL    C3719795   0.054   0.886   4.019  0.4873  0.6679 -0.0305
   90MOL    C3819796   8.223   0.927   3.917  0.1777 -0.1736 -0.9193
   90MOL    C3919797   8.220   0.860   3.790 -0.5234  0.4219  0.0306
   90MOL    C4019798   0.060   0.759   3.765 -0.1843 -0.2555  0.9306
   90MOL    O4119799   0.053   0.694   3.643  0.4687  0.1344 -0.2353
   90MOL    H4219800   0.224   0.647   3.850 -1.4537 -1.2177 -1.0523
   90MOL    H4319801   0.199   0.745   4.077  2.7451  0.1797 -1.9973
   90MOL    H4419802   8.166   1.017   3.934  2.1112  0.6114  1.8041
   90MOL    H4519803   8.164   0.903   3.708  1.9483  2.5885 -0.5972
   90MOL    C4619804   0.381   0.578   3.511 -0.0658 -0.1775 -0.1435
   90MOL    C4719805   0.253   0.585   3.570  0.1491 -0.0842 -0.4252
   90MOL    C4819806   0.168   0.698   3.575 -0.5237  0.7171  0.2090
   90MOL    C4919807   0.209   0.809   3.499 -0.1856  0.2589 -0.3923
   90MOL    C5019808   0.332   0.802   3.433  0.3172 -0.3195  0.0402
   90MOL    C5119809   0.423   0.691   3.439  0.1792 -0.7951  0.3824
   90MOL    O5219810   0.528   0.708   3.356  0.7243 -0.2964  0.3360
   90MOL    H5319811   0.449   0.494   3.514 -2.5330 -2.2459  0.0160
   90MOL    H5419812   0.217   0.508   3.636 -1.0503  1.0233  0.2423
   90MOL    H5519813   0.147   0.896   3.484 -2.0747 -0.6067  2.0727
   90MOL    H5619814   0.365   0.889   3.379 -0.2743  1.2014  2.0474
   90MOL    C5719815   0.560   0.464   3.090 -0.7244  0.2339  0.3829
   90MOL    C5819816   0.516   0.579   3.161 -0.5772 -0.4458 -0.1459
   90MOL    C5919817   0.570   0.598   3.287  0.9743  0.0842  1.0921
   90MOL    C6019818   0.668   0.512   3.340 -0.0895 -0.0879  0.5391
   90MOL    C6119819   0.705   0.400   3.264  0.5711  0.0672 -0.1457
   90MOL    C6219820   0.651   0.373   3.141  0.2811  0.3499 -0.3507
   90MOL    O6319821   0.695   0.266   3.065  0.0007  0.1901  0.0288
   90MOL    H6419822   0.526   0.440   2.990 -2.9819  0.7161  0.9913
   90MOL    H6519823   0.441   0.648   3.125  1.4018  1.5177 -0.6119
   90MOL    H6619824   0.714   0.524   3.438 -0.0698  0.0098  0.5179
   90MOL    H6719825   0.785   0.341   3.305 -0.7091 -1.3899  0.2817
   90MOL    C6819826   0.412   0.034   3.028  0.0761  0.2797 -0.3515
   90MOL    C6919827   0.491   0.148   3.018  0.0607 -0.2482  0.8873
   90MOL    C7019828   0.626   0.150   3.073  0.5574  0.3144  0.2306
   90MOL    C7119829   0.675   0.034   3.125 -0.1382  0.5551  0.1990
   90MOL    C7219830   0.590   8.179   3.152 -0.0168  0.1751  0.1554
   90MOL    C7319831   0.463   8.176   3.093  0.1463  0.5604  0.2923
   90MOL    O7419832   0.385   8.068   3.086  0.0705 -0.2077 -0.4407
   90MOL    H7519833   0.313   0.029   2.985  0.1841 -0.5041 -0.5158
   90MOL    H7619834   0.464   0.238   2.965  0.2632 -0.0703  1.0836
   90MOL    H7719835   0.775   0.034   3.167  0.4810  1.4030 -1.2671
   90MOL    H7819836   0.642   8.092   3.187  0.3144  0.0282 -0.6799
   90MOL    C7919837   0.382   7.964   3.449  0.4478  0.1352 -0.9273
   90MOL    C8019838   0.377   8.043   3.336  0.1214  0.1927  1.2667
   90MOL    C8119839   0.372   7.987   3.201 -0.3274 -0.9850 -0.1935
   90MOL    C8219840   0.352   7.846   3.189 -1.0660  0.6016  0.1874
   90MOL    C8319841   0.346   7.766   3.309 -0.5118 -0.3819 -0.5215
   90MOL    C8419842   0.359   7.823   3.439 -0.4200 -0.5306  0.5842
   90MOL    O8519843   0.374   7.737   3.546  0.1762 -0.3113 -0.4703
   90MOL    H8619844   0.387   8.005   3.549  1.7907 -1.0496 -0.5023
   90MOL    H8719845   0.394   8.148   3.348 -1.0627  0.6656 -0.8357
   90MOL    H8819846   0.343   7.802   3.091  2.5322 -0.9120  0.4834
   90MOL    H8919847   0.332   7.660   3.294  2.3241 -0.6063 -1.8782
   90MOL    C9019848   0.732   7.636   3.565  0.9764  0.9144  0.3237
   90MOL    C9119849   0.613   7.719   3.566 -0.0081 -0.3161 -0.2946
   90MOL    C9219850   0.488   7.658   3.555  0.0532 -0.8310 -0.2970
   90MOL    C9319851   0.481   7.515   3.548  0.3914 -0.1478  0.2515
   90MOL    C9419852   0.599   7.436   3.550 -0.5753  0.0756  0.3412
   90MOL    C9519853   0.731   7.499   3.564  0.3550 -0.0922  0.2670
   90MOL    O9619854   0.852   7.434   3.580  0.2768 -0.0250  0.1387
   90MOL    H9719855   0.824   7.693   3.568  1.1498  0.6178  0.7874
   90MOL    H9819856   0.628   7.825   3.574 -0.6062 -0.3109  0.7474
   90MOL    H9919857   0.382   7.472   3.547  0.0491  0.6525 -0.9118
   90MOL   H10019858   0.584   7.330   3.532 -0.7936  0.0049  0.9314
   90MOL   C10119859   0.779   7.072   3.664 -0.1368  0.5719  0.5108
   90MOL   C10219860   0.774   7.217   3.674 -0.0374  0.3927 -0.1682
   90MOL   C10319861   0.853   7.292   3.580 -0.9479 -0.0838  0.5084
   90MOL   C10419862   0.935   7.222   3.488 -0.4238  0.5716 -0.1369
   90MOL   C10519863   0.941   7.080   3.481  0.1489  0.0582 -0.7429
   90MOL   C10619864   0.860   7.007   3.567  0.3633  1.1312 -0.4095
   90MOL   O10719865   0.871   6.870   3.578 -0.2386  0.0659  0.9852
   90MOL   H10819866   0.724   7.016   3.738 -2.6556 -1.0739 -2.4452
   90MOL   H10919867   0.721   7.278   3.746 -3.1694 -2.0606 -0.2443
   90MOL   H11019868   0.989   7.269   3.408 -0.1744 -1.0029 -0.9120
   90MOL   H11119869   1.009   7.033   3.412 -0.3226  0.4629 -1.4942
   90MOL   C11219870   1.152   6.788   3.801  0.3768 -0.4098 -0.0436
   90MOL   C11319871   1.022   6.829   3.761 -0.3537 -0.2995 -0.7259
   90MOL   C11419872   0.993   6.820   3.621  0.4268  1.0628  0.3001
   90MOL   C11519873   1.087   6.763   3.534 -1.3023 -0.3660 -0.3675
   90MOL   C11619874   1.213   6.718   3.578  0.4766 -0.0394  0.1447
   90MOL   C11719875   1.245   6.731   3.715 -0.5644 -0.3372  0.3915
   90MOL   O11819876   1.354   6.680   3.770 -0.3976  0.5619  0.4303
   90MOL   H11919877   1.167   6.812   3.905  0.1258 -0.8205  0.0894
   90MOL   H12019878   0.950   6.858   3.835 -0.0195 -0.3518 -0.3777
   90MOL   H12119879   1.070   6.757   3.428  0.6082  2.3704 -0.8767
   90MOL   H12219880   1.287   6.678   3.509  0.2498 -0.3877  0.1021
   90MOL   C12319881   1.403   6.318   3.722  0.1019 -0.8659  0.8543
   90MOL   C12419882   1.380   6.455   3.689 -0.1963  0.2242 -0.0887
   90MOL   C12519883   1.352   6.541   3.792 -0.6320 -0.7808  0.0929
   90MOL   C12619884   1.313   6.494   3.914 -0.4790  0.7219 -0.2145
   90MOL   C12719885   1.325   6.355   3.946  0.1350  0.1602  1.2728
   90MOL   C12819886   1.383   6.270   3.850 -0.6281 -0.3707  0.0353
   90MOL   O12919887   1.409   6.139   3.882 -0.2721  0.1984 -0.3323
   90MOL   H13019888   1.441   6.251   3.646 -2.9336  1.1392 -2.6370
   90MOL   H13119889   1.406   6.492   3.591 -1.6383 -0.5874 -0.8027
   90MOL   H13219890   1.273   6.565   3.986  0.6299  2.8135 -1.5906
   90MOL   H13319891   1.283   6.323   4.041 -1.3585  2.4851  1.4447
   90MOL   C13419892   1.746   6.046   3.743 -0.0999  0.1764  0.1010
   90MOL   C13519893   1.607   6.065   3.759 -0.8081 -0.3401  0.1053
   90MOL   C13619894   1.545   6.111   3.880  0.7001 -0.0999  0.7208
   90MOL   C13719895   1.638   6.135   3.989 -0.0161 -0.2282  0.1010
   90MOL   C13819896   1.774   6.127   3.972  0.2631  0.2644 -0.6878
   90MOL   C13919897   1.830   6.079   3.850 -0.1254 -0.0153  0.3896
   90MOL   O14019898   1.965   6.060   3.837 -0.7773  0.5144  0.1743
   90MOL   H14119899   1.786   6.021   3.646 -0.2666 -0.1967  0.1270
   90MOL   H14219900   1.553   6.053   3.666  0.9204 -0.5686 -0.8983
   90MOL   H14319901   1.591   6.169   4.081  0.4047  0.0824  0.1980
   90MOL   H14419902   1.833   6.138   4.062  1.1251  0.3160 -1.2432
   90MOL   C14519903   2.071   6.380   3.656  0.1605  0.2547 -0.2887
   90MOL   C14619904   1.983   6.284   3.714 -0.1567 -0.1315  0.0439
   90MOL   C14719905   2.035   6.164   3.774 -0.4109 -0.2036 -0.1747
   90MOL   C14819906   2.177   6.148   3.763 -0.7229  0.4934  0.2035
   90MOL   C14919907   2.264   6.240   3.704  0.0069  0.9265  0.0371
   90MOL   C15019908   2.208   6.359   3.656 -0.2156  0.1986 -0.5935
   90MOL   O15119909   2.288   6.454   3.606 -0.0771 -0.3345 -0.5022
   90MOL   H15219910   2.039   6.471   3.609 -0.2884  0.5426  0.5556
   90MOL   H15319911   1.878   6.309   3.720 -0.1425 -0.3035  0.9890
   90MOL   H15419912   2.219   6.054   3.795 -0.5117  0.7008  0.5265
   90MOL   H15519913   2.371   6.220   3.700 -0.2083 -0.2807 -0.0417
   90MOL   C15619914   2.578   6.617   3.757  0.2439 -0.1629  0.1910
   90MOL   C15719915   2.501   6.549   3.674 -0.4415  0.1409 -0.1102
   90MOL   C15819916   2.371   6.523   3.702  0.2123 -0.3563 -0.3572
   90MOL   C15919917   2.317   6.564   3.827 -0.1336 -0.6928 -0.1103
   90MOL   C16019918   2.401   6.622   3.925  0.1515  0.0295  0.2293
   90MOL   C16119919   2.535   6.654   3.884  0.7682  0.6772 -0.6094
   90MOL   O16219920   2.625   6.715   3.962  0.4361 -0.0339 -0.3002
   90MOL   H16319921   2.682   6.637   3.736  0.6868 -0.0476  2.3708
   90MOL   H16419922   2.549   6.522   3.581 -1.9173  0.0933 -0.8734
   90MOL   H16519923   2.212   6.554   3.852  0.1021  0.6530  1.5543
   90MOL   H16619924   2.350   6.654   4.015  1.6543  0.1723  1.0544
   90MOL   C16719925   2.585   6.961   4.238  0.0518 -0.1629 -1.1817
   90MOL   C16819926   2.630   6.847   4.167  0.8047  0.7782 -0.5604
   90MOL   C16919927   2.585   6.831   4.036 -0.1183 -0.3475  0.0948
   90MOL   C17019928   2.505   6.923   3.974  0.8461  0.0505 -0.5530
   90MOL   C17119929   2.472   7.041   4.043  0.4156  0.5514 -0.3621
   90MOL   C17219930   2.515   7.063   4.173  0.3849 -1.3773 -0.3784
   90MOL   O17319931   2.476   7.176   4.248 -0.6176 -0.0445 -0.3617
   90MOL   H17419932   2.619   6.982   4.338 -0.6047  0.4721 -1.0862
   90MOL   H17519933   2.687   6.775   4.224 -2.2024  0.2627  1.9153
   90MOL   H17619934   2.479   6.913   3.869 -0.8024 -0.3869 -0.1201
   90MOL   H17719935   2.411   7.121   4.005  1.0866  0.5814 -1.3977
   90MOL   C17819936   2.175   7.381   4.315  0.5469 -0.2401 -0.7970
   90MOL   C17919937   2.313   7.345   4.295  0.6294 -0.1183  0.3396
   90MOL   C18019938   2.345   7.211   4.270 -0.0243  0.0008  0.5554
   90MOL   C18119939   2.250   7.111   4.291  0.4453  0.4093 -0.3483
   90MOL   C18219940   2.122   7.143   4.338 -0.5365 -0.3268 -0.4868
   90MOL   C18319941   2.082   7.278   4.342 -0.5064  0.2505  0.1072
   90MOL   O18419942   1.956   7.311   4.379 -0.4092  0.3179 -0.7803
   90MOL   H18519943   2.142   7.484   4.321  2.5282  0.3785  0.0772
   90MOL   H18619944   2.391   7.418   4.279  0.0140  0.3288 -0.6427
   90MOL   H18719945   2.276   7.007   4.296 -1.1204  0.0635  1.1719
   90MOL   H18819946   2.054   7.071   4.381  0.4094 -0.0660  1.4780
   90MOL   C18919947   1.729   7.209   4.647  0.1644  0.1338 -0.2045
   90MOL   C19019948   1.777   7.248   4.519  0.8285  0.2413 -0.7739
   90MOL   C19119949   1.909   7.285   4.505  0.6057 -0.0368 -0.0774
   90MOL   C19219950   1.994   7.279   4.615  0.4334 -0.7472 -0.4035
   90MOL   C19319951   1.951   7.234   4.736 -0.0863 -0.2538  0.1421
   90MOL   C19419952   1.816   7.191   4.752  0.0138 -0.0682  0.6215
   90MOL   O19519953   1.786   7.147   4.873  0.2796  0.6916  0.2677
   90MOL   H19619954   1.623   7.189   4.660  0.6619 -2.2251  0.5668
   90MOL   H19719955   1.709   7.258   4.436  0.1143 -2.4239 -0.5636
   90MOL   H19819956   2.098   7.306   4.609  0.4882 -0.8725 -0.0237
   90MOL   H19919957   2.026   7.225   4.812 -0.2200 -3.4605 -0.0269
   90MOL   C20019958   1.596   7.357   5.100  0.4971  0.3014 -0.4068
   90MOL   C20119959   1.705   7.308   5.022 -0.0530  0.8291  0.0548
   90MOL   C20219960   1.681   7.211   4.928  0.6896  0.6319  0.4896
   90MOL   C20319961   1.544   7.164   4.910  0.2496 -0.3141  0.4554
   90MOL   C20419962   1.437   7.214   4.989 -0.8527  0.3930  0.6779
   90MOL   C20519963   1.466   7.319   5.078  0.4259  0.7452  0.4742
   90MOL   O20619964   1.366   7.375   5.151 -0.1476 -0.9532 -0.5266
   90MOL   H20719965   1.617   7.429   5.178 -2.8784  0.9006  0.0168
   90MOL   H20819966   1.808   7.335   5.038 -0.0233 -0.2621  1.7579
   90MOL   H20919967   1.521   7.085   4.840  0.1137 -0.4578  0.6602
   90MOL   H21019968   1.334   7.186   4.974 -0.4490 -0.4390 -0.6400
   90MOL   C21119969   1.204   7.320   5.473  0.1070 -0.7180  0.1677
   90MOL   C21219970   1.234   7.378   5.351 -0.0623  0.3871 -0.1116
   90MOL   C21319971   1.328   7.317   5.267 -0.2507 -0.0276 -0.4461
   90MOL   C21419972   1.382   7.190   5.306  0.1820  0.0866  0.5586
   90MOL   C21519973   1.354   7.131   5.434  0.6626  0.0081  0.4352
   90MOL   C21619974   1.266   7.204   5.519  0.5295  0.9367 -0.2521
   90MOL   O21719975   1.241   7.158   5.645 -0.1484  0.3615  0.7873
   90MOL   H21819976   1.142   7.379   5.538  1.2346  0.0397  0.5827
   90MOL   H21919977   1.196   7.476   5.326 -0.0816 -0.0440 -1.8845
   90MOL   H22019978   1.451   7.135   5.244  1.1751  0.2498  1.5255
   90MOL   H22119979   1.402   7.038   5.462  1.4492  0.3892  0.3728
   90MOL   H22219980   1.255   7.066   5.661  0.1910  0.1840 -0.5097
   91MOL     C119981   6.847   7.308   5.468  0.3092  0.2489 -0.9475
   91MOL     C219982   6.892   7.422   5.546  0.1460 -0.1380  0.2070
   91MOL     C319983   6.796   7.507   5.606 -0.2435  0.1068 -0.8346
   91MOL     C419984   6.655   7.486   5.592  0.0392  0.7429 -0.7772
   91MOL     C519985   6.613   7.373   5.515 -0.6751 -0.4109  0.0152
   91MOL     C619986   6.710   7.293   5.447 -0.0724 -0.5654 -0.2987
   91MOL     O719987   6.669   7.195   5.364 -0.3641 -0.3798  0.2669
   91MOL     H819988   6.916   7.239   5.422  1.1710 -0.8642  1.8923
   91MOL     H919989   6.999   7.426   5.555  0.0337 -0.3068  1.7920
   91MOL    H1019990   6.586   7.551   5.644 -3.0865 -2.9192 -0.1453
   91MOL    H1119991   6.506   7.365   5.502 -0.7243 -0.6001  0.5286
   91MOL    H1219992   6.826   7.587   5.672  4.1479 -0.3288 -2.1491
   91MOL    C1319993   6.779   7.278   5.019  0.5423 -0.5294  0.2120
   91MOL    C1419994   6.724   7.292   5.147 -0.5142 -0.4236 -0.6508
   91MOL    C1519995   6.726   7.186   5.240 -1.0701 -0.1737  0.2689
   91MOL    C1619996   6.790   7.068   5.196 -0.3454  0.2011  0.5675
   91MOL    C1719997   6.844   7.048   5.067  0.7022 -0.3142  0.9888
   91MOL    C1819998   6.834   7.153   4.974  0.9651  0.1303 -0.1908
   91MOL    O1919999   6.889   7.135   4.846 -0.4984 -1.0315 -0.6131
   91MOL    H2020000   6.777   7.362   4.952  0.5502  1.5911  2.7669
   91MOL    H2120001   6.682   7.387   5.179  3.2312  0.7365  1.1267
   91MOL    H2220002   6.798   6.984   5.263  0.6338  0.2604  0.5373
   91MOL    H2320003   6.900   6.959   5.044  0.6169  0.1647 -1.1348
   91MOL    C2420004   6.747   6.996   4.530 -1.1501 -0.0905  0.3494
   91MOL    C2520005   6.833   7.009   4.650  0.2158  0.1226  0.0634
   91MOL    C2620006   6.796   7.108   4.749  0.0623  0.4986  0.4611
   91MOL    C2720007   6.684   7.188   4.722  0.0326 -0.5135 -0.5057
   91MOL    C2820008   6.601   7.172   4.613 -0.4330  0.1336 -0.1258
   91MOL    C2920009   6.628   7.066   4.520 -0.0582 -0.7808  1.0717
   91MOL    O3020010   6.533   7.043   4.423 -0.4782 -0.8559 -0.1207
   91MOL    H3120011   6.775   6.926   4.453  1.7319 -0.8272  1.9959
   91MOL    H3220012   6.926   6.955   4.644 -0.5726 -1.0920 -1.9645
   91MOL    H3320013   6.661   7.261   4.799 -1.2051 -1.6913  0.2690
   91MOL    H3420014   6.504   7.218   4.605 -1.1577 -1.4402 -0.6639
   91MOL    C3520015   6.619   6.978   4.075  1.0613  0.1149  0.7175
   91MOL    C3620016   6.566   6.959   4.204  0.1151 -0.7965 -0.3008
   91MOL    C3720017   6.574   7.064   4.297 -0.4037 -0.2580 -0.3034
   91MOL    C3820018   6.632   7.184   4.259 -0.0419 -0.4847 -0.5013
   91MOL    C3920019   6.692   7.208   4.137  0.2653  0.3774  1.0166
   91MOL    C4020020   6.672   7.110   4.039 -0.2685  0.3191  0.6498
   91MOL    O4120021   6.708   7.150   3.910  0.8652  0.4598  0.1329
   91MOL    H4220022   6.609   6.896   4.005 -0.3344  3.1259 -2.7339
   91MOL    H4320023   6.523   6.865   4.235  0.2307 -0.9723 -0.6738
   91MOL    H4420024   6.636   7.269   4.325  0.4818  0.3643 -1.6180
   91MOL    H4520025   6.732   7.306   4.118 -1.7857  1.0711  0.1820
   91MOL    C4620026   7.056   7.055   3.852 -0.1148 -0.2510  0.2830
   91MOL    C4720027   6.946   7.134   3.895 -0.2594 -0.1488  0.0647
   91MOL    C4820028   6.816   7.090   3.853 -0.2246  0.6016 -0.8005
   91MOL    C4920029   6.797   6.980   3.766  0.2165  0.0467  0.6064
   91MOL    C5020030   6.912   6.911   3.721  0.5999 -0.3608  0.1956
   91MOL    C5120031   7.038   6.941   3.772  0.2427 -0.0449  0.2087
   91MOL    O5220032   7.134   6.857   3.733  0.6671  0.0023 -0.0558
   91MOL    H5320033   7.151   7.073   3.900  0.0952  2.5364 -1.0955
   91MOL    H5420034   6.964   7.213   3.966  1.8000  0.5138 -1.1429
   91MOL    H5520035   6.697   6.942   3.752  0.4647 -0.3010 -0.2188
   91MOL    H5620036   6.892   6.834   3.647  2.0550  0.4247 -1.0437
   91MOL    C5720037   7.280   7.009   3.428 -0.1645 -0.4158  0.4185
   91MOL    C5820038   7.208   6.996   3.547 -0.8994  0.2046 -0.0547
   91MOL    C5920039   7.189   6.873   3.610 -0.5620  0.1862  0.0395
   91MOL    C6020040   7.227   6.757   3.536  0.0864 -0.3222 -0.2077
   91MOL    C6120041   7.291   6.769   3.413 -0.0140  0.2092  0.2170
   91MOL    C6220042   7.314   6.893   3.359 -0.8512  0.5119 -0.3210
   91MOL    O6320043   7.400   6.905   3.247 -0.0410  0.0923 -0.3090
   91MOL    H6420044   7.299   7.105   3.382 -1.0893 -1.4049 -2.0707
   91MOL    H6520045   7.166   7.087   3.587  0.1187 -0.3507  2.3779
   91MOL    H6620046   7.209   6.659   3.577  3.0532 -0.7651  0.1109
   91MOL    H6720047   7.318   6.681   3.357  0.8689  0.2068  0.6396
   91MOL    C6820048   7.346   7.129   2.947  0.0784 -0.3258  0.2964
   91MOL    C6920049   7.393   7.080   3.075  0.1806 -0.2276  0.3169
   91MOL    C7020050   7.345   6.960   3.132 -0.6010  0.7458  0.2551
   91MOL    C7120051   7.257   6.880   3.051 -0.3668 -0.2682 -0.5905
   91MOL    C7220052   7.217   6.929   2.924 -0.0159  0.2359 -0.1732
   91MOL    C7320053   7.270   7.049   2.865  0.4038 -0.0652 -0.1512
   91MOL    O7420054   7.229   7.082   2.735 -0.0572 -0.5892 -0.4220
   91MOL    H7520055   7.376   7.224   2.906  1.6640 -0.9432 -0.0052
   91MOL    H7620056   7.452   7.149   3.134  0.1562  0.3151 -0.2914
   91MOL    H7720057   7.222   6.782   3.083 -0.5972 -0.1613 -0.5140
   91MOL    H7820058   7.159   6.858   2.867  0.9786 -1.6628  1.1556
   91MOL    C7920059   7.413   7.178   2.420 -0.2630 -0.1780 -0.5170
   91MOL    C8020060   7.325   7.186   2.532  0.0173 -0.4446  0.0143
   91MOL    C8120061   7.324   7.086   2.632  0.3917 -0.2526 -0.5474
   91MOL    C8220062   7.405   6.975   2.613 -0.1650 -0.2603 -0.0634
   91MOL    C8320063   7.483   6.960   2.492  0.5628 -0.3244 -0.9751
   91MOL    C8420064   7.492   7.064   2.396 -0.3365  0.2448  0.1250
   91MOL    O8520065   7.566   7.058   2.282 -0.2856  0.1622  0.1579
   91MOL    H8620066   7.405   7.258   2.347 -1.9525  0.5873  0.4778
   91MOL    H8720067   7.261   7.272   2.536  1.0050  0.2911  0.1391
   91MOL    H8820068   7.394   6.888   2.675  0.1081 -0.6982 -0.6206
   91MOL    H8920069   7.526   6.861   2.480  1.1703 -0.2444  0.5170
   91MOL    C9020070   7.590   6.783   2.036 -0.1826 -0.2134 -0.3194
   91MOL    C9120071   7.635   6.881   2.128 -0.2821  0.2860 -0.0395
   91MOL    C9220072   7.537   6.963   2.187 -0.9641  0.0654 -0.5686
   91MOL    C9320073   7.401   6.949   2.145 -0.5078  0.0888  0.0731
   91MOL    C9420074   7.362   6.859   2.047  0.5382  0.4715 -0.1883
   91MOL    C9520075   7.453   6.771   1.994  0.8445 -0.0522  0.8592
   91MOL    O9620076   7.428   6.670   1.895 -0.1735  0.0907 -0.4080
   91MOL    H9720077   7.661   6.712   1.997 -0.0720  0.4941 -1.4634
   91MOL    H9820078   7.738   6.888   2.160 -0.1061  1.8849 -0.9264
   91MOL    H9920079   7.331   7.018   2.189  0.3892 -0.1145  1.8377
   91MOL   H10020080   7.261   6.842   2.012 -0.1917  2.2421  1.0007
   91MOL   C10120081   7.432   6.324   2.021 -0.9581 -0.2466 -0.1915
   91MOL   C10220082   7.469   6.447   1.968 -0.4530 -0.1254 -0.4503
   91MOL   C10320083   7.379   6.547   1.935 -0.6384  0.1416 -0.7867
   91MOL   C10420084   7.243   6.516   1.951 -0.7588 -0.0520 -0.0218
   91MOL   C10520085   7.198   6.394   1.999  0.4496 -0.3987  0.5417
   91MOL   C10620086   7.296   6.297   2.042 -0.0436  0.0287 -0.5447
   91MOL   O10720087   7.248   6.186   2.110  0.0546 -0.0487  0.1912
   91MOL   H10820088   7.504   6.248   2.050 -0.1703  0.2421 -0.8456
   91MOL   H10920089   7.574   6.466   1.957 -0.7220  2.3039  1.0506
   91MOL   H11020090   7.182   6.600   1.924 -0.6314  1.3771  3.8155
   91MOL   H11120091   7.091   6.383   2.002  0.4002 -0.0327  0.1956
   91MOL   C11220092   7.300   5.919   1.855 -0.3707 -1.0403  0.4016
   91MOL   C11320093   7.268   6.043   1.912  0.7908  0.5160  0.2681
   91MOL   C11420094   7.284   6.070   2.054 -0.2856  0.0154  0.2370
   91MOL   C11520095   7.325   5.966   2.131 -0.6778  0.3811 -0.4583
   91MOL   C11620096   7.350   5.837   2.070  0.1459  0.5984 -0.1307
   91MOL   C11720097   7.341   5.807   1.933 -0.2871 -0.1283  0.1860
   91MOL   O11820098   7.365   5.683   1.876  0.4057 -0.1866 -0.2368
   91MOL   H11920099   7.287   5.889   1.752 -0.0636 -0.6168  0.2406
   91MOL   H12020100   7.238   6.117   1.840 -0.6553  0.6437  0.9947
   91MOL   H12120101   7.342   5.959   2.238  0.2215  0.0350 -0.6214
   91MOL   H12220102   7.375   5.751   2.130  0.1651  1.8748  1.7200
   91MOL   C12320103   7.027   5.525   1.913  0.5517  0.2657 -0.5445
   91MOL   C12420104   7.126   5.621   1.914 -0.4958  0.2353 -0.2184
   91MOL   C12520105   7.260   5.594   1.878  0.1295 -0.3570 -0.4155
   91MOL   C12620106   7.289   5.458   1.847  1.4552  0.0583  0.3457
   91MOL   C12720107   7.187   5.356   1.849  0.0163 -0.3616 -0.4705
   91MOL   C12820108   7.055   5.388   1.883  0.4870 -0.5442 -0.8691
   91MOL   O12920109   6.954   5.292   1.898  0.1965 -0.8103  0.0136
   91MOL   H13020110   6.929   5.549   1.950  0.7216  0.4611 -0.2253
   91MOL   H13120111   7.089   5.718   1.944  0.2779  1.2426 -2.3894
   91MOL   H13220112   7.394   5.434   1.837  1.3402 -0.4028  0.2723
   91MOL   H13320113   7.207   5.251   1.835 -0.3448 -0.0317 -4.0330
   91MOL   C13420114   7.115   5.042   2.123  0.0242  0.5440  0.2496
   91MOL   C13520115   7.079   5.169   2.074 -0.3114 -0.0220 -0.0155
   91MOL   C13620116   6.980   5.177   1.969  0.1317  0.6813 -0.6622
   91MOL   C13720117   6.905   5.059   1.942  0.3542 -0.0787  0.3512
   91MOL   C13820118   6.932   4.941   2.002  0.0199 -0.0293 -0.0171
   91MOL   C13920119   7.035   4.929   2.097 -0.7137 -0.4722 -0.3604
   91MOL   O14020120   7.064   4.807   2.166  0.4420 -1.0595  0.0134
   91MOL   H14120121   7.204   5.040   2.184  0.8135 -0.6048 -0.9073
   91MOL   H14220122   7.143   5.255   2.088 -0.7543  0.2007  0.6435
   91MOL   H14320123   6.832   5.064   1.863 -0.7188 -1.8010  1.2022
   91MOL   H14420124   6.870   4.861   1.965 -3.4116  1.0209  3.1955
   91MOL   C14520125   7.198   4.718   2.482 -0.0362 -0.2262  0.4724
   91MOL   C14620126   7.192   4.739   2.346  0.0620 -1.0974  0.3663
   91MOL   C14720127   7.076   4.802   2.299 -0.2548 -1.4863 -0.3003
   91MOL   C14820128   6.972   4.846   2.380 -0.0312 -0.3902 -0.0637
   91MOL   C14920129   6.981   4.818   2.520  0.0710  0.0848  0.9553
   91MOL   C15020130   7.099   4.763   2.576 -0.0484 -0.2800  0.3410
   91MOL   O15120131   7.118   4.733   2.708  0.0468  0.1252  0.3431
   91MOL   H15220132   7.283   4.663   2.521  0.4820 -1.4222 -2.2278
   91MOL   H15320133   7.271   4.704   2.281 -1.2568  0.0266 -1.8933
   91MOL   H15420134   6.889   4.896   2.331 -0.1497  0.4598  0.9864
   91MOL   H15520135   6.895   4.848   2.577 -1.0437  1.9044 -1.6132
   91MOL   C15620136   7.192   5.060   2.845  0.7529  0.1007  0.0855
   91MOL   C15720137   7.211   4.936   2.784  0.6161  0.7784 -0.6262
   91MOL   C15820138   7.106   4.838   2.788  0.3277 -0.6530 -0.3174
   91MOL   C15920139   6.987   4.872   2.862 -0.6176  0.4190  0.6108
   91MOL   C16020140   6.982   4.987   2.939  0.1490  0.0507 -0.2053
   91MOL   C16120141   7.087   5.081   2.937  0.4679  0.4608 -0.3143
   91MOL   O16220142   7.086   5.197   3.014 -0.8647  0.0511  0.4156
   91MOL   H16320143   7.279   5.124   2.835  1.5264 -0.7509  1.1728
   91MOL   H16420144   7.296   4.918   2.719  0.3594 -0.5382 -0.6014
   91MOL   H16520145   6.907   4.799   2.859 -1.2517  1.0823  1.2979
   91MOL   H16620146   6.890   4.999   2.995  0.5328 -0.3110  0.5159
   91MOL   C16720147   7.198   5.089   3.354 -0.4843  0.0857  0.1617
   91MOL   C16820148   7.195   5.103   3.212 -0.4248 -0.8215 -0.7951
   91MOL   C16920149   7.092   5.184   3.152 -0.5326  0.5450 -0.4936
   91MOL   C17020150   7.003   5.253   3.238 -0.5479 -0.2231  0.0397
   91MOL   C17120151   7.012   5.253   3.377 -0.3287  0.1810  0.6916
   91MOL   C17220152   7.106   5.162   3.431  0.1599  1.0729 -1.1654
   91MOL   O17320153   7.104   5.158   3.567 -0.3604 -0.3813 -0.0734
   91MOL   H17420154   7.275   5.025   3.395 -0.3727 -1.4524 -2.3515
   91MOL   H17520155   7.270   5.048   3.157 -0.8609 -1.1643 -1.0512
   91MOL   H17620156   6.940   5.324   3.186  0.9817  1.3347  0.2762
   91MOL   H17720157   6.953   5.321   3.436  0.0189  1.4910 -0.4567
   91MOL   C17820158   7.182   4.836   3.738 -0.0266  0.0405 -0.3648
   91MOL   C17920159   7.204   4.954   3.663  0.2915  0.3295  0.3044
   91MOL   C18020160   7.090   5.036   3.630  0.5630 -0.3214  0.2754
   91MOL   C18120161   6.961   4.994   3.663  0.5973  0.9040 -0.5483
   91MOL   C18220162   6.940   4.865   3.721  0.2584 -0.0395  0.1063
   91MOL   C18320163   7.051   4.791   3.771  0.2885 -0.1776  0.2583
   91MOL   O18420164   7.032   4.668   3.823 -0.5919 -0.5530  0.4214
   91MOL   H18520165   7.274   4.783   3.759 -1.0309 -1.0818  1.2514
   91MOL   H18620166   7.301   4.989   3.630  0.1806 -1.2520 -1.8228
   91MOL   H18720167   6.883   5.065   3.642  0.9997  1.6032  0.2713
   91MOL   H18820168   6.836   4.845   3.741 -0.0489  0.6468 -0.7541
   91MOL   C18920169   7.044   4.749   4.190  0.1499  0.6395  0.5486
   91MOL   C19020170   7.070   4.763   4.051  0.4167 -0.8259 -0.1609
   91MOL   C19120171   7.007   4.673   3.958  0.3286 -0.4864  0.2667
   91MOL   C19220172   6.918   4.573   4.009 -0.5822  0.1818 -0.4783
   91MOL   C19320173   6.901   4.560   4.145 -0.2561 -0.1456  0.4068
   91MOL   C19420174   6.955   4.654   4.237  0.2010 -0.0973  1.0669
   91MOL   O19520175   6.936   4.647   4.371  0.0971 -0.0802 -0.2860
   91MOL   H19620176   7.100   4.805   4.263  2.3772 -0.4380 -0.2928
   91MOL   H19720177   7.140   4.839   4.021  0.0683  0.0751  1.2569
   91MOL   H19820178   6.865   4.510   3.939 -0.4322 -0.5903  0.0949
   91MOL   H19920179   6.826   4.487   4.170 -0.8980  0.2907 -0.2330
   91MOL   C20020180   6.645   4.846   4.470 -0.7195 -0.2690 -0.8435
   91MOL   C20120181   6.768   4.812   4.408  0.1306 -0.2078  0.1064
   91MOL   C20220182   6.816   4.684   4.412 -0.0863 -0.6705 -0.7791
   91MOL   C20320183   6.731   4.580   4.464  0.2997 -0.2275 -0.6343
   91MOL   C20420184   6.608   4.609   4.513 -0.2275 -0.1424  0.5808
   91MOL   C20520185   6.566   4.740   4.525  0.4476  0.0611 -0.1169
   91MOL   O20620186   6.450   4.760   4.586  0.4051 -0.1614  0.3799
   91MOL   H20720187   6.619   4.950   4.476  0.8968  0.0274  1.8177
   91MOL   H20820188   6.834   4.886   4.365  0.5108  0.0142  1.0566
   91MOL   H20920189   6.770   4.480   4.464 -2.3699 -1.3501  2.4338
   91MOL   H21020190   6.531   4.541   4.547 -0.7216 -0.7864 -1.7046
   91MOL   C21120191   6.179   4.717   4.327 -0.3218  0.0625  0.0253
   91MOL   C21220192   6.286   4.693   4.420 -0.0870  0.0418 -1.1047
   91MOL   C21320193   6.350   4.793   4.491  0.1258  0.2515  0.2512
   91MOL   C21420194   6.308   4.925   4.462 -0.4370  0.0868 -0.0846
   91MOL   C21520195   6.207   4.952   4.366  0.5583  0.5078 -0.4259
   91MOL   C21620196   6.127   4.846   4.310 -0.4455 -0.4950  0.4284
   91MOL   O21720197   6.021   4.871   4.229 -0.5903  0.3236 -0.6864
   91MOL   H21820198   6.136   4.631   4.277  2.2842  0.1586 -2.6066
   91MOL   H21920199   6.317   4.594   4.446  1.8375  1.4238  2.1580
   91MOL   H22020200   6.361   5.003   4.514  0.3720  0.0857 -0.9182
   91MOL   H22120201   6.174   5.054   4.353 -1.7295 -0.2515 -0.8491
   91MOL   H22220202   6.031   4.961   4.202  0.0568  1.0893  1.9838
   92MOL     C120203   5.433   1.838   2.032  0.3255 -0.2298  0.2157
   92MOL     C220204   5.539   1.768   2.100  0.3528  0.5034  0.0122
   92MOL     C320205   5.670   1.773   2.049 -0.1876 -0.7138  0.3679
   92MOL     C420206   5.697   1.863   1.940 -0.1773 -0.5676  0.0973
   92MOL     C520207   5.595   1.936   1.879 -0.8472  0.7795  0.3054
   92MOL     C620208   5.461   1.923   1.922  0.0352  0.0479  0.0682
   92MOL     O720209   5.362   1.985   1.844  0.0927  0.1833 -0.2685
   92MOL     H820210   5.331   1.846   2.068  0.6442  2.0145  0.7055
   92MOL     H920211   5.523   1.713   2.192  1.4310  1.1323  0.5881
   92MOL    H1020212   5.793   1.876   1.892 -1.6402 -0.4838 -2.8967
   92MOL    H1120213   5.617   1.990   1.788 -3.7582  0.4414 -0.6414
   92MOL    H1220214   5.746   1.712   2.095 -0.2238 -2.2843 -1.5628
   92MOL    C1320215   5.241   1.716   1.621  0.6462 -0.0061 -0.4031
   92MOL    C1420216   5.324   1.800   1.691  0.0694 -0.0610  0.0046
   92MOL    C1520217   5.274   1.912   1.768 -0.4599  0.2257  0.2655
   92MOL    C1620218   5.136   1.931   1.763  0.7166 -0.3236  0.5282
   92MOL    C1720219   5.048   1.849   1.689  0.6227 -0.1923  0.0889
   92MOL    C1820220   5.098   1.737   1.617 -0.4606 -0.1933  0.5224
   92MOL    O1920221   5.003   1.654   1.562  0.1528 -0.0058 -0.5231
   92MOL    H2020222   5.279   1.647   1.548 -0.1194  2.1913 -2.9505
   92MOL    H2120223   5.431   1.781   1.688 -0.2316 -1.8472 -0.0642
   92MOL    H2220224   5.100   2.013   1.823  0.5290 -1.2572  1.7023
   92MOL    H2320225   4.942   1.873   1.689  0.9198  1.1511 -0.2336
   92MOL    C2420226   5.099   1.338   1.389 -0.0163  0.7678  0.2202
   92MOL    C2520227   5.070   1.432   1.490  0.7730 -0.4060 -0.4061
   92MOL    C2620228   5.040   1.569   1.460  0.4244  0.9088 -0.3310
   92MOL    C2720229   5.031   1.604   1.322 -0.6519 -0.4471 -0.3923
   92MOL    C2820230   5.064   1.515   1.224 -0.3076 -1.0303  0.1171
   92MOL    C2920231   5.098   1.384   1.256  0.7508  0.1846  0.1925
   92MOL    O3020232   5.135   1.303   1.155  0.1732 -0.4446  0.0982
   92MOL    H3120233   5.123   1.235   1.413 -2.3934 -0.1068 -0.9938
   92MOL    H3220234   5.043   1.399   1.589 -1.3080 -1.9059 -1.4378
   92MOL    H3320235   5.009   1.704   1.288  0.7251  0.3271  0.9756
   92MOL    H3420236   5.048   1.542   1.120  0.7507  1.3854  0.5697
   92MOL    C3520237   5.456   1.454   1.060  0.1955  0.5960 -0.6868
   92MOL    C3620238   5.343   1.431   1.134  0.1214  0.0686  0.1269
   92MOL    C3720239   5.254   1.330   1.088  0.3993 -0.0139 -0.5006
   92MOL    C3820240   5.273   1.273   0.958  0.0582 -0.3585 -0.1262
   92MOL    C3920241   5.381   1.308   0.883 -0.4669 -0.3940 -0.0103
   92MOL    C4020242   5.479   1.400   0.931  0.3373 -0.0104  0.3278
   92MOL    O4120243   5.585   1.441   0.858  0.8755 -0.3393 -0.4735
   92MOL    H4220244   5.533   1.520   1.097  1.8122 -1.5053 -0.1791
   92MOL    H4320245   5.338   1.476   1.231  0.6888 -3.0089  1.6457
   92MOL    H4420246   5.200   1.200   0.926  1.0165 -0.5684 -1.8919
   92MOL    H4520247   5.401   1.270   0.784  2.0214 -0.0984  0.3683
   92MOL    C4620248   5.426   1.643   0.591 -0.5476 -0.0518 -0.1044
   92MOL    C4720249   5.448   1.594   0.720  0.2184  0.2465 -0.4269
   92MOL    C4820250   5.559   1.507   0.743  0.2530 -0.5933  0.4883
   92MOL    C4920251   5.645   1.492   0.636 -0.6726 -0.5375 -0.4446
   92MOL    C5020252   5.629   1.535   0.505  0.2766  0.0504 -0.4443
   92MOL    C5120253   5.517   1.616   0.479  0.1048 -0.6343  0.3160
   92MOL    O5220254   5.492   1.657   0.347 -0.1572  0.5960 -0.2898
   92MOL    H5320255   5.340   1.702   0.562 -0.6275 -0.6552 -1.1143
   92MOL    H5420256   5.374   1.603   0.799  0.0465  0.0369 -0.5640
   92MOL    H5520257   5.724   1.420   0.649  0.3706  0.2709 -2.0540
   92MOL    H5620258   5.698   1.502   0.430 -0.7293 -4.0312  0.3159
   92MOL    C5720259   5.335   1.989   0.315 -0.4327 -0.1348 -0.1600
   92MOL    C5820260   5.351   1.851   0.315  1.0190 -0.2526 -0.4411
   92MOL    C5920261   5.477   1.791   0.331 -1.0449 -0.5467  0.5719
   92MOL    C6020262   5.592   1.870   0.349 -0.4738  0.2377 -0.0474
   92MOL    C6120263   5.576   2.012   0.339 -0.4347  0.7661 -0.7165
   92MOL    C6220264   5.448   2.073   0.323  0.0373  0.2062  0.5820
   92MOL    O6320265   5.432   2.209   0.309 -0.0037  0.6114  0.0251
   92MOL    H6420266   5.241   2.041   0.315 -0.0000  0.7812  3.5038
   92MOL    H6520267   5.264   1.788   0.310  1.5290 -1.3164  2.7257
   92MOL    H6620268   5.686   1.833   0.388 -1.2191 -4.0005 -2.0414
   92MOL    H6720269   5.667   2.070   0.348  0.4938 -1.0278  2.4075
   92MOL    C6820270   5.653   2.493   0.416 -0.0202  0.2677  0.3653
   92MOL    C6920271   5.582   2.399   0.327 -0.0225 -0.8342  0.1524
   92MOL    C7020272   5.502   2.301   0.381 -0.0938 -0.5003 -0.2182
   92MOL    C7120273   5.479   2.296   0.523  0.7371 -0.4494  0.1022
   92MOL    C7220274   5.522   2.400   0.605 -0.7183  0.6504  0.5257
   92MOL    C7320275   5.615   2.492   0.553  0.1818  0.5936 -0.5133
   92MOL    O7420276   5.672   2.583   0.639  0.5564  0.2752 -0.2770
   92MOL    H7520277   5.719   2.569   0.376 -1.2494  0.2651 -1.7616
   92MOL    H7620278   5.608   2.407   0.222  2.3714  1.1754  0.8436
   92MOL    H7720279   5.410   2.223   0.562 -0.3470 -0.2958 -1.5088
   92MOL    H7820280   5.485   2.404   0.707  0.2171 -0.0425  0.8941
   92MOL    C7920281   5.983   2.777   0.623  0.1558  0.0268 -0.5122
   92MOL    C8020282   5.850   2.738   0.620 -0.3305  0.8061  1.1805
   92MOL    C8120283   5.805   2.606   0.637 -0.9372  0.5423  0.0630
   92MOL    C8220284   5.905   2.507   0.650  0.0150  0.3334 -0.5291
   92MOL    C8320285   6.039   2.538   0.654 -0.5715 -0.0976 -0.0869
   92MOL    C8420286   6.081   2.678   0.636  0.1064 -0.2595  0.0491
   92MOL    O8520287   6.213   2.718   0.645  0.0554 -0.3793  0.9634
   92MOL    H8620288   6.012   2.879   0.604 -1.2475  0.1720 -1.9222
   92MOL    H8720289   5.776   2.816   0.613 -0.0896  0.8939 -0.8618
   92MOL    H8820290   5.874   2.405   0.659 -0.8924  0.6850  0.3715
   92MOL    H8920291   6.115   2.462   0.665 -1.3651 -1.0438 -1.0603
   92MOL    C9020292   6.408   2.850   0.360 -0.4712  0.1160  0.4297
   92MOL    C9120293   6.351   2.838   0.491  0.1446  0.0624  0.4420
   92MOL    C9220294   6.281   2.719   0.523 -0.0699 -1.0437 -0.2180
   92MOL    C9320295   6.272   2.614   0.437 -1.5201  0.7068  0.0039
   92MOL    C9420296   6.333   2.628   0.309  0.8470  0.6599  0.7784
   92MOL    C9520297   6.393   2.751   0.263 -0.2247  0.4307  0.2324
   92MOL    O9620298   6.443   2.776   0.137  0.1036  0.4956  0.0111
   92MOL    H9720299   6.460   2.941   0.333 -3.1621  1.8222  0.6893
   92MOL    H9820300   6.354   2.918   0.564  1.0803  1.3143 -0.9422
   92MOL    H9920301   6.217   2.525   0.463 -0.5908  0.3490  0.7724
   92MOL   H10020302   6.328   2.545   0.239 -0.5383 -1.9629  3.8329
   92MOL   C10120303   6.185   2.700   8.149 -0.0501  0.2671 -0.5626
   92MOL   C10220304   6.255   2.773   8.250  0.0409 -0.2835  0.7230
   92MOL   C10320305   6.380   2.718   0.031 -1.0311 -0.0864 -0.4213
   92MOL   C10420306   6.434   2.608   8.219 -0.2494  0.2575  0.3966
   92MOL   C10520307   6.368   2.549   8.109 -0.1507 -0.1698  0.8205
   92MOL   C10620308   6.241   2.594   8.065 -0.3339 -0.2685 -0.3684
   92MOL   O10720309   6.174   2.533   7.966  0.8031  0.5714 -0.3010
   92MOL   H10820310   6.086   2.738   8.127 -0.8103 -0.1204  2.0044
   92MOL   H10920311   6.213   2.866   0.033 -0.3428 -0.0045 -0.3915
   92MOL   H11020312   6.526   2.564   0.002 -0.3130  0.3306  0.6410
   92MOL   H11120313   6.397   2.451   8.074 -2.0587  0.1068 -1.7810
   92MOL   C11220314   6.172   2.700   7.646 -0.4176 -0.2550 -0.0919
   92MOL   C11320315   6.216   2.618   7.754 -0.0555  0.3793 -0.4185
   92MOL   C11420316   6.132   2.609   7.868  0.1148 -1.2955  0.8265
   92MOL   C11520317   6.007   2.672   7.868 -0.9766 -0.3211  0.8335
   92MOL   C11620318   5.967   2.759   7.760  0.0068 -0.0610  0.3094
   92MOL   C11720319   6.053   2.770   7.649  0.1069 -0.1888 -0.5225
   92MOL   O11820320   6.013   2.847   7.542  0.1155  0.7415 -0.1873
   92MOL   H11920321   6.234   2.700   7.558  0.9067 -1.8195  0.8273
   92MOL   H12020322   6.311   2.567   7.760 -0.5014 -0.5872 -1.4702
   92MOL   H12120323   5.938   2.659   7.950 -0.3154  1.0847  1.6404
   92MOL   H12220324   5.880   2.822   7.759 -0.3628 -0.5794 -0.1914
   92MOL   C12320325   5.773   2.622   7.368  0.3063  0.1937  0.0455
   92MOL   C12420326   5.871   2.664   7.459 -0.3266 -0.1086 -0.4014
   92MOL   C12520327   5.918   2.794   7.455  0.1574 -0.1564  0.5112
   92MOL   C12620328   5.860   2.882   7.361 -0.5268  0.2363  0.4059
   92MOL   C12720329   5.754   2.845   7.274 -0.2715  0.7649  0.3283
   92MOL   C12820330   5.710   2.707   7.281 -0.0643 -0.3778  0.4264
   92MOL   O12920331   5.600   2.665   7.209 -0.3094 -0.2787  0.6844
   92MOL   H13020332   5.742   2.519   7.374 -0.1223 -0.2743 -6.6267
   92MOL   H13120333   5.915   2.594   7.529  1.5384  1.9076  0.4695
   92MOL   H13220334   5.902   2.981   7.361  0.6173 -0.2464 -0.0695
   92MOL   H13320335   5.711   2.917   7.206 -0.1153 -2.8316 -3.7513
   92MOL   C13420336   5.576   2.313   7.121 -0.0501 -0.9643  0.6761
   92MOL   C13520337   5.619   2.447   7.127  0.6891 -0.2010  0.3109
   92MOL   C13620338   5.556   2.539   7.210  0.0840 -0.5575 -0.1061
   92MOL   C13720339   5.448   2.505   7.293  0.3162  0.2849  0.7720
   92MOL   C13820340   5.408   2.368   7.296 -0.0438 -0.0881  0.7173
   92MOL   C13920341   5.479   2.272   7.219 -0.5258 -0.7074  0.0399
   92MOL   O14020342   5.443   2.137   7.227  0.1233 -0.2749  0.5839
   92MOL   H14120343   5.624   2.244   7.053  1.5114  0.0029  0.7717
   92MOL   H14220344   5.700   2.490   7.071  0.0189  0.4158 -0.1820
   92MOL   H14320345   5.390   2.572   7.356 -1.4281  0.7295 -1.2283
   92MOL   H14420346   5.317   2.349   7.352 -0.6808  0.4856 -0.1115
   92MOL   C14520347   5.318   2.029   6.901  0.6268 -0.2727 -0.6054
   92MOL   C14620348   5.406   2.056   7.004  0.2434 -0.1353  0.3179
   92MOL   C14720349   5.358   2.100   7.128 -0.9874  0.2455  0.4081
   92MOL   C14820350   5.215   2.100   7.157 -0.6954 -0.9442  0.2893
   92MOL   C14920351   5.128   2.063   7.057 -0.4003  0.1332  0.3212
   92MOL   C15020352   5.179   2.030   6.927 -0.4837 -0.4105 -0.5214
   92MOL   O15120353   5.103   1.998   6.822  0.6124  0.5033 -0.1726
   92MOL   H15220354   5.350   2.005   6.801  1.2332  0.4580 -0.5856
   92MOL   H15320355   5.511   2.058   6.979  0.4302 -4.2633  0.2792
   92MOL   H15420356   5.174   2.112   7.255 -0.8461 -1.7183  0.3242
   92MOL   H15520357   5.024   2.049   7.082  0.0716  0.7597  2.7783
   92MOL   C15620358   4.748   1.904   6.821 -0.2409  0.8230  0.8454
   92MOL   C15720359   4.888   1.891   6.829  0.7679 -0.7067 -0.1856
   92MOL   C15820360   4.966   2.008   6.834  0.0798 -0.0338  0.6339
   92MOL   C15920361   4.905   2.136   6.815  0.3079 -0.1134  0.1125
   92MOL   C16020362   4.762   2.137   6.801 -0.0342 -0.1773 -0.0009
   92MOL   C16120363   4.680   2.029   6.810 -0.5195 -0.0309 -0.2529
   92MOL   O16220364   4.543   2.029   6.811 -0.2465  0.1799  0.8508
   92MOL   H16320365   4.687   1.815   6.828 -1.6403  1.8027  1.4238
   92MOL   H16420366   4.925   1.792   6.852 -0.3402 -1.4490 -1.5879
   92MOL   H16520367   4.950   2.234   6.815 -1.0514  0.5237  1.0782
   92MOL   H16620368   4.706   2.229   6.791 -1.7926 -1.3643 -1.5290
   92MOL   C16720369   4.413   1.857   6.507  0.4506 -1.5289  0.2391
   92MOL   C16820370   4.484   1.946   6.586  0.2734  0.1710  0.3010
   92MOL   C16920371   4.483   1.938   6.730 -0.0432  0.5120 -0.4565
   92MOL   C17020372   4.405   1.835   6.784 -0.1304  0.4440 -0.5176
   92MOL   C17120373   4.334   1.746   6.701 -0.3513 -0.0544  0.3567
   92MOL   C17220374   4.341   1.753   6.563 -0.2700 -0.5932 -0.1384
   92MOL   O17320375   4.279   1.664   6.484 -0.1839  0.6211 -0.0256
   92MOL   H17420376   4.423   1.857   6.400  1.9775  0.6419  0.3598
   92MOL   H17520377   4.538   2.017   6.526  1.1051 -0.1777  0.6232
   92MOL   H17620378   4.393   1.823   6.890 -1.2593 -0.5052 -0.7301
   92MOL   H17720379   4.287   1.661   6.749  0.6550 -1.4289 -1.0409
   92MOL   C17820380   4.012   1.848   6.295  0.1796  0.1513 -0.1769
   92MOL   C17920381   4.091   1.805   6.407  0.0919  0.0721 -0.0167
   92MOL   C18020382   4.202   1.717   6.386 -0.2606 -1.0448 -0.7921
   92MOL   C18120383   4.235   1.673   6.261  0.7577 -0.4395 -0.0386
   92MOL   C18220384   4.164   1.723   6.154 -0.2577  0.1311 -0.2011
   92MOL   C18320385   4.053   1.815   6.164 -0.1132 -0.1111  0.4865
   92MOL   O18420386   3.989   1.868   6.055 -0.4592 -0.1626  0.2132
   92MOL   H18520387   3.931   1.915   6.318  1.1640  1.3400 -0.0645
   92MOL   H18620388   4.077   1.829   6.511  1.3103 -1.9515  0.6438
   92MOL   H18720389   4.319   1.607   6.247  2.9156  2.0864  0.4205
   92MOL   H18820390   4.197   1.693   6.055 -1.5300 -1.2358 -0.2276
   92MOL   C18920391   4.215   2.076   5.848 -0.0570 -0.5945 -0.1520
   92MOL   C19020392   4.136   2.030   5.957 -0.9220 -0.4307  0.2894
   92MOL   C19120393   4.067   1.913   5.950 -0.2591 -0.0337  0.3329
   92MOL   C19220394   4.085   1.831   5.833  0.3773 -0.8496 -0.2057
   92MOL   C19320395   4.163   1.873   5.722  0.0596 -0.2134 -0.0873
   92MOL   C19420396   4.230   1.997   5.734  0.0183  0.0799  0.6836
   92MOL   O19520397   4.297   2.042   5.624 -0.0395 -0.2727  0.5021
   92MOL   H19620398   4.265   2.170   5.864 -0.0099 -0.4466 -1.1241
   92MOL   H19720399   4.112   2.089   6.043  0.2948  2.2619 -1.1754
   92MOL   H19820400   4.019   1.747   5.822 -0.6124 -0.0801 -0.1982
   92MOL   H19920401   4.176   1.803   5.642  1.3301 -0.6651  0.5061
   92MOL   C20020402   4.591   2.263   5.660  0.2697  0.1289  0.0499
   92MOL   C20120403   4.512   2.149   5.673  0.1379  0.2323  0.6844
   92MOL   C20220404   4.375   2.152   5.633  0.0872 -0.1206  0.2324
   92MOL   C20320405   4.329   2.274   5.581  0.1688  1.0817  0.1904
   92MOL   C20420406   4.402   2.390   5.575 -0.3222 -0.2006  0.4550
   92MOL   C20520407   4.539   2.388   5.617  0.5866  0.2504 -0.5000
   92MOL   O20620408   4.610   2.502   5.607 -0.2849  0.0388  0.2213
   92MOL   H20720409   4.693   2.254   5.693  0.7013 -0.2200 -1.3329
   92MOL   H20820410   4.552   2.055   5.708 -0.1226 -0.2780 -0.3756
   92MOL   H20920411   4.224   2.281   5.556  0.0797 -1.2377 -0.2090
   92MOL   H21020412   4.356   2.478   5.533 -0.2615 -0.4825 -0.2060
   92MOL   C21120413   4.960   2.507   5.727 -0.4369 -0.1703 -0.2840
   92MOL   C21220414   4.845   2.502   5.638  0.4076 -0.1924 -0.0283
   92MOL   C21320415   4.716   2.513   5.685  0.5024  0.0855 -0.5366
   92MOL   C21420416   4.698   2.540   5.821 -0.4897  0.1311  0.7895
   92MOL   C21520417   4.807   2.548   5.910  0.0451  0.3661  0.1215
   92MOL   C21620418   4.940   2.539   5.860 -0.4791  0.7122  0.0661
   92MOL   O21720419   5.048   2.549   5.946 -0.4105  1.2220  0.3698
   92MOL   H21820420   5.055   2.514   5.676  0.4540  0.9237  1.4679
   92MOL   H21920421   4.863   2.479   5.534 -1.8741  0.2601 -0.5472
   92MOL   H22020422   4.600   2.557   5.864 -0.3145 -0.0336  1.2492
   92MOL   H22120423   4.802   2.573   6.015 -0.6963  3.9830 -0.7032
   92MOL   H22220424   5.028   2.558   6.038  0.2623  0.0672  0.6427
   93MOL     C120425   4.697   4.220   1.204 -0.3968  0.5928  0.7028
   93MOL     C220426   4.799   4.314   1.228  0.7261  0.0380 -0.1493
   93MOL     C320427   4.934   4.282   1.257 -0.6751  0.0360 -0.3765
   93MOL     C420428   4.963   4.144   1.265  0.3114 -0.5120 -0.6937
   93MOL     C520429   4.868   4.044   1.236 -0.4541  0.6749 -0.2753
   93MOL     C620430   4.737   4.086   1.200  0.3905  0.0765  0.1747
   93MOL     O720431   4.647   3.996   1.155 -0.3185  0.0710 -0.2569
   93MOL     H820432   4.601   4.251   1.164 -0.9660 -3.1856 -1.0729
   93MOL     H920433   4.765   4.417   1.230  1.3021  0.2253  3.5048
   93MOL    H1020434   5.064   4.115   1.289 -0.0918 -0.1878  1.4404
   93MOL    H1120435   4.898   3.940   1.238 -3.0056 -0.1033 -1.0211
   93MOL    H1220436   5.010   4.358   1.273 -0.3128 -0.5490  0.7086
   93MOL    C1320437   4.508   3.766   1.413  0.1117  0.2740 -0.4957
   93MOL    C1420438   4.551   3.888   1.346 -0.2098 -0.1854 -0.0317
   93MOL    C1520439   4.633   3.879   1.232 -0.6641 -0.1129 -0.2200
   93MOL    C1620440   4.707   3.766   1.212  0.1666  0.5449 -0.2745
   93MOL    C1720441   4.675   3.651   1.280 -0.1227  0.4044 -0.3125
   93MOL    C1820442   4.573   3.653   1.379  0.0094  0.1578 -0.9737
   93MOL    O1920443   4.544   3.534   1.448  0.2829 -0.5799  0.9804
   93MOL    H2020444   4.441   3.762   1.498  1.3753 -0.9229  0.4415
   93MOL    H2120445   4.516   3.988   1.368  1.9703  0.3921  0.9442
   93MOL    H2220446   4.771   3.759   1.126 -0.2398  3.1102 -0.8127
   93MOL    H2320447   4.726   3.557   1.264 -1.4189  0.2265 -3.7374
   93MOL    C2420448   4.208   3.413   1.554 -0.2125  0.4096 -0.2305
   93MOL    C2520449   4.329   3.494   1.554  0.6453 -0.8054  0.0023
   93MOL    C2620450   4.420   3.480   1.444  0.1146 -0.4239 -0.2815
   93MOL    C2720451   4.384   3.404   1.335  0.4665  0.7746 -0.2730
   93MOL    C2820452   4.255   3.345   1.333 -0.7036 -0.4554 -0.1505
   93MOL    C2920453   4.167   3.341   1.440  0.1858  0.5984  0.5915
   93MOL    O3020454   4.046   3.292   1.428 -0.2003 -0.3109  0.1200
   93MOL    H3120455   4.139   3.411   1.637  1.6079 -0.0254  1.3033
   93MOL    H3220456   4.368   3.538   1.644 -1.3028 -0.8154  0.8715
   93MOL    H3320457   4.448   3.395   1.248  0.2757  0.6665 -0.4022
   93MOL    H3420458   4.223   3.312   1.235  1.7448 -0.2701 -1.0376
   93MOL    C3520459   3.824   3.581   1.369  0.7962  0.4934  0.0758
   93MOL    C3620460   3.935   3.497   1.361  1.1041  0.2906  0.0397
   93MOL    C3720461   3.929   3.368   1.416  0.8921 -0.2706  0.2013
   93MOL    C3820462   3.809   3.316   1.466  0.4066 -0.0553  0.7388
   93MOL    C3920463   3.694   3.391   1.440 -0.2968 -0.1932  0.0122
   93MOL    C4020464   3.695   3.525   1.397  0.3232  0.6750  0.2745
   93MOL    O4120465   3.578   3.593   1.381  0.3350  0.4626 -0.7023
   93MOL    H4220466   3.812   3.680   1.326 -2.5748 -0.2788 -0.9233
   93MOL    H4320467   4.028   3.546   1.337 -1.5170  3.9307 -3.4981
   93MOL    H4420468   3.808   3.215   1.504  2.4604 -0.0186  0.9785
   93MOL    H4520469   3.597   3.359   1.474  0.2321 -1.2708  0.5517
   93MOL    C4620470   3.551   3.910   1.569  0.1907 -1.2155 -0.6105
   93MOL    C4720471   3.565   3.774   1.541 -0.2416 -0.0291 -0.0509
   93MOL    C4820472   3.562   3.725   1.412  0.2197  0.0384 -0.4039
   93MOL    C4920473   3.530   3.814   1.308 -1.0302  0.2466  0.9116
   93MOL    C5020474   3.518   3.955   1.338  0.3600  0.4193  0.2564
   93MOL    C5120475   3.528   4.007   1.466 -0.2173  0.4978 -0.7156
   93MOL    O5220476   3.511   4.138   1.487  0.3135 -0.7206  0.1741
   93MOL    H5320477   3.561   3.945   1.670  4.6023  0.8402 -1.6200
   93MOL    H5420478   3.606   3.710   1.618 -0.8604  0.3050  0.5648
   93MOL    H5520479   3.513   3.782   1.206  1.5061  1.9576 -0.0933
   93MOL    H5620480   3.488   4.027   1.263 -0.7737 -0.1140  0.1861
   93MOL    C5720481   3.266   4.345   1.295 -0.1563  0.0465  0.3732
   93MOL    C5820482   3.393   4.278   1.330  0.9551 -0.3217  0.8707
   93MOL    C5920483   3.400   4.204   1.449  0.4478 -0.1409  0.3778
   93MOL    C6020484   3.284   4.187   1.532 -0.3829  0.3217  0.6389
   93MOL    C6120485   3.157   4.226   1.480 -0.0357 -0.1227 -0.1747
   93MOL    C6220486   3.148   4.297   1.362  0.8089  0.3017 -0.2359
   93MOL    O6320487   3.022   4.312   1.305 -0.3114 -0.5191 -0.4569
   93MOL    H6420488   3.269   4.401   1.203 -1.0743 -1.5170 -0.6257
   93MOL    H6520489   3.475   4.307   1.266  0.7196 -1.6051 -0.0377
   93MOL    H6620490   3.290   4.128   1.622 -0.6961  2.2754  1.9760
   93MOL    H6720491   3.068   4.215   1.541  0.3850  0.7123  0.6211
   93MOL    C6820492   2.799   4.576   1.441  0.0564 -0.4810  0.2981
   93MOL    C6920493   2.864   4.454   1.429 -0.5493  0.9170  0.6830
   93MOL    C7020494   2.961   4.436   1.323 -0.4689 -0.5162 -0.0052
   93MOL    C7120495   2.998   4.546   1.231 -0.3676  0.1444 -0.2517
   93MOL    C7220496   2.930   4.663   1.260 -0.3014 -0.2689 -0.1021
   93MOL    C7320497   2.834   4.683   1.360  0.4389 -0.2605 -0.2091
   93MOL    O7420498   2.785   4.811   1.361 -0.2252 -0.6812  0.0143
   93MOL    H7520499   2.729   4.578   1.523  0.4431  0.2757  0.6116
   93MOL    H7620500   2.841   4.371   1.494  1.5768 -0.1748  0.0865
   93MOL    H7720501   3.077   4.529   1.159 -1.4747 -1.5737 -1.1084
   93MOL    H7820502   2.968   4.746   1.203  1.6133 -0.4299  0.8945
   93MOL    C7920503   2.652   5.017   1.634 -0.4872 -0.3614  0.0397
   93MOL    C8020504   2.734   4.973   1.529  0.1163  1.2382 -0.4383
   93MOL    C8120505   2.701   4.853   1.462 -0.0757  0.3458  0.0851
   93MOL    C8220506   2.583   4.785   1.488 -0.1735  0.7464  0.1181
   93MOL    C8320507   2.508   4.819   1.602 -0.4755 -0.2896 -0.2407
   93MOL    C8420508   2.544   4.936   1.676 -0.2721  0.2098 -0.7779
   93MOL    O8520509   2.468   4.975   1.784 -0.9685  0.0780 -0.0143
   93MOL    H8620510   2.672   5.108   1.689 -1.1648  1.1799 -2.1797
   93MOL    H8720511   2.819   5.027   1.489 -0.8596  0.8911 -3.1471
   93MOL    H8820512   2.552   4.702   1.427  0.0408  1.2175 -0.6301
   93MOL    H8920513   2.433   4.748   1.636  0.0695  0.4334  2.6027
   93MOL    C9020514   2.524   4.728   2.056 -0.1202  0.0126 -0.1869
   93MOL    C9120515   2.508   4.785   1.930  0.6597  0.6541 -0.9626
   93MOL    C9220516   2.493   4.921   1.911 -0.4260 -0.0431  0.0782
   93MOL    C9320517   2.505   5.011   2.019 -0.3883 -0.0789  0.6715
   93MOL    C9420518   2.518   4.957   2.147 -0.4905  0.2294 -0.2045
   93MOL    C9520519   2.526   4.815   2.167  0.7272  0.1973  0.6807
   93MOL    O9620520   2.524   4.766   2.292  0.4016 -0.0693  0.2657
   93MOL    H9720521   2.524   4.623   2.082 -2.5096  0.8545  3.6239
   93MOL    H9820522   2.487   4.718   1.848  1.1559 -1.5178  0.6248
   93MOL    H9920523   2.511   5.117   2.000 -0.5326 -0.3758 -1.2088
   93MOL   H10020524   2.516   5.022   2.234  6.2701 -1.3318  1.4201
   93MOL   C10120525   2.303   4.543   2.479 -0.5767 -0.0388  0.3058
   93MOL   C10220526   2.419   4.611   2.433  0.5020 -0.2047 -0.1716
   93MOL   C10320527   2.405   4.716   2.336  0.5484 -0.3221 -0.3629
   93MOL   C10420528   2.280   4.762   2.293 -0.2132  0.0118 -1.2762
   93MOL   C10520529   2.165   4.706   2.345 -0.1177 -0.4307 -0.4408
   93MOL   C10620530   2.174   4.596   2.431  0.8376 -0.7852  0.0424
   93MOL   O10720531   2.059   4.536   2.470  0.1292  0.1866  0.1418
   93MOL   H10820532   2.299   4.457   2.544 -0.3824  0.2132  0.6521
   93MOL   H10920533   2.515   4.584   2.473 -0.1609  0.3108  1.8029
   93MOL   H11020534   2.270   4.847   2.226  2.8123  0.7408 -0.8872
   93MOL   H11120535   2.070   4.735   2.303 -0.7508 -0.4944  0.9400
   93MOL   C11220536   2.031   4.170   2.443  0.2314 -0.0516  0.3905
   93MOL   C11320537   2.061   4.294   2.504 -0.7534 -0.4980 -0.1365
   93MOL   C11420538   2.030   4.409   2.423 -0.3475 -0.3707 -0.2606
   93MOL   C11520539   1.983   4.404   2.294  0.3490  0.1228  0.4872
   93MOL   C11620540   1.949   4.278   2.236 -0.1126 -0.0059  0.6396
   93MOL   C11720541   1.979   4.161   2.309  0.4603 -0.0641 -0.6288
   93MOL   O11820542   1.961   4.037   2.255  0.0259 -0.2966 -0.0881
   93MOL   H11920543   2.049   4.083   2.504 -0.0456  0.1159  0.7158
   93MOL   H12020544   2.103   4.318   2.601 -1.9033  1.0206 -0.0033
   93MOL   H12120545   1.950   4.498   2.252  0.0582  0.0317  0.5078
   93MOL   H12220546   1.901   4.277   2.140  1.4160  1.4062 -0.1586
   93MOL   C12320547   2.255   3.850   2.144  0.0979  0.1950 -0.2475
   93MOL   C12420548   2.156   3.909   2.225  0.4133  0.5112  0.1732
   93MOL   C12520549   2.050   3.977   2.164  0.4086  0.0232 -1.2207
   93MOL   C12620550   2.034   3.979   2.022 -0.2973  0.6137  0.0951
   93MOL   C12720551   2.138   3.916   1.938  0.9726 -0.3049 -0.3883
   93MOL   C12820552   2.247   3.854   2.000  0.4229  0.4274  0.8363
   93MOL   O12920553   2.354   3.792   1.937 -0.3745 -0.5054  0.2757
   93MOL   H13020554   2.330   3.798   2.203  0.4848  0.7389 -0.2531
   93MOL   H13120555   2.154   3.891   2.332 -2.1355 -2.8966 -0.3618
   93MOL   H13220556   1.957   4.037   1.975 -3.9037 -1.6192  2.9618
   93MOL   H13320557   2.148   3.938   1.833  1.8757  0.6404 -0.1146
   93MOL   C13420558   2.508   3.979   1.666  0.2850 -0.0610  0.1116
   93MOL   C13520559   2.436   3.878   1.739  0.1919 -0.4246  0.1837
   93MOL   C13620560   2.438   3.880   1.877  0.3034  0.6773  0.3275
   93MOL   C13720561   2.514   3.983   1.941 -0.4674 -0.1702 -0.5431
   93MOL   C13820562   2.602   4.071   1.864 -0.0682 -0.4626  0.0658
   93MOL   C13920563   2.590   4.075   1.725  0.2875 -0.8315 -0.7107
   93MOL   O14020564   2.663   4.160   1.655 -0.1426 -0.3094  0.1440
   93MOL   H14120565   2.499   3.987   1.559 -0.4360  1.8754  0.2999
   93MOL   H14220566   2.374   3.805   1.688  0.7074 -1.6111  1.2414
   93MOL   H14320567   2.502   3.997   2.047 -2.5626 -2.3777 -0.4654
   93MOL   H14420568   2.668   4.148   1.903 -0.2419 -0.6516  0.7374
   93MOL   C14520569   2.586   4.253   1.300 -0.8122 -0.0930  0.1245
   93MOL   C14620570   2.647   4.190   1.411  0.5154  0.3986  0.0930
   93MOL   C14720571   2.607   4.225   1.547 -0.5455 -0.0668  0.1411
   93MOL   C14820572   2.516   4.330   1.566 -0.7253  0.0619 -0.3514
   93MOL   C14920573   2.462   4.395   1.455 -0.3103  0.3654 -0.6291
   93MOL   C15020574   2.495   4.361   1.322 -0.1170  0.7792  0.2935
   93MOL   O15120575   2.451   4.436   1.217 -0.6426 -0.1637  0.3005
   93MOL   H15220576   2.612   4.243   1.196 -0.8852  2.7930 -0.2095
   93MOL   H15320577   2.711   4.106   1.389  1.4687  1.2971 -0.5610
   93MOL   H15420578   2.479   4.367   1.661  1.5265  3.0330 -0.5421
   93MOL   H15520579   2.395   4.477   1.473  1.2048  1.2400  1.2112
   93MOL   C15620580   2.180   4.251   1.044  0.5742  0.0678  0.1460
   93MOL   C15720581   2.258   4.308   1.149  0.0933  0.2480  0.4422
   93MOL   C15820582   2.383   4.367   1.112 -0.4404 -0.2544 -0.4641
   93MOL   C15920583   2.439   4.355   0.986  0.1041 -0.1695 -0.5892
   93MOL   C16020584   2.373   4.281   0.891 -0.1521 -0.4576  0.2502
   93MOL   C16120585   2.242   4.238   0.919  0.6499 -0.0689 -0.8170
   93MOL   O16220586   2.171   4.178   0.822  0.2710 -0.6977 -0.3499
   93MOL   H16320587   2.078   4.217   1.054  0.3786  0.6822  0.2996
   93MOL   H16420588   2.211   4.315   1.247  0.9222  2.8161  0.6849
   93MOL   H16520589   2.538   4.394   0.967  0.5867 -0.4063  1.3241
   93MOL   H16620590   2.434   4.271   0.802  1.2949 -1.5525  1.3426
   93MOL   C16720591   1.969   4.288   0.532  0.5637  0.1069 -0.4269
   93MOL   C16820592   2.068   4.223   0.613  0.0408 -0.7754 -0.5927
   93MOL   C16920593   2.077   4.247   0.757  0.0402  0.5507 -0.4973
   93MOL   C17020594   1.989   4.343   0.810  0.3513 -0.3230  0.5195
   93MOL   C17120595   1.902   4.406   0.723  0.3856 -0.3870 -0.1755
   93MOL   C17220596   1.885   4.379   0.592  0.1892  0.4329  0.0942
   93MOL   O17320597   1.792   4.448   0.520  0.2212 -0.1734  0.5314
   93MOL   H17420598   1.959   4.266   0.426 -1.8377 -1.6335  0.1305
   93MOL   H17520599   2.143   4.166   0.561  1.0359  0.7890 -0.8829
   93MOL   H17620600   1.995   4.372   0.914 -0.1853 -0.8670  0.7043
   93MOL   H17720601   1.848   4.488   0.768  1.6202  1.7795 -2.5131
   93MOL   C17820602   1.692   4.323   0.190 -0.4046  0.4483 -0.9277
   93MOL   C17920603   1.767   4.386   0.291 -0.5020  1.0933 -0.2145
   93MOL   C18020604   1.726   4.376   0.425  0.0964  1.0920 -0.2530
   93MOL   C18120605   1.611   4.302   0.458  0.1920  0.6010  0.0101
   93MOL   C18220606   1.536   4.239   0.362  0.2237  0.2748  0.5999
   93MOL   C18320607   1.572   4.250   0.224  0.3487 -0.3205  0.0198
   93MOL   O18420608   1.495   4.183   0.134  0.1070 -0.0988  0.0647
   93MOL   H18520609   1.730   4.325   0.089  1.5821  0.3270 -0.2078
   93MOL   H18620610   1.863   4.431   0.272  0.3881 -1.1049 -1.1513
   93MOL   H18720611   1.577   4.302   0.561  0.6610  2.1201  0.1713
   93MOL   H18820612   1.451   4.176   0.386 -0.0803 -0.3638 -2.0830
   93MOL   C18920613   1.212   4.369   8.238 -0.3650  0.0912 -0.4324
   93MOL   C19020614   1.288   4.310   0.088  0.3036  0.3736  0.8347
   93MOL   C19120615   1.417   4.253   0.047 -0.3463  0.1153 -0.3210
   93MOL   C19220616   1.459   4.260   8.170 -0.5418  0.7301  0.7147
   93MOL   C19320617   1.376   4.304   8.064 -0.4647  0.4413 -0.3401
   93MOL   C19420618   1.251   4.362   8.102 -0.0053 -0.2333 -0.3651
   93MOL   O19520619   1.168   4.422   8.009  0.0727  0.0774  0.1229
   93MOL   H19620620   1.117   4.415   0.007  0.6562  0.5852  3.0911
   93MOL   H19720621   1.252   4.308   0.190 -0.7154  1.6874  0.5271
   93MOL   H19820622   1.561   4.230   8.149 -0.6745 -2.4227  4.2407
   93MOL   H19920623   1.407   4.304   7.961  0.8416 -0.0767  0.0333
   93MOL   C20020624   1.088   4.219   7.704  0.4228 -0.2958 -0.2564
   93MOL   C20120625   1.153   4.302   7.798  1.0626  0.1310 -0.6481
   93MOL   C20220626   1.100   4.332   7.925 -0.1088 -0.2542  0.0719
   93MOL   C20320627   0.982   4.266   7.967 -0.6094  1.0705  0.5531
   93MOL   C20420628   0.916   4.180   7.875 -0.5098  0.3255  0.1739
   93MOL   C20520629   0.966   4.161   7.743 -0.0573 -0.4512 -0.0792
   93MOL   O20620630   0.894   4.084   7.646 -0.3967 -0.5218  0.0926
   93MOL   H20720631   1.133   4.206   7.607  2.0841 -0.8092  0.5532
   93MOL   H20820632   1.247   4.352   7.779 -0.1874  2.3345 -1.1967
   93MOL   H20920633   0.939   4.281   8.065 -2.7306 -1.0129  0.0108
   93MOL   H21020634   0.817   4.143   7.897 -0.8182 -0.5578 -2.4647
   93MOL   C21120635   0.997   3.737   7.717 -0.0887 -0.0394  0.4372
   93MOL   C21220636   1.000   3.875   7.709 -0.2730 -0.1004  0.4516
   93MOL   C21320637   0.890   3.947   7.654 -0.3073  0.4292 -1.1284
   93MOL   C21420638   0.779   3.874   7.614 -0.1650 -0.7140 -0.2329
   93MOL   C21520639   0.772   3.735   7.621 -0.3969  0.1738  0.1673
   93MOL   C21620640   0.887   3.664   7.666 -0.0529  0.2873 -0.9491
   93MOL   O21720641   0.897   3.524   7.663 -0.2784  0.0294 -0.0540
   93MOL   H21820642   1.090   3.697   7.754  0.9058  1.3229 -0.5799
   93MOL   H21920643   1.086   3.931   7.744 -0.9495  0.7739  0.7301
   93MOL   H22020644   0.695   3.926   7.572 -0.1026  0.0745  0.6135
   93MOL   H22120645   0.689   3.677   7.583  1.0300 -2.2195  0.6132
   93MOL   H22220646   0.811   3.498   7.635  0.0931 -1.7526  0.3962
   94MOL     C120647   0.105   7.456   3.454  0.2572  0.7883  0.0033
   94MOL     C220648   0.055   7.377   3.554 -0.3242  0.0662 -0.0394
   94MOL     C320649   8.216   7.276   3.519 -0.5351  0.0646  0.8673
   94MOL     C420650   8.190   7.240   3.387  0.2693 -0.3745  0.2360
   94MOL     C520651   0.000   7.311   3.282 -0.0789 -0.3457  0.8860
   94MOL     C620652   0.086   7.415   3.316 -0.0583  0.1131 -0.1211
   94MOL     O720653   0.157   7.485   3.225 -0.3599  0.2229 -0.0819
   94MOL     H820654   0.168   7.541   3.474 -1.0567  1.2063  2.5667
   94MOL     H920655   0.079   7.396   3.658 -1.2805  0.6070  0.0880
   94MOL    H1020656   8.125   7.154   3.376 -0.5275  0.2520  0.0031
   94MOL    H1120657   8.241   7.281   3.179 -0.1172 -0.1926  0.8472
   94MOL    H1220658   8.180   7.219   3.604 -0.7884 -2.1618 -0.7007
   94MOL    C1320659   0.071   7.565   2.882 -0.2414 -1.0934  0.2600
   94MOL    C1420660   0.126   7.505   2.995 -0.3158  0.0439  0.2628
   94MOL    C1520661   0.092   7.549   3.123 -0.6470  0.4490 -0.4337
   94MOL    C1620662   8.250   7.647   3.146  0.3248 -0.4512 -0.4424
   94MOL    C1720663   8.184   7.699   3.027  0.5060 -0.5484  0.1175
   94MOL    C1820664   8.224   7.661   2.895 -0.2073  0.0390 -0.2193
   94MOL    O1920665   8.183   7.733   2.785 -0.0526  0.0520  0.1867
   94MOL    H2020666   0.098   7.532   2.783 -0.2492  1.4221 -0.6253
   94MOL    H2120667   0.212   7.441   2.987  1.5529  2.4555  0.3050
   94MOL    H2220668   8.234   7.684   3.246 -1.1406 -0.8983 -0.4878
   94MOL    H2320669   8.104   7.771   3.025  0.4798 -0.5799  0.0964
   94MOL    C2420670   7.815   7.702   2.744  0.2845  0.2560  0.3350
   94MOL    C2520671   7.946   7.665   2.776 -0.5732  0.4005 -0.1971
   94MOL    C2620672   8.050   7.761   2.769 -0.0523  0.0364 -0.3307
   94MOL    C2720673   8.018   7.897   2.758  0.5034  0.5083 -0.8491
   94MOL    C2820674   7.887   7.936   2.729 -0.0178  0.2151  0.5767
   94MOL    C2920675   7.788   7.837   2.720  0.4361 -0.3617  0.3959
   94MOL    O3020676   7.662   7.871   2.676 -0.1073 -0.2330  0.2271
   94MOL    H3120677   7.732   7.633   2.746 -0.1722  0.8380  1.9425
   94MOL    H3220678   7.982   7.563   2.780  1.6170  0.9223 -3.6486
   94MOL    H3320679   8.094   7.973   2.770 -0.0208  0.9411 -0.2889
   94MOL    H3420680   7.865   8.040   2.713  0.9336  0.1227 -1.5898
   94MOL    C3520681   7.534   8.105   2.922  0.4578  0.0551 -0.1278
   94MOL    C3620682   7.578   7.985   2.868  0.9728 -0.3888  0.3371
   94MOL    C3720683   7.600   7.980   2.729  0.5835  0.0285  0.0046
   94MOL    C3820684   7.578   8.088   2.644 -0.1525  0.2539  0.1482
   94MOL    C3920685   7.529   8.206   2.696 -0.6712  0.3060  0.3238
   94MOL    C4020686   7.505   8.221   2.839  0.4559 -0.1217  0.9272
   94MOL    O4120687   7.478   0.083   2.900  0.3493  0.2662  0.3354
   94MOL    H4220688   7.516   8.117   3.028  0.4521  1.6839 -0.2966
   94MOL    H4320689   7.591   7.901   2.935  0.4987  0.1733  1.1414
   94MOL    H4420690   7.595   8.074   2.538 -0.0437  1.2245  0.0331
   94MOL    H4520691   7.509   0.035   2.630  0.7193 -0.1444 -0.6845
   94MOL    C4620692   7.826   0.229   2.950  0.0413 -0.4030  0.0579
   94MOL    C4720693   7.720   0.142   2.917 -0.8134  0.3224 -0.3527
   94MOL    C4820694   7.577   0.170   2.937 -0.7982  0.3084  0.4555
   94MOL    C4920695   7.554   0.298   2.989 -0.3250 -0.2740  0.5629
   94MOL    C5020696   7.655   0.388   3.023  0.2894 -0.5778  0.4552
   94MOL    C5120697   7.788   0.358   3.005  0.8136  0.2263 -0.2207
   94MOL    O5220698   7.884   0.440   3.046 -0.1304 -0.3111 -0.2740
   94MOL    H5320699   7.927   0.196   2.930  0.1413  0.5445 -1.0741
   94MOL    H5420700   7.748   0.050   2.868  1.2244  0.1603  1.0630
   94MOL    H5520701   7.450   0.328   2.996 -0.3117 -0.7843  3.5671
   94MOL    H5620702   7.628   0.480   3.072  1.5556  1.3608 -2.3479
   94MOL    C5720703   8.150   0.610   2.854  0.1910 -0.0488  0.3171
   94MOL    C5820704   8.086   0.519   2.946 -0.0279 -1.1038  1.1846
   94MOL    C5920705   7.944   0.521   2.956  0.0220 -0.4303  0.2332
   94MOL    C6020706   7.875   0.606   2.869 -0.0629 -0.9109  0.2820
   94MOL    C6120707   7.931   0.688   2.775  0.1680 -0.8038  0.6778
   94MOL    C6220708   8.072   0.695   2.766  1.0154  0.3660  0.3851
   94MOL    O6320709   8.127   0.778   2.673  0.1482 -0.3794  0.1729
   94MOL    H6420710   0.003   0.599   2.840 -0.1326 -2.5492 -0.5402
   94MOL    H6520711   8.144   0.453   3.008 -0.6128 -1.2163  1.6202
   94MOL    H6620712   7.768   0.594   2.874 -0.3298  0.1029 -2.2111
   94MOL    H6720713   7.862   0.753   2.724 -0.5525 -2.8654 -1.0984
   94MOL    C6820714   0.136   0.607   2.460 -0.7606 -0.8700  0.4581
   94MOL    C6920715   0.014   0.629   2.527 -0.0320  0.0011  0.3042
   94MOL    C7020716   8.252   0.739   2.616 -0.1460  0.0243 -0.5275
   94MOL    C7120717   0.109   0.822   2.638 -0.0443 -0.0328 -0.1548
   94MOL    C7220718   0.230   0.796   2.572  0.8865 -0.4324  0.5779
   94MOL    C7320719   0.240   0.690   2.484  0.0479  0.2081 -0.1800
   94MOL    O7420720   0.351   0.660   2.415 -0.2552  0.2817 -0.0176
   94MOL    H7520721   0.143   0.535   2.379 -1.3736  1.2808 -1.5691
   94MOL    H7620722   8.180   0.567   2.511  0.8434 -2.1104  3.2948
   94MOL    H7720723   0.102   0.907   2.705  2.0725  0.6770 -0.8151
   94MOL    H7820724   0.315   0.858   2.593  1.9267 -1.6642  0.0358
   94MOL    C7920725   0.474   0.982   2.279  0.6901  0.1146 -0.4077
   94MOL    C8020726   0.387   0.876   2.314  0.2127 -0.7263  0.3991
   94MOL    C8120727   0.436   0.765   2.385 -0.5612  0.8852  0.0178
   94MOL    C8220728   0.569   0.754   2.424 -0.0860 -0.1353  0.4571
   94MOL    C8320729   0.652   0.862   2.388 -0.4534  1.0085 -0.3145
   94MOL    C8420730   0.607   0.981   2.320 -0.1459 -0.4219  0.3843
   94MOL    O8520731   0.685   1.089   2.289  0.1616 -0.5901  0.1572
   94MOL    H8620732   0.441   1.069   2.225 -1.0095 -0.3050 -0.0645
   94MOL    H8720733   0.285   0.884   2.280  0.5923 -0.9869 -0.8327
   94MOL    H8820734   0.613   0.667   2.470  0.3295 -0.5772 -0.7672
   94MOL    H8920735   0.755   0.839   2.414  0.4647  1.7369 -3.1031
   94MOL    C9020736   0.703   1.278   2.611 -0.3279  0.3497  0.3931
   94MOL    C9120737   0.692   1.171   2.522 -0.4947  0.4928 -0.2294
   94MOL    C9220738   0.683   1.194   2.384  0.2142 -0.0251  0.3007
   94MOL    C9320739   0.661   1.324   2.337  0.4126 -0.4180  0.6952
   94MOL    C9420740   0.647   1.437   2.428  0.5436 -0.0009 -0.6043
   94MOL    C9520741   0.674   1.412   2.568  0.8662 -0.0418 -0.6231
   94MOL    O9620742   0.682   1.524   2.655 -0.2871 -0.0889  0.2583
   94MOL    H9720743   0.723   1.265   2.716 -3.5865  1.0682  1.1647
   94MOL    H9820744   0.727   1.078   2.564 -1.5218  1.1213  2.1253
   94MOL    H9920745   0.649   1.344   2.231  2.3586 -1.2279  0.3040
   94MOL   H10020746   0.619   1.533   2.387 -1.3297 -0.1979  0.1403
   94MOL   C10120747   0.892   1.830   2.708 -0.0182  0.2740  0.6334
   94MOL   C10220748   0.777   1.746   2.695 -0.1891  0.0097  0.6192
   94MOL   C10320749   0.796   1.615   2.649 -0.0728  0.5903 -0.9687
   94MOL   C10420750   0.923   1.568   2.604 -0.7905  0.4692 -0.3507
   94MOL   C10520751   1.032   1.651   2.606 -0.0139 -0.1596 -0.3199
   94MOL   C10620752   1.019   1.785   2.655 -0.1904 -0.3927  0.1921
   94MOL   O10720753   1.133   1.862   2.661  0.1936 -0.2936 -0.0978
   94MOL   H10820754   0.879   1.926   2.754 -0.1696  0.9780 -0.8710
   94MOL   H10920755   0.679   1.781   2.724 -0.0551 -0.2697  1.4155
   94MOL   H11020756   0.932   1.469   2.561  2.4026  0.9341 -0.8413
   94MOL   H11120757   1.127   1.618   2.568 -0.7196  1.3436 -3.5578
   94MOL   C11220758   1.144   2.042   2.339 -0.5390 -0.9040  0.1128
   94MOL   C11320759   1.095   1.990   2.458 -0.0078  0.0781  0.2497
   94MOL   C11420760   1.180   1.911   2.539 -0.3037  0.0955 -0.6503
   94MOL   C11520761   1.311   1.890   2.502 -0.5665  0.2308  0.0580
   94MOL   C11620762   1.369   1.955   2.390  0.1933 -0.7664 -0.4227
   94MOL   C11720763   1.286   2.037   2.310 -0.3413 -0.4246  0.2558
   94MOL   O11820764   1.352   2.093   2.202  0.1359 -0.7889  0.2855
   94MOL   H11920765   1.079   2.093   2.269 -1.1076 -2.6999 -0.6955
   94MOL   H12020766   0.994   2.023   2.478 -0.1596 -1.6329  2.5296
   94MOL   H12120767   1.374   1.823   2.558  0.2362  2.0014  1.3214
   94MOL   H12220768   1.474   1.949   2.365  1.3333 -1.7947  4.1898
   94MOL   C12320769   1.238   2.383   2.003  0.4541  1.0753  0.0915
   94MOL   C12420770   1.271   2.252   2.042 -0.0544  0.4606 -0.4558
   94MOL   C12520771   1.327   2.224   2.167  0.1069  0.4897 -1.1630
   94MOL   C12620772   1.352   2.329   2.258 -0.0761  0.5324  0.7693
   94MOL   C12720773   1.319   2.462   2.218 -0.1396  0.4121  0.1192
   94MOL   C12820774   1.266   2.489   2.094 -0.7836 -0.1974 -0.4602
   94MOL   O12920775   1.250   2.619   2.057 -0.0829 -0.3924 -0.3112
   94MOL   H13020776   1.203   2.402   1.903 -0.7073  3.2691  0.8718
   94MOL   H13120777   1.264   2.174   1.968  0.6535  0.3486 -0.4028
   94MOL   H13220778   1.394   2.317   2.356 -0.6826  1.2596  1.1221
   94MOL   H13320779   1.339   2.541   2.289  2.3183  3.0343 -3.3388
   94MOL   C13420780   1.560   2.697   1.879  0.4261  0.2416 -0.8258
   94MOL   C13520781   1.467   2.636   1.963 -0.7987 -0.1379 -0.2959
   94MOL   C13620782   1.331   2.670   1.964 -0.3496  0.0373 -0.5450
   94MOL   C13720783   1.284   2.777   1.881 -0.1911  0.0803 -0.3691
   94MOL   C13820784   1.380   2.826   1.786 -0.7874 -0.2326  0.2551
   94MOL   C13920785   1.519   2.796   1.791  0.9668 -0.0315  0.5112
   94MOL   O14020786   1.612   2.866   1.723 -0.0792 -0.8073 -0.5088
   94MOL   H14120787   1.664   2.667   1.886  0.2446 -0.4096 -0.9594
   94MOL   H14220788   1.503   2.571   2.041  1.6950  0.3001 -1.0046
   94MOL   H14320789   1.193   2.833   1.899 -1.1274 -0.4448 -3.2767
   94MOL   H14420790   1.341   2.913   1.735 -1.5650 -0.0018  1.2228
   94MOL   C14520791   1.574   3.199   1.571  0.1476  0.0926 -0.0986
   94MOL   C14620792   1.619   3.099   1.656 -0.0971 -0.3080  0.5771
   94MOL   C14720793   1.581   2.964   1.631  0.0967  0.1748 -0.8395
   94MOL   C14820794   1.509   2.927   1.516 -0.1033 -0.3244  0.5072
   94MOL   C14920795   1.478   3.031   1.426  0.0283  0.5406  0.0849
   94MOL   C15020796   1.504   3.168   1.451  0.0963  0.1725  0.7035
   94MOL   O15120797   1.468   3.265   1.358  0.0939 -0.3979 -0.2033
   94MOL   H15220798   1.585   3.306   1.585 -3.1595  0.1430  2.6256
   94MOL   H15320799   1.669   3.124   1.748 -0.4943 -0.0780  0.7343
   94MOL   H15420800   1.481   2.824   1.501  1.2819 -0.4444 -1.3138
   94MOL   H15520801   1.433   3.005   1.331  0.4957  1.4822 -0.4056
   94MOL   C15620802   1.713   3.336   1.103  0.1772 -1.2488 -0.3983
   94MOL   C15720803   1.651   3.330   1.230  0.1728  0.1347 -0.0704
   94MOL   C15820804   1.534   3.258   1.245 -0.3236 -0.1238  0.1992
   94MOL   C15920805   1.481   3.177   1.141  0.8812  0.3684 -0.4814
   94MOL   C16020806   1.555   3.163   1.025  0.1790 -0.8235  0.2807
   94MOL   C16120807   1.666   3.250   1.002 -0.2135 -0.6144  0.7528
   94MOL   O16220808   1.740   3.231   0.891  0.3575 -0.5367  0.0856
   94MOL   H16320809   1.803   3.396   1.103  0.5964 -1.8021  2.6484
   94MOL   H16420810   1.682   3.400   1.307 -0.7837 -0.5947  1.0046
   94MOL   H16520811   1.386   3.126   1.139  1.6401 -1.1050  0.2461
   94MOL   H16620812   1.519   3.103   0.943 -2.3494  1.0638 -0.0390
   94MOL   C16720813   1.840   3.526   0.706  0.4870 -0.2092  0.8339
   94MOL   C16820814   1.754   3.425   0.761 -0.4799 -0.7268 -0.5671
   94MOL   C16920815   1.816   3.330   0.845 -0.5992  0.1400 -0.0706
   94MOL   C17020816   1.954   3.329   0.865  0.2735 -0.2196 -0.6629
   94MOL   C17120817   2.030   3.430   0.808 -0.0953  0.1624 -0.2533
   94MOL   C17220818   1.976   3.537   0.739 -0.3602 -0.6171 -0.5097
   94MOL   O17320819   2.058   3.641   0.691 -0.8142  0.1398  0.3949
   94MOL   H17420820   1.803   3.607   0.645 -1.2089  0.5232  2.7986
   94MOL   H17520821   1.651   3.420   0.729 -0.3893 -0.2208 -0.9569
   94MOL   H17620822   1.999   3.253   0.926  0.8598  0.2456 -0.5003
   94MOL   H17720823   2.132   3.426   0.844 -0.2904 -0.1319  0.2621
   94MOL   C17820824   2.339   3.759   0.897  0.5355 -0.1624  0.1799
   94MOL   C17920825   2.261   3.676   0.817  0.0619  0.1661  0.8181
   94MOL   C18020826   2.124   3.711   0.789  0.1319 -0.7902  0.8432
   94MOL   C18120827   2.058   3.814   0.856  0.5696 -0.3057  0.0333
   94MOL   C18220828   2.140   3.898   0.942  0.1825 -0.0474 -0.0220
   94MOL   C18320829   2.276   3.871   0.961 -0.3220  0.3690  0.2735
   94MOL   O18420830   2.350   3.934   1.055 -0.0640 -0.5589  0.0888
   94MOL   H18520831   2.438   3.725   0.924  0.6934 -0.2396 -0.5020
   94MOL   H18620832   2.308   3.594   0.765 -0.0025  1.7328 -1.8365
   94MOL   H18720833   1.953   3.839   0.853  0.0147 -2.5616 -0.6855
   94MOL   H18820834   2.109   3.988   0.993 -0.1080  2.2194 -3.9424
   94MOL   C18920835   2.556   3.836   1.347  0.5908 -0.2392  0.0418
   94MOL   C19020836   2.515   3.901   1.224 -0.3308 -0.6456  0.1299
   94MOL   C19120837   2.395   3.869   1.164 -0.9229 -0.0723 -0.3333
   94MOL   C19220838   2.312   3.770   1.235  0.4616  0.1043  0.3697
   94MOL   C19320839   2.355   3.716   1.356 -0.1994  0.6115 -0.0909
   94MOL   C19420840   2.480   3.742   1.410 -0.4853 -0.1241 -0.6603
   94MOL   O19520841   2.524   3.685   1.527 -0.2505  0.1850 -0.4108
   94MOL   H19620842   2.649   3.862   1.395 -0.4507  1.0338  1.4391
   94MOL   H19720843   2.571   3.988   1.192 -1.1608  0.5663  1.9449
   94MOL   H19820844   2.211   3.747   1.204  0.2801 -1.0802  1.7901
   94MOL   H19920845   2.283   3.653   1.406  0.6829  1.5525  2.4212
   94MOL   C20020846   2.868   3.555   1.486 -0.8885  0.6831  0.1004
   94MOL   C20120847   2.763   3.639   1.508 -0.3785  0.0728 -0.7140
   94MOL   C20220848   2.630   3.595   1.514 -0.0022 -0.2186  0.0766
   94MOL   C20320849   2.604   3.461   1.496 -0.1901 -0.4660 -0.4061
   94MOL   C20420850   2.715   3.372   1.472  0.2122 -0.6033  0.0761
   94MOL   C20520851   2.845   3.417   1.461  0.1829 -0.6548  0.5669
   94MOL   O20620852   2.941   3.335   1.408  0.1471 -0.2361 -0.0179
   94MOL   H20720853   2.967   3.595   1.472 -1.5551  2.9581  1.5796
   94MOL   H20820854   2.794   3.741   1.522  0.1880 -0.2994  0.8615
   94MOL   H20920855   2.500   3.433   1.496 -0.8069  1.6908  0.7569
   94MOL   H21020856   2.692   3.273   1.434 -1.9610  0.6168 -2.0066
   94MOL   C21120857   3.302   3.369   1.357  0.5922 -0.1499  0.6868
   94MOL   C21220858   3.181   3.352   1.432 -0.8017 -0.5762 -0.7491
   94MOL   C21320859   3.063   3.378   1.363  0.6707 -0.0466 -0.4139
   94MOL   C21420860   3.064   3.437   1.232  0.8408  0.3630  0.3748
   94MOL   C21520861   3.188   3.479   1.174  0.1118  0.3638 -0.2257
   94MOL   C21620862   3.307   3.432   1.226 -0.9033 -0.0893 -0.0412
   94MOL   O21720863   3.429   3.455   1.165  0.6959  0.1460 -0.1696
   94MOL   H21820864   3.398   3.340   1.398  0.5317 -2.9403 -0.9768
   94MOL   H21920865   3.191   3.301   1.527 -3.1518 -0.8570 -0.6005
   94MOL   H22020866   2.970   3.448   1.179  0.9999  2.2593  0.4615
   94MOL   H22120867   3.187   3.532   1.080 -1.7358 -0.4235 -0.6728
   94MOL   H22220868   3.510   3.447   1.212 -0.1620 -2.7559  0.9055
   95MOL     C120869   1.508   6.070   1.476 -0.2997 -0.3677  0.2313
   95MOL     C220870   1.584   6.175   1.531 -0.6161  0.2543 -0.0552
   95MOL     C320871   1.582   6.193   1.671  0.3866  0.0548 -0.7332
   95MOL     C420872   1.522   6.096   1.754  0.4239 -1.0380 -0.0479
   95MOL     C520873   1.456   5.992   1.692 -0.3129 -0.7202  0.1416
   95MOL     C620874   1.442   5.975   1.551 -0.3890 -0.3832 -0.6355
   95MOL     O720875   1.359   5.885   1.489  0.0273 -0.2494 -0.0441
   95MOL     H820876   1.484   6.059   1.371  0.7911 -1.5799  0.0948
   95MOL     H920877   1.641   6.245   1.472  1.3525 -0.3310  1.0953
   95MOL    H1020878   1.530   6.098   1.861 -1.0884 -0.8662  0.0703
   95MOL    H1120879   1.407   5.918   1.753  0.7119 -0.0275  1.8170
   95MOL    H1220880   1.638   6.275   1.714 -0.3175 -0.8093  1.9747
   95MOL    C1320881   1.014   6.003   1.491  0.2471 -0.8074 -0.1062
   95MOL    C1420882   1.152   5.999   1.469  0.1060  0.1013 -0.4046
   95MOL    C1520883   1.229   5.890   1.521 -0.2163  0.1759 -0.4263
   95MOL    C1620884   1.175   5.804   1.618  0.2691  0.3607 -0.3571
   95MOL    C1720885   1.040   5.826   1.655  0.2334  0.6622 -0.0737
   95MOL    C1820886   0.956   5.923   1.589 -0.3397 -0.2949 -0.3956
   95MOL    O1920887   0.823   5.932   1.628  0.4297 -0.3440  0.3851
   95MOL    H2020888   0.962   6.089   1.451  1.1237  0.1120  0.6736
   95MOL    H2120889   1.202   6.072   1.407  0.3225 -1.4189 -2.0595
   95MOL    H2220890   1.237   5.738   1.676  1.0833  0.8223 -0.6916
   95MOL    H2320891   0.999   5.766   1.735  1.0220  2.0666  1.4111
   95MOL    C2420892   0.658   5.665   1.431  0.1794  0.8337  0.4970
   95MOL    C2520893   0.753   5.734   1.506  0.7875  0.2698  0.6483
   95MOL    C2620894   0.723   5.867   1.552 -0.3923  0.4732  0.0563
   95MOL    C2720895   0.601   5.928   1.511  0.2180  0.4130 -0.3114
   95MOL    C2820896   0.510   5.856   1.433  0.0322  0.0580 -0.3560
   95MOL    C2920897   0.534   5.730   1.388 -0.9011 -0.0614 -0.0770
   95MOL    O3020898   0.464   5.668   1.293 -0.1456  0.5390  0.3019
   95MOL    H3120899   0.689   5.570   1.391 -1.4614 -0.5953  2.5200
   95MOL    H3220900   0.843   5.684   1.538  0.9204 -0.1591 -0.3950
   95MOL    H3320901   0.576   6.031   1.535 -1.3051 -0.4371  2.0059
   95MOL    H3420902   0.420   5.911   1.408  0.0758 -0.8094 -2.4607
   95MOL    C3520903   0.103   5.715   1.212  0.4047  0.7600  0.5338
   95MOL    C3620904   0.250   5.712   1.199  0.2095  0.5262 -0.3851
   95MOL    C3720905   0.328   5.662   1.303 -0.1939 -0.7571 -0.4095
   95MOL    C3820906   0.261   5.611   1.416  0.5768  0.0702  0.2521
   95MOL    C3920907   0.118   5.603   1.431 -0.5972  0.3324  0.3438
   95MOL    C4020908   0.042   5.665   1.329 -0.0386 -0.2431  0.7634
   95MOL    O4120909   8.158   5.672   1.349 -0.7190 -0.0342  0.0129
   95MOL    H4220910   0.038   5.743   1.130  0.6935 -1.0291 -0.3243
   95MOL    H4320911   0.300   5.755   1.114 -2.6896  1.4403 -1.6707
   95MOL    H4420912   0.315   5.563   1.497 -0.0488 -3.4501 -1.3464
   95MOL    H4520913   0.065   5.565   1.517 -0.0456 -1.9208 -0.2974
   95MOL    C4620914   8.023   5.973   1.519  0.0004  0.7490  0.0636
   95MOL    C4720915   8.093   5.850   1.495 -0.2159  0.0695 -0.4050
   95MOL    C4820916   8.115   5.795   1.369  0.2607 -0.4288 -0.2943
   95MOL    C4920917   8.075   5.876   1.259 -0.4815 -0.2252 -0.6153
   95MOL    C5020918   8.016   5.999   1.277 -1.0624  0.0173 -0.0581
   95MOL    C5120919   7.985   6.044   1.407 -0.3936 -0.0927  0.7532
   95MOL    O5220920   7.920   6.157   1.433 -0.5211  0.6667 -0.5487
   95MOL    H5320921   7.997   6.018   1.614  0.4015  0.2468  0.4081
   95MOL    H5420922   8.125   5.786   1.576  0.8034  0.1108 -0.7685
   95MOL    H5520923   8.085   5.841   1.158 -0.9338 -0.7138 -0.4908
   95MOL    H5620924   7.971   6.056   1.197  0.7621 -0.3873 -1.4170
   95MOL    C5720925   7.987   6.473   1.268 -0.0077 -0.1237 -0.6754
   95MOL    C5820926   7.923   6.353   1.299  0.2004  0.4058 -0.2707
   95MOL    C5920927   7.973   6.277   1.403 -0.6250 -0.5350  0.6546
   95MOL    C6020928   8.085   6.321   1.475  0.8202  0.0075 -0.0564
   95MOL    C6120929   8.159   6.440   1.452  0.7473 -0.2097  0.0929
   95MOL    C6220930   8.106   6.515   1.342  0.6375 -0.3421 -0.7328
   95MOL    O6320931   8.177   6.621   1.310  0.5013 -0.2338 -0.0782
   95MOL    H6420932   7.953   6.547   1.197  0.8266  1.7742  0.8193
   95MOL    H6520933   7.843   6.327   1.232 -0.4445  2.0632 -0.1673
   95MOL    H6620934   8.122   6.259   1.554  1.4796  0.3727 -0.0741
   95MOL    H6720935   8.236   6.477   1.518  0.4810  3.2706 -1.4215
   95MOL    C6820936   8.043   6.883   1.530 -0.2808 -0.4109 -0.0255
   95MOL    C6920937   8.070   6.759   1.475  0.5498 -0.0078 -0.2589
   95MOL    C7020938   8.132   6.741   1.351  0.5819 -0.2179 -0.5652
   95MOL    C7120939   8.159   6.856   1.268  0.1816 -0.2952 -0.4215
   95MOL    C7220940   8.133   6.983   1.322 -0.3056 -0.2572  0.4543
   95MOL    C7320941   8.083   6.995   1.454  0.2265  0.2494 -0.0665
   95MOL    O7420942   8.061   7.113   1.514 -0.3246  0.2196  0.0456
   95MOL    H7520943   7.991   6.890   1.625 -1.1110  0.8160 -0.5414
   95MOL    H7620944   8.034   6.674   1.532  0.8821 -1.0630 -1.6005
   95MOL    H7720945   8.200   6.837   1.169 -0.1928  0.7228 -0.7749
   95MOL    H7820946   8.161   7.067   1.260 -2.2805 -0.7591 -1.1643
   95MOL    C7920947   0.158   7.238   1.570  0.5169  0.3882 -0.0038
   95MOL    C8020948   0.045   7.149   1.564 -0.1907  0.1285  0.3204
   95MOL    C8120949   8.170   7.195   1.523 -0.4323  0.1694  0.0528
   95MOL    C8220950   8.154   7.328   1.496 -0.0663 -0.7652 -0.3780
   95MOL    C8320951   0.017   7.412   1.499 -0.0659  0.3779  0.4473
   95MOL    C8420952   0.146   7.373   1.534 -0.6878 -0.4670 -0.0468
   95MOL    O8520953   0.253   7.458   1.535 -0.0130 -1.0762  0.4136
   95MOL    H8620954   0.256   7.201   1.598  0.6611  0.5861 -0.2406
   95MOL    H8720955   0.051   7.045   1.595  2.2623 -0.5392 -2.1675
   95MOL    H8820956   8.059   7.364   1.460 -0.1832 -0.0646  0.5951
   95MOL    H8920957   0.000   7.518   1.487  0.4682  0.4535  0.3565
   95MOL    C9020958   0.486   7.625   1.298 -0.3082  0.2012  0.3134
   95MOL    C9120959   0.415   7.590   1.417  0.4753 -0.3769  0.7438
   95MOL    C9220960   0.314   7.489   1.418 -0.1315 -0.1069  0.2188
   95MOL    C9320961   0.297   7.424   1.296 -0.1630 -0.2114  0.1783
   95MOL    C9420962   0.362   7.463   1.175 -0.5206  0.3170 -0.2796
   95MOL    C9520963   0.457   7.566   1.171  0.8540  0.4166  0.2112
   95MOL    O9620964   0.518   7.608   1.060 -0.2047  0.4297  0.1522
   95MOL    H9720965   0.560   7.703   1.302 -0.8944  0.7440  0.5785
   95MOL    H9820966   0.433   7.647   1.507 -0.0705  2.0078 -0.5897
   95MOL    H9920967   0.225   7.343   1.291 -0.3867  0.0578 -1.0005
   95MOL   H10020968   0.331   7.416   1.082  3.2506 -0.4564 -1.2196
   95MOL   C10120969   0.493   7.365   0.787  0.2049 -0.2933 -0.5446
   95MOL   C10220970   0.542   7.427   0.907  0.1657 -0.4437  0.2144
   95MOL   C10320971   0.499   7.557   0.934  0.7919  0.3399 -0.6546
   95MOL   C10420972   0.418   7.627   0.847  0.2296 -0.1071  0.0361
   95MOL   C10520973   0.376   7.569   0.724  0.7985  0.5752 -0.7400
   95MOL   C10620974   0.418   7.438   0.694 -0.5210  0.4233  0.3618
   95MOL   O10720975   0.367   7.370   0.587  0.2500  1.0411 -0.8611
   95MOL   H10820976   0.521   7.263   0.769 -1.7652 -0.9923  0.2747
   95MOL   H10920977   0.608   7.375   0.974  0.7789 -0.5616 -0.4668
   95MOL   H11020978   0.383   7.727   0.872 -0.0729  0.0415 -0.9833
   95MOL   H11120979   0.316   7.619   0.650 -0.4592 -1.0949 -0.8934
   95MOL   C11220980   0.050   7.449   0.417  0.2778 -0.1302  0.1408
   95MOL   C11320981   0.186   7.443   0.452  0.4597 -0.5706  0.2179
   95MOL   C11420982   0.230   7.379   0.568 -0.3803  0.6027 -0.1779
   95MOL   C11520983   0.133   7.313   0.650 -0.1361  0.5262  0.4369
   95MOL   C11620984   8.250   7.300   0.604 -0.3620 -0.0058 -0.5900
   95MOL   C11720985   8.213   7.375   0.496  0.5547 -0.3345  0.2441
   95MOL   O11820986   8.081   7.365   0.452  0.1342  0.2023 -0.2006
   95MOL   H11920987   0.010   7.495   0.327 -1.1697 -0.3442  0.6609
   95MOL   H12020988   0.264   7.478   0.386 -0.8702 -1.4034 -1.8521
   95MOL   H12120989   0.165   7.266   0.742 -0.9285 -0.0381  0.4324
   95MOL   H12220990   8.177   7.243   0.659  0.8168  0.4654  1.5278
   95MOL   C12320991   7.831   7.432   0.716  0.5316 -0.6006  0.5126
   95MOL   C12420992   7.945   7.440   0.642 -0.3323  0.4054  0.1638
   95MOL   C12520993   7.973   7.349   0.535 -0.1918 -0.4304  0.3288
   95MOL   C12620994   7.879   7.255   0.497 -0.2421 -0.2782  0.1511
   95MOL   C12720995   7.760   7.245   0.574 -0.3875 -0.6521  0.6682
   95MOL   C12820996   7.735   7.333   0.679  0.0080  0.3851 -0.5360
   95MOL   O12920997   7.611   7.334   0.743 -0.2785  0.0274  0.2773
   95MOL   H13020998   7.810   7.500   0.797  0.4155 -1.4898  1.2397
   95MOL   H13120999   8.016   7.519   0.660  0.3301  0.0931 -1.0321
   95MOL   H13221000   7.890   7.198   0.406  1.3019  1.7056 -0.9553
   95MOL   H13321001   7.681   7.185   0.532 -0.2796  0.3310 -0.9753
   95MOL   C13421002   7.475   7.008   0.831 -0.8055  0.8052 -0.2582
   95MOL   C13521003   7.571   7.108   0.815  0.1984 -0.0424 -0.7653
   95MOL   C13621004   7.537   7.222   0.738 -0.0955 -0.5879 -0.4619
   95MOL   C13721005   7.421   7.228   0.661  1.0667 -0.0671 -0.0737
   95MOL   C13821006   7.330   7.115   0.662 -0.0158  0.0609 -0.2144
   95MOL   C13921007   7.357   7.009   0.755  0.3157  0.1060  0.0111
   95MOL   O14021008   7.265   6.909   0.770  0.5145 -1.0861  0.3396
   95MOL   H14121009   7.493   6.930   0.904  1.1413 -0.0069 -1.5700
   95MOL   H14221010   7.662   7.110   0.874  0.1421  0.1825 -0.6816
   95MOL   H14321011   7.408   7.322   0.610 -0.7977  0.3321  1.1094
   95MOL   H14421012   7.235   7.111   0.612 -2.0039  0.8623  3.3343
   95MOL   C14521013   6.984   6.782   0.957  0.5455  0.4608  1.0248
   95MOL   C14621014   7.098   6.786   0.878  0.2205 -0.7204  0.3778
   95MOL   C14721015   7.163   6.909   0.856  0.3691 -0.4111  0.0804
   95MOL   C14821016   7.123   7.021   0.932 -0.4275  0.3557  0.8103
   95MOL   C14921017   7.016   7.017   1.021 -0.0310 -0.1414 -0.1663
   95MOL   C15021018   6.939   6.897   1.020 -0.0712 -0.3724 -0.3710
   95MOL   O15121019   6.817   6.899   1.078 -0.0755 -0.1707 -0.1057
   95MOL   H15221020   6.930   6.689   0.960 -0.2159  0.8497 -0.3290
   95MOL   H15321021   7.132   6.698   0.827 -1.0971 -0.7921 -0.3998
   95MOL   H15421022   7.179   7.112   0.917 -0.8147  0.3235 -0.9338
   95MOL   H15521023   6.989   7.109   1.071 -2.0970  0.1835 -1.7999
   95MOL   C15621024   6.780   6.757   1.410  0.1568 -0.7272  0.0818
   95MOL   C15721025   6.815   6.836   1.306 -0.5382  0.3003 -0.1196
   95MOL   C15821026   6.787   6.811   1.172  0.3841  0.8238  0.7893
   95MOL   C15921027   6.715   6.689   1.142  0.1212 -0.1015  0.0033
   95MOL   C16021028   6.677   6.607   1.248  0.1575 -0.1790 -0.1679
   95MOL   C16121029   6.708   6.642   1.380  0.1821 -0.0466 -0.2368
   95MOL   O16221030   6.657   6.574   1.480 -0.9388  0.0189  0.1207
   95MOL   H16321031   6.808   6.786   1.510  0.0249  1.6378 -0.5467
   95MOL   H16421032   6.861   6.931   1.331  0.6965 -0.7163  1.5904
   95MOL   H16521033   6.672   6.664   1.046 -0.2948 -1.5265  0.5421
   95MOL   H16621034   6.626   6.514   1.227  1.1194 -1.3563  2.4210
   95MOL   C16721035   6.383   6.732   1.661  0.1270 -0.3996  0.6084
   95MOL   C16821036   6.515   6.693   1.621 -0.0531 -0.8466 -1.1473
   95MOL   C16921037   6.534   6.602   1.520 -0.2836  0.1719  0.3636
   95MOL   C17021038   6.419   6.548   1.455 -0.1623 -0.7795 -0.1308
   95MOL   C17121039   6.288   6.587   1.488  0.0159  0.3072  0.3069
   95MOL   C17221040   6.273   6.671   1.595 -0.2851 -0.5337  0.1822
   95MOL   O17321041   6.146   6.682   1.645  0.5512  0.0813  0.4633
   95MOL   H17421042   6.380   6.807   1.738 -2.5667  0.4265 -0.2486
   95MOL   H17521043   6.601   6.747   1.657 -0.4517 -0.4395 -0.7934
   95MOL   H17621044   6.441   6.472   1.381  2.0439 -0.4443  0.1512
   95MOL   H17721045   6.201   6.542   1.442  0.3123  0.9740 -0.9203
   95MOL   C17821046   6.027   7.009   1.764  0.4237  0.2866  0.5322
   95MOL   C17921047   6.075   6.915   1.674  0.0704 -0.1252 -0.4977
   95MOL   C18021048   6.106   6.788   1.726  0.8603  0.1952 -0.0296
   95MOL   C18121049   6.103   6.758   1.865 -0.4892  0.2190 -0.4373
   95MOL   C18221050   6.054   6.857   1.951  0.5068 -0.3028 -0.3674
   95MOL   C18321051   6.020   6.987   1.901 -0.3919 -0.2649 -0.2990
   95MOL   O18421052   5.953   7.072   1.982  0.4714  0.1365 -0.2177
   95MOL   H18521053   5.986   7.098   1.718 -3.3138 -1.1771  0.8516
   95MOL   H18621054   6.072   6.935   1.568 -1.2100  2.0801 -0.0682
   95MOL   H18721055   6.098   6.655   1.899 -1.2320  0.7762  1.2068
   95MOL   H18821056   6.054   6.836   2.057 -1.4306  0.5274 -0.1961
   95MOL   C18921057   5.926   7.080   2.355 -0.4381 -0.0527 -0.4340
   95MOL   C19021058   5.893   7.046   2.216 -0.3682  0.5056 -0.2405
   95MOL   C19121059   5.982   7.088   2.117 -0.4078  0.5078  0.4087
   95MOL   C19221060   6.095   7.160   2.154 -0.0195  0.0687 -0.1733
   95MOL   C19321061   6.123   7.194   2.287 -0.1791 -0.2329  0.7375
   95MOL   C19421062   6.032   7.160   2.385  0.0068 -0.1584  0.8232
   95MOL   O19521063   6.042   7.201   2.519  0.2128  0.2878 -0.3786
   95MOL   H19621064   5.853   7.054   2.430 -0.5586  2.2266  0.2717
   95MOL   H19721065   5.800   6.998   2.189 -0.5519  0.2923  0.7299
   95MOL   H19821066   6.164   7.202   2.082 -3.3757  3.4671 -1.5642
   95MOL   H19921067   6.210   7.251   2.316  0.3565 -1.7263  2.1842
   95MOL   C20021068   5.932   7.550   2.524  0.5671  0.4586 -0.5788
   95MOL   C20121069   5.955   7.421   2.474 -0.1305  0.2321 -0.1015
   95MOL   C20221070   6.021   7.331   2.560 -0.4073 -0.8474  0.1737
   95MOL   C20321071   6.056   7.367   2.689 -0.3725  0.5861 -0.4108
   95MOL   C20421072   6.040   7.499   2.737 -0.8360  0.1159 -0.6907
   95MOL   C20521073   5.980   7.588   2.653  0.2820  0.0506 -0.3976
   95MOL   O20621074   5.947   7.713   2.705  0.7965 -0.0816 -0.2051
   95MOL   H20721075   5.884   7.621   2.458  1.3556  1.1466 -0.4216
   95MOL   H20821076   5.928   7.385   2.376 -1.6034  0.4280  0.2128
   95MOL   H20921077   6.089   7.291   2.757 -0.2134  3.5267  2.9191
   95MOL   H21021078   6.063   7.529   2.839 -0.4825  1.4837 -1.1554
   95MOL   C21121079   6.139   8.014   2.611 -0.5028 -0.1244  0.7219
   95MOL   C21221080   6.035   7.921   2.615  0.0662  0.2288 -0.4815
   95MOL   C21321081   6.048   7.803   2.695  0.3686 -0.6411 -0.8371
   95MOL   C21421082   6.158   7.783   2.782 -0.1049  0.4107 -0.0834
   95MOL   C21521083   6.268   7.876   2.764 -0.2475  0.2886 -0.4719
   95MOL   C21621084   6.257   7.988   2.676 -0.8525 -0.1534 -0.2781
   95MOL   O21721085   6.367   8.066   2.659  0.2981  0.2385  0.2070
   95MOL   H21821086   6.140   8.100   2.546 -2.7197 -0.0594  0.7531
   95MOL   H21921087   5.947   7.932   2.552 -0.3040  0.1919  0.0280
   95MOL   H22021088   6.157   7.716   2.866 -0.3215 -0.6551 -0.9271
   95MOL   H22121089   6.350   7.866   2.833  0.1547  0.4325 -0.9220
   95MOL   H22221090   6.354   8.112   2.578  0.9842  0.0264 -0.0300
   96MOL     C121091   1.397   4.091   6.271 -0.8289 -0.1330  0.4153
   96MOL     C221092   1.463   4.026   6.376  0.3100 -0.7636  0.2480
   96MOL     C321093   1.471   4.096   6.495  0.0566 -0.0886  0.4606
   96MOL     C421094   1.419   4.226   6.515  0.0543  0.2945  0.1821
   96MOL     C521095   1.354   4.297   6.409 -0.5469 -0.2055  0.3431
   96MOL     C621096   1.344   4.227   6.284 -0.6129 -0.0501 -0.6666
   96MOL     O721097   1.275   4.287   6.179 -0.5184 -0.0052  0.3888
   96MOL     H821098   1.382   4.046   6.174 -0.6608  0.3650  0.1597
   96MOL     H921099   1.511   3.932   6.352  1.7624  0.1909 -0.6732
   96MOL    H1021100   1.414   4.270   6.613  3.5343  1.6443 -0.1790
   96MOL    H1121101   1.327   4.402   6.419 -0.2096  0.0807 -1.5783
   96MOL    H1221102   1.514   4.042   6.579  0.3398 -1.3376 -0.4740
   96MOL    C1321103   0.937   4.331   6.052  0.1120  0.4814  0.5162
   96MOL    C1421104   1.075   4.331   6.060 -0.0697  0.3883  0.4166
   96MOL    C1521105   1.137   4.296   6.177 -0.6389  0.1530 -0.4471
   96MOL    C1621106   1.059   4.269   6.291  0.2411 -0.1133  0.4078
   96MOL    C1721107   0.919   4.262   6.288  0.6198 -0.2673 -0.1667
   96MOL    C1821108   0.855   4.303   6.167 -0.7171  0.1021  0.6211
   96MOL    O1921109   0.720   4.306   6.183 -0.3386 -0.3365  0.3824
   96MOL    H2021110   0.895   4.356   5.955  1.1296  1.8272  0.4211
   96MOL    H2121111   1.140   4.353   5.977  0.2024  2.6409  1.1959
   96MOL    H2221112   1.116   4.252   6.381  2.2186  1.9828 -0.3908
   96MOL    H2321113   0.858   4.257   6.376  1.1500  1.6454  0.3454
   96MOL    C2421114   0.504   4.427   5.917  1.1097 -0.2503  0.2263
   96MOL    C2521115   0.577   4.347   6.004 -0.1057  0.0560  0.8203
   96MOL    C2621116   0.652   4.397   6.110 -0.6095 -0.3248  0.3499
   96MOL    C2721117   0.661   4.537   6.123 -0.2618 -0.3149 -0.4135
   96MOL    C2821118   0.585   4.620   6.043 -0.2913 -0.1373  0.3004
   96MOL    C2921119   0.501   4.570   5.941  0.5816  0.3788  0.7780
   96MOL    O3021120   0.426   4.657   5.864  0.4175  0.3788  0.2557
   96MOL    H3121121   0.448   4.396   5.830  1.6253 -0.2680 -0.1011
   96MOL    H3221122   0.576   4.239   5.995  1.4010  0.1550 -1.0126
   96MOL    H3321123   0.717   4.586   6.201 -0.6192  1.4220 -1.2313
   96MOL    H3421124   0.577   4.727   6.055  2.4909  0.4588 -2.6206
   96MOL    C3521125   0.387   4.582   5.509  0.2049 -0.0597  0.4182
   96MOL    C3621126   0.359   4.584   5.649 -0.4776  0.4001 -0.1787
   96MOL    C3721127   0.451   4.646   5.733 -0.1969 -0.5519  0.0635
   96MOL    C3821128   0.562   4.711   5.673 -0.4151 -0.4614  0.6715
   96MOL    C3921129   0.585   4.715   5.538 -0.1097 -0.6012  0.5059
   96MOL    C4021130   0.494   4.660   5.454  0.2938  0.2231 -0.1347
   96MOL    O4121131   0.507   4.664   5.318 -0.3582 -0.4599 -0.7980
   96MOL    H4221132   0.317   4.527   5.448  0.3682  0.8631 -0.6149
   96MOL    H4321133   0.274   4.535   5.694  0.0398  1.1258  1.6190
   96MOL    H4421134   0.616   4.777   5.738  0.9212 -0.4535 -0.4354
   96MOL    H4521135   0.669   4.762   5.490 -0.6971  2.2536  2.1437
   96MOL    C4621136   0.212   4.855   5.196  0.6089 -0.2596  0.4859
   96MOL    C4721137   0.319   4.812   5.279  0.4378 -0.2900  0.2768
   96MOL    C4821138   0.402   4.708   5.243 -0.0235  0.3306 -0.1879
   96MOL    C4921139   0.378   4.640   5.127 -0.2933  0.1030 -0.1922
   96MOL    C5021140   0.283   4.692   5.035 -0.1368 -0.7750  0.4084
   96MOL    C5121141   0.205   4.804   5.066  0.3557  0.0515 -0.1345
   96MOL    O5221142   0.114   4.856   4.976 -0.0480  0.0317 -0.3576
   96MOL    H5321143   0.151   4.938   5.229  2.6710  1.0406  1.1387
   96MOL    H5421144   0.350   4.859   5.371  1.1097  1.3056 -0.7450
   96MOL    H5521145   0.427   4.545   5.113 -0.3518 -0.0889  0.8988
   96MOL    H5621146   0.262   4.641   4.943 -0.9597 -1.0972  0.7699
   96MOL    C5721147   0.279   5.179   4.887  0.0808  0.0114 -1.0344
   96MOL    C5821148   0.264   5.043   4.933  0.8196 -0.7222  0.3224
   96MOL    C5921149   0.134   4.987   4.937  0.1833 -0.1997 -0.3819
   96MOL    C6021150   0.027   5.057   4.879  0.1286 -0.3345 -0.3764
   96MOL    C6121151   0.048   5.185   4.814 -0.4393 -0.4319 -0.2891
   96MOL    C6221152   0.170   5.248   4.826 -0.5948  0.2830  0.4518
   96MOL    O6321153   0.180   5.376   4.780 -0.6597  0.2244  0.2837
   96MOL    H6421154   0.381   5.216   4.882  0.6618 -1.5765 -1.1545
   96MOL    H6521155   0.355   4.998   4.972  1.4668 -0.6054 -1.0109
   96MOL    H6621156   8.183   5.011   4.873  0.6010 -1.4863  0.5297
   96MOL    H6721157   8.214   5.231   4.771  0.7100  2.7156  0.5961
   96MOL    C6821158   0.474   5.398   4.557  0.0829 -0.4339  0.5329
   96MOL    C6921159   0.357   5.351   4.614 -0.0410 -0.2470  0.3343
   96MOL    C7021160   0.307   5.417   4.730 -0.1879 -0.1279  0.2387
   96MOL    C7121161   0.375   5.527   4.784 -0.7221 -0.0728 -0.4295
   96MOL    C7221162   0.494   5.574   4.729 -0.5194 -0.7429  0.2930
   96MOL    C7321163   0.548   5.509   4.614  0.1977  0.5580 -0.1804
   96MOL    O7421164   0.664   5.544   4.546  0.4381 -0.0000  0.9750
   96MOL    H7521165   0.505   5.357   4.462 -2.1985 -1.8094  0.3593
   96MOL    H7621166   0.306   5.262   4.581  0.0352  0.0224 -0.5400
   96MOL    H7721167   0.320   5.580   4.860  1.1203  0.0410  0.8400
   96MOL    H7821168   0.537   5.660   4.778  1.3677 -0.6325 -1.5001
   96MOL    C7921169   0.950   5.597   4.781  0.4244 -0.0219  0.2292
   96MOL    C8021170   0.841   5.535   4.717 -0.6205 -0.3752 -0.4235
   96MOL    C8121171   0.774   5.597   4.610  0.4213  0.5558 -0.1214
   96MOL    C8221172   0.827   5.716   4.553  0.1566 -0.3584 -0.1472
   96MOL    C8321173   0.940   5.780   4.614  0.2664  0.1643 -0.1889
   96MOL    C8421174   1.003   5.720   4.729 -0.6203  0.3356  0.2918
   96MOL    O8521175   1.108   5.782   4.773  0.0377 -0.1759  0.0263
   96MOL    H8621176   0.996   5.553   4.867 -1.1236 -1.1418  0.5151
   96MOL    H8721177   0.809   5.436   4.747 -0.0466 -0.9311 -1.6084
   96MOL    H8821178   0.775   5.772   4.477 -0.3366  0.4259  0.7626
   96MOL    H8921179   0.968   5.879   4.581 -1.4275  1.1275  1.1686
   96MOL    C9021180   1.397   5.555   4.711  0.0276  0.2692 -0.4259
   96MOL    C9121181   1.281   5.631   4.685  1.0272 -0.3420 -0.3431
   96MOL    C9221182   1.222   5.705   4.791 -0.0382  0.9597 -0.6994
   96MOL    C9321183   1.275   5.702   4.923  0.4015  0.5248  0.3982
   96MOL    C9421184   1.385   5.622   4.946  0.3080  0.2839  0.2686
   96MOL    C9521185   1.449   5.547   4.847  0.3294  0.1917 -0.1739
   96MOL    O9621186   1.567   5.480   4.869 -0.0246 -0.0628  0.3020
   96MOL    H9721187   1.450   5.520   4.624 -0.3271  1.7149 -1.2435
   96MOL    H9821188   1.233   5.628   4.588 -0.2427  1.9694  0.1807
   96MOL    H9921189   1.229   5.760   5.002 -0.6615 -2.2257  1.8651
   96MOL   H10021190   1.423   5.613   5.047 -1.2993 -1.4007  0.7587
   96MOL   C10121191   1.702   5.133   4.904 -0.7578  0.3350 -0.2992
   96MOL   C10221192   1.695   5.276   4.886 -0.4442 -0.4281 -0.3737
   96MOL   C10321193   1.568   5.344   4.883 -0.3599 -0.1993 -0.3673
   96MOL   C10421194   1.455   5.271   4.917 -0.3447  0.1825 -0.0401
   96MOL   C10521195   1.455   5.132   4.916 -0.3482 -0.0477 -0.0860
   96MOL   C10621196   1.581   5.058   4.914 -0.2564  0.0349  0.6716
   96MOL   O10721197   1.571   4.921   4.930 -0.5322 -0.4988 -0.4519
   96MOL   H10821198   1.791   5.072   4.904 -0.3852  0.8431 -2.7822
   96MOL   H10921199   1.788   5.330   4.874 -1.6551  1.6175 -0.8553
   96MOL   H11021200   1.367   5.333   4.932  1.1223  2.1711  0.5960
   96MOL   H11121201   1.360   5.082   4.933  0.3834 -2.1254 -2.0110
   96MOL   C11221202   1.849   4.674   4.877  0.1167  0.4148  0.2616
   96MOL   C11321203   1.753   4.765   4.941 -0.2893  0.2774 -0.3039
   96MOL   C11421204   1.669   4.847   4.863  0.4946  0.0190 -0.3737
   96MOL   C11521205   1.669   4.841   4.721  0.4057  0.6382 -0.3048
   96MOL   C11621206   1.750   4.742   4.663  0.0489 -0.6749 -0.2199
   96MOL   C11721207   1.847   4.673   4.738  0.2982 -0.4540  0.3199
   96MOL   O11821208   1.933   4.588   4.678 -0.2624 -0.0992  0.1520
   96MOL   H11921209   1.923   4.616   4.930  0.3806 -0.3507 -0.9125
   96MOL   H12021210   1.761   4.782   5.047  0.4009  0.1439 -0.3294
   96MOL   H12121211   1.605   4.896   4.655  1.4659  0.2098 -1.7030
   96MOL   H12221212   1.754   4.732   4.555 -0.0448  3.0415 -0.6427
   96MOL   C12321213   1.775   4.251   4.678 -0.6195 -0.1654 -0.2183
   96MOL   C12421214   1.828   4.374   4.728 -0.4525  0.1919 -0.1374
   96MOL   C12521215   1.889   4.467   4.638 -0.0734 -0.2212 -0.2962
   96MOL   C12621216   1.920   4.426   4.506 -0.3616  0.6535  0.4444
   96MOL   C12721217   1.883   4.291   4.467  0.5378 -0.5036 -0.5927
   96MOL   C12821218   1.810   4.206   4.551  1.1570 -0.7362  0.2921
   96MOL   O12921219   1.772   4.086   4.504  0.6808 -0.7413  0.0262
   96MOL   H13021220   1.721   4.184   4.743 -0.6797 -0.4575 -0.5686
   96MOL   H13121221   1.809   4.396   4.832  1.1862 -0.3911  0.3007
   96MOL   H13221222   1.972   4.493   4.439  0.3424 -0.9676 -0.6572
   96MOL   H13321223   1.895   4.261   4.364 -0.7481 -1.9313 -0.3436
   96MOL   C13421224   2.020   3.840   4.602 -0.1009 -0.3815  0.4749
   96MOL   C13521225   1.937   3.954   4.608 -0.2911 -0.6465  0.2625
   96MOL   C13621226   1.867   3.992   4.495  0.5208 -0.0312 -0.5024
   96MOL   C13721227   1.876   3.921   4.375 -0.2046 -0.8067 -0.2014
   96MOL   C13821228   1.959   3.804   4.372 -0.3480 -0.0685 -0.2139
   96MOL   C13921229   2.025   3.761   4.489  0.0217  0.0116  0.2496
   96MOL   O14021230   2.094   3.641   4.497  0.1015  0.2531 -0.0731
   96MOL   H14121231   2.072   3.797   4.687 -2.8693 -1.7097  1.5646
   96MOL   H14221232   1.925   4.004   4.703  0.3470 -0.3593  0.1981
   96MOL   H14321233   1.822   3.954   4.288 -1.1784 -0.8043  0.3988
   96MOL   H14421234   1.960   3.750   4.278 -1.8255  0.6984 -0.6797
   96MOL   C14521235   2.439   3.711   4.396 -0.7910 -0.3477 -0.2912
   96MOL   C14621236   2.317   3.717   4.469  0.0911 -0.3972  0.5067
   96MOL   C14721237   2.209   3.631   4.431  0.9239  0.2349 -0.1572
   96MOL   C14821238   2.226   3.538   4.332 -0.2670  0.3586  1.5681
   96MOL   C14921239   2.348   3.531   4.254 -0.3586 -0.8853 -0.2615
   96MOL   C15021240   2.453   3.623   4.290  0.3667 -0.2322 -0.2943
   96MOL   O15121241   2.582   3.616   4.229 -0.2810 -0.5165  0.2708
   96MOL   H15221242   2.518   3.780   4.423 -1.1331 -0.0269 -0.0972
   96MOL   H15321243   2.316   3.779   4.558 -1.4534  1.5196 -0.7954
   96MOL   H15421244   2.156   3.469   4.289  0.0372  1.4174 -0.7136
   96MOL   H15521245   2.366   3.457   4.178 -1.0865  0.5092 -1.8146
   96MOL   C15621246   2.518   3.703   3.876 -0.7902  0.7377  0.4726
   96MOL   C15721247   2.502   3.705   4.018 -0.2011 -0.5141 -0.5286
   96MOL   C15821248   2.597   3.628   4.093  0.4032  0.3296  1.3336
   96MOL   C15921249   2.707   3.568   4.028 -0.5304  0.1417 -0.0645
   96MOL   C16021250   2.726   3.581   3.889 -0.2400  1.1827 -0.0757
   96MOL   C16121251   2.630   3.649   3.809 -0.0375 -0.0761 -0.2599
   96MOL   O16221252   2.656   3.656   3.675  0.1641  0.3489 -0.1820
   96MOL   H16321253   2.451   3.757   3.811  1.5372  0.8852 -1.8726
   96MOL   H16421254   2.421   3.761   4.062  1.6774  0.6520  1.5568
   96MOL   H16521255   2.784   3.524   4.090 -1.8770 -1.1566  0.7311
   96MOL   H16621256   2.819   3.540   3.854 -1.2597 -1.0290 -0.2821
   96MOL   C16721257   2.424   3.624   3.386 -0.3777  0.0324  0.3475
   96MOL   C16821258   2.522   3.680   3.473  0.4104  0.3256 -0.3386
   96MOL   C16921259   2.562   3.611   3.587  0.2754 -0.1104  0.6442
   96MOL   C17021260   2.503   3.485   3.613  0.5121  0.2286  0.2473
   96MOL   C17121261   2.400   3.437   3.535 -0.3367  0.2195 -0.2755
   96MOL   C17221262   2.357   3.508   3.420 -0.0538 -0.3741 -0.6230
   96MOL   O17321263   2.240   3.475   3.351 -0.1392  0.1780 -0.6635
   96MOL   H17421264   2.388   3.675   3.299 -0.8576 -0.8612  0.0195
   96MOL   H17521265   2.575   3.772   3.449 -1.5773  1.4731 -0.4165
   96MOL   H17621266   2.532   3.435   3.704  1.8153 -1.1704 -0.9126
   96MOL   H17721267   2.350   3.345   3.562  1.2157 -0.7945 -0.7759
   96MOL   C17821268   2.143   3.135   3.290  0.3550 -0.0993  0.9220
   96MOL   C17921269   2.133   3.272   3.313  0.0815  0.2886  0.0356
   96MOL   C18021270   2.241   3.357   3.288  0.5089 -0.4339 -0.2580
   96MOL   C18121271   2.352   3.307   3.216  0.0834 -0.4352 -0.0465
   96MOL   C18221272   2.364   3.171   3.186  0.3864 -0.0088 -0.0078
   96MOL   C18321273   2.262   3.088   3.229 -0.7336 -0.1366 -0.1548
   96MOL   O18421274   2.273   2.951   3.214 -0.1988  0.6406  0.2053
   96MOL   H18521275   2.065   3.062   3.305  1.8211 -1.3980  2.4988
   96MOL   H18621276   2.045   3.312   3.362 -0.5492 -0.7393 -0.2475
   96MOL   H18721277   2.437   3.372   3.205 -1.1642  0.9895 -1.4228
   96MOL   H18821278   2.452   3.123   3.148  1.6121  1.7974  0.5077
   96MOL   C18921279   2.315   2.820   3.563 -0.3415  0.4091 -0.4205
   96MOL   C19021280   2.313   2.909   3.453 -0.0310 -0.2536 -0.5089
   96MOL   C19121281   2.271   2.868   3.326 -0.1751  0.4424  0.4442
   96MOL   C19221282   2.221   2.738   3.312 -0.4497  0.1593  0.0275
   96MOL   C19321283   2.227   2.648   3.419 -0.1249  0.4501  0.2648
   96MOL   C19421284   2.269   2.690   3.545  0.3821  0.1979 -0.7465
   96MOL   O19521285   2.263   2.602   3.651  0.2661 -0.2801  0.2324
   96MOL   H19621286   2.347   2.857   3.660 -2.3805 -1.9128  1.1942
   96MOL   H19721287   2.354   3.008   3.461 -1.1204  0.2767 -1.3977
   96MOL   H19821288   2.184   2.706   3.216 -0.2034 -0.7835  0.2467
   96MOL   H19921289   2.193   2.547   3.410  1.5010 -0.0707 -0.3153
   96MOL   C20021290   1.911   2.559   3.750  0.3838 -0.1830 -0.7438
   96MOL   C20121291   2.030   2.559   3.676 -1.0006 -0.5097  0.1026
   96MOL   C20221292   2.147   2.614   3.729 -0.3497  0.9066 -0.2882
   96MOL   C20321293   2.149   2.652   3.866 -0.0531  0.2792  0.1474
   96MOL   C20421294   2.033   2.645   3.942  0.0385  0.2640  0.3117
   96MOL   C20521295   1.913   2.608   3.885 -0.4066  0.7045 -0.1363
   96MOL   O20621296   1.806   2.624   3.968  0.2402 -0.4058  0.5041
   96MOL   H20721297   1.823   2.514   3.706 -0.8067  2.4115 -1.0823
   96MOL   H20821298   2.028   2.522   3.575 -0.8499 -1.2561  0.3667
   96MOL   H20921299   2.237   2.689   3.917  0.7774 -0.2134 -0.9125
   96MOL   H21021300   2.042   2.666   4.047 -0.1340 -1.6716  0.7287
   96MOL   C21121301   1.483   2.647   3.769 -0.4994 -0.4949 -0.2945
   96MOL   C21221302   1.625   2.658   3.800  0.2124  0.8420 -0.3683
   96MOL   C21321303   1.676   2.598   3.918  0.0559 -0.2892 -0.2080
   96MOL   C21421304   1.591   2.516   4.000  0.4770  0.2232 -0.4565
   96MOL   C21521305   1.458   2.485   3.953  0.3192  0.0405 -0.2809
   96MOL   C21621306   1.402   2.548   3.842 -0.1221  0.1966  0.0623
   96MOL   O21721307   1.279   2.515   3.799  0.8546  0.4237 -0.3530
   96MOL   H21821308   1.442   2.706   3.689 -2.2687 -0.8729  0.3147
   96MOL   H21921309   1.687   2.723   3.740  1.2286  1.0677  0.9224
   96MOL   H22021310   1.628   2.468   4.090  2.9936  1.7780 -0.6166
   96MOL   H22121311   1.402   2.410   4.007  0.4442  1.6041  2.0731
   96MOL   H22221312   1.250   2.564   3.724  0.2906  1.3546  0.4586
   97MOL     C121313   7.423   4.638   5.282  0.6976 -0.6765  0.3829
   97MOL     C221314   7.449   4.511   5.338 -0.6131  0.0945 -0.1796
   97MOL     C321315   7.485   4.497   5.473  0.0997  0.1252 -0.1552
   97MOL     C421316   7.502   4.609   5.550 -0.5294  0.0266 -0.1647
   97MOL     C521317   7.490   4.735   5.496  0.2091 -0.1853  0.4394
   97MOL     C621318   7.440   4.745   5.367 -0.8156 -0.1382  0.1985
   97MOL     O721319   7.402   4.871   5.316  0.2964  0.2175  0.5195
   97MOL     H821320   7.389   4.651   5.181  3.7848  0.2998 -0.5853
   97MOL     H921321   7.432   4.423   5.278 -0.7583  0.7745 -1.1568
   97MOL    H1021322   7.536   4.590   5.651  1.0566 -0.9173 -0.8661
   97MOL    H1121323   7.500   4.815   5.567  0.8683 -0.1232  0.2751
   97MOL    H1221324   7.501   4.394   5.499  2.0740  0.2152 -0.9143
   97MOL    C1321325   7.477   5.190   5.494 -0.0973  0.1346 -0.4968
   97MOL    C1421326   7.414   5.076   5.452 -0.2817  0.5285  0.1691
   97MOL    C1521327   7.465   4.986   5.354 -0.4357 -0.0143  0.3730
   97MOL    C1621328   7.594   5.020   5.311  0.1428  0.5150  0.1172
   97MOL    C1721329   7.670   5.122   5.364 -0.5260 -0.5698 -0.2720
   97MOL    C1821330   7.610   5.212   5.450 -0.1386  0.5332  0.5647
   97MOL    O1921331   7.686   5.325   5.482 -0.2606 -0.6359 -0.1186
   97MOL    H2021332   7.436   5.267   5.556  2.1188 -0.2187  1.4532
   97MOL    H2121333   7.322   5.057   5.504 -0.0353 -1.7531 -0.1843
   97MOL    H2221334   7.640   4.970   5.227  0.8680 -0.9572  1.3795
   97MOL    H2321335   7.765   5.137   5.315 -0.1851  1.0285  0.8261
   97MOL    C2421336   7.709   5.351   5.852  0.1948  0.5628 -0.0213
   97MOL    C2521337   7.658   5.343   5.723  0.1788  0.6035  0.4239
   97MOL    C2621338   7.739   5.338   5.610 -0.3175 -0.4222 -0.0446
   97MOL    C2721339   7.880   5.333   5.627  0.0896  0.1454 -0.3633
   97MOL    C2821340   7.932   5.344   5.761 -0.1489  0.0204  0.4663
   97MOL    C2921341   7.850   5.351   5.874  0.1792 -0.4345 -0.5611
   97MOL    O3021342   7.894   5.354   6.004  0.0332  0.3654  0.3806
   97MOL    H3121343   7.647   5.350   5.941  0.0050 -0.1527 -0.1599
   97MOL    H3221344   7.550   5.346   5.719  0.2371  0.5074 -2.5788
   97MOL    H3321345   7.945   5.324   5.541  1.2898 -0.2218  0.5745
   97MOL    H3421346   8.038   5.327   5.769 -0.3700 -2.4698 -1.3548
   97MOL    C3521347   7.889   5.000   6.110 -0.4132  0.6389 -0.2438
   97MOL    C3621348   7.867   5.111   6.022  0.2250 -0.0996  0.7336
   97MOL    C3721349   7.882   5.241   6.083 -0.2157 -0.3043 -0.3370
   97MOL    C3821350   7.900   5.252   6.220  0.7734 -0.0478  0.1092
   97MOL    C3921351   7.906   5.142   6.305  0.1705 -0.6450 -0.0635
   97MOL    C4021352   7.891   5.017   6.249 -0.5791  0.3740 -0.5334
   97MOL    O4121353   7.896   4.905   6.334  0.1848 -0.1329 -0.1761
   97MOL    H4221354   7.901   4.902   6.067 -0.0506  0.5602  0.0274
   97MOL    H4321355   7.857   5.103   5.915 -0.7368  0.1622  0.7985
   97MOL    H4421356   7.925   5.347   6.263  0.6548  0.2439 -0.4636
   97MOL    H4521357   7.930   5.162   6.409  1.4040  0.9774 -0.6485
   97MOL    C4621358   7.662   4.716   6.549  0.5280  0.0628 -0.3759
   97MOL    C4721359   7.779   4.781   6.500  0.6401 -0.5265 -0.6945
   97MOL    C4821360   7.775   4.848   6.373 -0.2036 -0.0075 -0.3713
   97MOL    C4921361   7.656   4.856   6.300 -0.3114 -0.4056 -0.2327
   97MOL    C5021362   7.546   4.789   6.351 -0.0099 -0.1103  0.1155
   97MOL    C5121363   7.541   4.711   6.471 -0.8699  0.3723  0.3577
   97MOL    O5221364   7.418   4.659   6.517  0.3717 -0.1999  0.1534
   97MOL    H5321365   7.673   4.658   6.639 -2.9340  0.3733  0.3099
   97MOL    H5421366   7.870   4.792   6.557  0.3561 -0.4140 -0.2595
   97MOL    H5521367   7.658   4.904   6.203 -0.7809  2.5821  1.1927
   97MOL    H5621368   7.455   4.784   6.294 -0.9219  3.2393  1.1887
   97MOL    C5721369   7.236   4.438   6.289  0.8569 -0.1751 -0.5325
   97MOL    C5821370   7.279   4.556   6.358 -0.0822  0.3327  0.1008
   97MOL    C5921371   7.373   4.546   6.461 -0.1846  0.3448 -0.4922
   97MOL    C6021372   7.421   4.422   6.501 -0.0031  0.4586  0.6090
   97MOL    C6121373   7.374   4.305   6.432  0.1603 -0.2745 -0.6273
   97MOL    C6221374   7.281   4.311   6.324  0.1360  0.3600  0.5197
   97MOL    O6321375   7.245   4.199   6.255  0.3937 -0.8345 -0.0952
   97MOL    H6421376   7.152   4.447   6.221  2.2383  0.8677 -2.1266
   97MOL    H6521377   7.239   4.652   6.329  0.5231  0.7204  0.5457
   97MOL    H6621378   7.500   4.413   6.573  0.2231  2.9057  0.7004
   97MOL    H6721379   7.419   4.214   6.469  0.3021 -0.1080 -0.3932
   97MOL    C6821380   7.506   3.928   6.254  0.6200  0.2138 -0.5268
   97MOL    C6921381   7.444   4.048   6.230 -0.4630 -0.4324 -0.5699
   97MOL    C7021382   7.311   4.078   6.285  0.6596  0.8105 -0.2378
   97MOL    C7121383   7.248   3.974   6.357 -0.3342 -1.0043  0.3134
   97MOL    C7221384   7.316   3.855   6.389  0.5124 -0.2080  0.5295
   97MOL    C7321385   7.439   3.827   6.328 -1.2978 -0.5041  0.0628
   97MOL    O7421386   7.503   3.708   6.351 -0.3642  0.7601  0.8841
   97MOL    H7521387   7.606   3.912   6.218  0.4666 -1.7964 -0.1144
   97MOL    H7621388   7.492   4.119   6.166  0.8078 -1.3197 -0.6100
   97MOL    H7721389   7.150   3.993   6.400 -0.3399 -0.5773  0.1039
   97MOL    H7821390   7.268   3.789   6.460  1.7512  0.5334  2.0813
   97MOL    C7921391   7.386   3.364   6.317  0.6438  1.1884 -0.5317
   97MOL    C8021392   7.433   3.479   6.375 -0.6442 -0.8130  0.0503
   97MOL    C8121393   7.441   3.600   6.300  0.2374 -0.0380 -0.9219
   97MOL    C8221394   7.373   3.604   6.173 -0.4226  0.0893 -0.1859
   97MOL    C8321395   7.317   3.487   6.125 -0.3494 -0.2027 -0.0166
   97MOL    C8421396   7.323   3.367   6.193 -0.4248  0.2595  0.0649
   97MOL    O8521397   7.261   3.251   6.149 -0.3194 -0.3554  0.8809
   97MOL    H8621398   7.384   3.271   6.371 -1.8003  1.6006  0.1780
   97MOL    H8721399   7.500   3.471   6.459  0.4152  0.2646 -0.6584
   97MOL    H8821400   7.369   3.687   6.104 -1.2771 -0.8343 -1.2696
   97MOL    H8921401   7.276   3.476   6.026  0.9867  0.5688 -0.6695
   97MOL    C9021402   6.909   3.314   6.251  0.1229  0.3329 -0.2776
   97MOL    C9121403   7.036   3.329   6.198 -0.2083  0.0253  0.2252
   97MOL    C9221404   7.137   3.229   6.206  0.9755 -0.6072  0.4929
   97MOL    C9321405   7.100   3.113   6.276 -0.2106 -0.2408  0.0923
   97MOL    C9421406   6.968   3.087   6.314 -0.2917 -0.1515  0.1822
   97MOL    C9521407   6.870   3.186   6.303 -0.8939 -0.2412 -0.0229
   97MOL    O9621408   6.745   3.153   6.340 -0.2214 -0.0367  0.2665
   97MOL    H9721409   6.840   3.396   6.258  2.0399  2.1678 -2.4244
   97MOL    H9821410   7.065   3.423   6.152  0.2131 -1.1708 -2.0023
   97MOL    H9921411   7.173   3.034   6.290  2.5783  2.2593  0.1228
   97MOL   H10021412   6.940   2.990   6.351  1.0212 -0.4672  0.3814
   97MOL   C10121413   6.488   3.422   6.365 -0.1355  0.1862  0.1544
   97MOL   C10221414   6.596   3.337   6.392 -0.3135  0.5925 -0.5012
   97MOL   C10321415   6.635   3.228   6.309  0.0323  0.4379  0.6706
   97MOL   C10421416   6.556   3.207   6.194 -0.2249 -0.4946 -0.0478
   97MOL   C10521417   6.449   3.295   6.166 -0.1383 -0.4411  0.8255
   97MOL   C10621418   6.414   3.403   6.249 -0.0891 -0.4053  0.1451
   97MOL   O10721419   6.325   3.491   6.218 -0.2048 -0.0050 -0.3500
   97MOL   H10821420   6.474   3.509   6.428 -0.1481 -0.5151  1.1231
   97MOL   H10921421   6.649   3.358   6.484 -0.2861  2.7833 -1.0078
   97MOL   H11021422   6.578   3.131   6.121  0.1622  0.4016 -0.8640
   97MOL   H11121423   6.389   3.288   6.076  2.1380  0.2272 -0.7805
   97MOL   C11221424   6.478   3.786   6.047 -0.7618 -0.7344 -0.2290
   97MOL   C11321425   6.458   3.683   6.136 -0.0705  0.5953 -0.0451
   97MOL   C11421426   6.353   3.592   6.122  0.0990  0.2081  0.6620
   97MOL   C11521427   6.275   3.607   6.008 -0.4340  0.3280  0.2640
   97MOL   C11621428   6.297   3.716   5.920  0.7861 -0.5616  0.2682
   97MOL   C11721429   6.405   3.800   5.933  0.4043 -0.4873  0.2324
   97MOL   O11821430   6.426   3.901   5.836  0.9298  0.6379  0.1729
   97MOL   H11921431   6.549   3.865   6.067  0.3019 -1.4487 -1.1462
   97MOL   H12021432   6.531   3.689   6.215  2.2745 -1.6003 -1.9797
   97MOL   H12121433   6.184   3.548   6.010 -1.6410  2.1717  1.5579
   97MOL   H12221434   6.228   3.727   5.838 -1.0482 -1.2995  1.6874
   97MOL   C12321435   6.695   3.785   5.604  0.0225 -0.2383 -0.0443
   97MOL   C12421436   6.588   3.785   5.691 -0.2125 -0.3092  0.6560
   97MOL   C12521437   6.545   3.901   5.762  0.6409 -0.4575  0.6957
   97MOL   C12621438   6.614   4.024   5.749  0.1829 -0.2329  0.1143
   97MOL   C12721439   6.717   4.025   5.652  0.0294 -0.4910 -0.1959
   97MOL   C12821440   6.752   3.911   5.575  0.1488 -0.3569 -0.2789
   97MOL   O12921441   6.848   3.926   5.479  0.0983 -0.0169  0.5161
   97MOL   H13021442   6.716   3.686   5.567  1.4723 -0.1540  0.4894
   97MOL   H13121443   6.534   3.691   5.695  0.0228 -0.4073  1.6522
   97MOL   H13221444   6.583   4.120   5.789  0.3957  0.3600 -1.1338
   97MOL   H13321445   6.761   4.120   5.624 -3.5070  1.3622  0.3064
   97MOL   C13421446   7.138   4.145   5.452  0.0137 -0.4643 -0.5953
   97MOL   C13521447   7.007   4.084   5.435  0.3594 -0.1766  0.3296
   97MOL   C13621448   6.969   3.975   5.503  0.2914 -0.0440 -1.6730
   97MOL   C13721449   7.064   3.912   5.594 -0.2511 -0.3326  0.3003
   97MOL   C13821450   7.187   3.975   5.619 -0.6516  0.7399 -0.0640
   97MOL   C13921451   7.224   4.095   5.553  0.2300 -0.4456  0.3455
   97MOL   O14021452   7.336   4.164   5.591  0.3128  0.1572  0.7268
   97MOL   H14121453   7.169   4.234   5.400 -1.0558  0.5421  0.4872
   97MOL   H14221454   6.952   4.125   5.352  0.7649  0.5289  0.4003
   97MOL   H14321455   7.031   3.821   5.641  0.3645 -0.7597 -0.1003
   97MOL   H14421456   7.259   3.932   5.687 -1.3375  0.1432  0.2890
   97MOL   C14521457   7.702   4.124   5.587  0.5187 -0.5838  0.1989
   97MOL   C14621458   7.570   4.131   5.633  1.1682  0.4046  0.3576
   97MOL   C14721459   7.465   4.142   5.539  0.4780  0.0033 -0.1536
   97MOL   C14821460   7.491   4.128   5.398  0.4568  0.0444 -0.5200
   97MOL   C14921461   7.626   4.120   5.357  0.4862  0.1059  0.3941
   97MOL   C15021462   7.728   4.116   5.452  1.0073  0.0343  0.0963
   97MOL   O15121463   7.856   4.111   5.404 -0.2215 -0.0444 -0.5998
   97MOL   H15221464   7.785   4.127   5.656  2.1423 -1.3188 -1.6922
   97MOL   H15321465   7.542   4.136   5.737 -0.1816  0.4119  0.0051
   97MOL   H15421466   7.408   4.131   5.328 -0.6578  1.1685  0.8207
   97MOL   H15521467   7.651   4.110   5.253 -0.3760  3.4015 -0.1995
   97MOL   C15621468   8.083   3.852   5.538  0.4064 -0.0312 -0.2911
   97MOL   C15721469   8.002   3.970   5.530  0.9994  0.6403  0.4181
   97MOL   C15821470   7.927   3.992   5.415  0.9364 -0.5217  0.1588
   97MOL   C15921471   7.922   3.899   5.304 -0.1200  0.0726  0.1845
   97MOL   C16021472   8.009   3.786   5.316  0.1579 -0.1859  0.2830
   97MOL   C16121473   8.096   3.774   5.426 -0.8473 -0.0346 -0.9119
   97MOL   O16221474   8.177   3.666   5.434  0.1328  0.0531 -0.6886
   97MOL   H16321475   8.145   3.831   5.625  0.4955 -2.2753 -0.8599
   97MOL   H16421476   8.001   4.048   5.605 -1.3813  0.6398  0.4283
   97MOL   H16521477   7.870   3.915   5.211  1.4036 -0.8633 -0.8580
   97MOL   H16621478   7.999   3.716   5.234 -1.2108  0.7575 -0.3780
   97MOL   C16721479   8.138   3.308   5.412 -0.2424 -0.0210 -0.5500
   97MOL   C16821480   8.178   3.438   5.382  0.3198  0.1240 -1.1382
   97MOL   C16921481   8.117   3.543   5.446 -0.1715  0.7106 -0.7914
   97MOL   C17021482   7.997   3.526   5.529  0.3833  0.6933  0.4484
   97MOL   C17121483   7.960   3.392   5.555  0.7861  0.7445  0.0604
   97MOL   C17221484   8.038   3.284   5.513 -0.1559 -0.5915  1.0521
   97MOL   O17321485   7.992   3.163   5.559 -0.2491 -0.0570 -0.4059
   97MOL   H17421486   8.194   3.236   5.355  1.6971  2.9522 -2.5171
   97MOL   H17521487   0.005   3.459   5.314  1.3141 -0.3851 -0.1312
   97MOL   H17621488   7.951   3.613   5.574  0.1359  1.0656 -0.5116
   97MOL   H17721489   7.874   3.366   5.614  1.7202  0.2794  1.2549
   97MOL   C17821490   8.125   2.841   5.686  0.5058 -0.1417  0.0547
   97MOL   C17921491   8.045   2.945   5.629 -0.6468 -0.2601  0.6866
   97MOL   C18021492   8.082   3.077   5.611 -0.2834  0.8048 -0.1843
   97MOL   C18121493   8.209   3.116   5.660 -0.0149  0.3471 -0.2608
   97MOL   C18221494   0.041   3.014   5.724 -0.1575 -0.2534  0.5651
   97MOL   C18321495   8.249   2.879   5.738  0.7347  0.6449  0.6486
   97MOL   O18421496   0.076   2.778   5.771 -0.1948 -0.8584 -0.5280
   97MOL   H18521497   8.092   2.738   5.697 -0.6660  0.2795  0.5468
   97MOL   H18621498   7.955   2.908   5.582 -1.6026 -0.2515  2.4769
   97MOL   H18721499   8.236   3.219   5.641 -0.9349  0.6466  0.0467
   97MOL   H18821500   0.140   3.047   5.751 -0.5361  2.8691 -1.6032
   97MOL   C18921501   0.253   2.880   6.083 -0.4049  0.9784 -0.4703
   97MOL   C19021502   0.150   2.846   5.991  0.5065 -0.1979  0.8747
   97MOL   C19121503   0.175   2.809   5.860 -0.3479  0.6106 -0.1525
   97MOL   C19221504   0.314   2.800   5.819  0.0665 -0.3184 -0.2572
   97MOL   C19321505   0.425   2.820   5.911  0.0944 -0.3037 -0.7747
   97MOL   C19421506   0.388   2.857   6.043 -0.0259  0.3609 -0.2344
   97MOL   O19521507   0.487   2.860   6.137  0.4787 -0.2183  0.2618
   97MOL   H19621508   0.227   2.917   6.181 -1.2537 -1.0457  0.0958
   97MOL   H19721509   0.050   2.872   6.023  0.5397  2.2063 -0.8270
   97MOL   H19821510   0.343   2.787   5.716 -2.8495 -0.0797 -1.1640
   97MOL   H19921511   0.528   2.807   5.881  0.2961  0.2962 -0.3424
   97MOL   C20021512   0.452   2.812   6.496  0.4299  0.6717 -0.9322
   97MOL   C20121513   0.476   2.872   6.375  0.3655  0.4274  0.1886
   97MOL   C20221514   0.470   2.799   6.257  0.4069  0.6415  0.1034
   97MOL   C20321515   0.436   2.661   6.265  0.3448  0.0933  0.4765
   97MOL   C20421516   0.416   2.598   6.388  0.7043 -0.0669 -0.2934
   97MOL   C20521517   0.417   2.674   6.501  0.2369  0.2575  0.5413
   97MOL   O20621518   0.370   2.620   6.621  0.0121  0.1247  0.1790
   97MOL   H20721519   0.445   2.878   6.582 -0.5001  0.7408 -1.0467
   97MOL   H20821520   0.486   2.980   6.371 -0.9342  0.5584  0.0246
   97MOL   H20921521   0.433   2.603   6.173  1.3414  0.2600  0.3267
   97MOL   H21021522   0.370   2.500   6.382  1.5844 -0.5866  1.2854
   97MOL   C21121523   0.447   2.279   6.736 -0.3261 -0.6748  0.5283
   97MOL   C21221524   0.390   2.385   6.666  0.0587 -0.2001 -0.9079
   97MOL   C21321525   0.439   2.517   6.670  0.7444  0.2930 -0.4473
   97MOL   C21421526   0.556   2.547   6.735 -0.4618 -0.1391  0.6869
   97MOL   C21521527   0.623   2.443   6.802 -0.2748  0.0332 -0.0354
   97MOL   C21621528   0.563   2.311   6.811 -0.0811 -0.2204 -0.4936
   97MOL   O21721529   0.613   2.219   6.896 -0.1851 -0.3995 -0.3222
   97MOL   H21821530   0.399   2.183   6.744 -0.5538 -0.5546  0.6014
   97MOL   H21921531   0.296   2.372   6.614  0.7458  0.2194 -2.2858
   97MOL   H22021532   0.591   2.649   6.729 -0.9571 -0.0488 -0.9727
   97MOL   H22121533   0.710   2.462   6.861 -0.8452 -1.0265  1.1747
   97MOL   H22221534   0.584   2.130   6.891 -0.9569 -0.1551 -0.2064
   98MOL     C121535   7.925   6.290   5.042 -0.6499 -0.0821  0.9116
   98MOL     C221536   8.009   6.341   5.138 -0.7364  0.3244 -0.1634
   98MOL     C321537   8.051   6.267   5.252  0.0439  0.2703  0.3090
   98MOL     C421538   8.006   6.135   5.254 -0.9497  0.1802 -1.4504
   98MOL     C521539   7.929   6.075   5.152 -0.2195  0.2292 -0.0401
   98MOL     C621540   7.881   6.153   5.049 -0.3026 -0.9310  0.1433
   98MOL     O721541   7.813   6.092   4.948 -0.1001  0.8321  0.4661
   98MOL     H821542   7.897   6.341   4.951 -1.7006 -0.0848  1.2244
   98MOL     H921543   8.053   6.438   5.117  1.3449 -0.9807 -2.0968
   98MOL    H1021544   8.038   6.063   5.327 -1.3484  1.2318 -0.2177
   98MOL    H1121545   7.911   5.969   5.156  1.7179 -0.3142 -3.6546
   98MOL    H1221546   8.117   6.302   5.329  0.1864 -0.3185  0.4552
   98MOL    C1321547   7.570   6.316   4.771  0.8489 -0.2907 -0.0914
   98MOL    C1421548   7.688   6.246   4.804  0.1098  0.5344 -0.1961
   98MOL    C1521549   7.696   6.161   4.920 -0.0063 -0.3541  1.1323
   98MOL    C1621550   7.576   6.149   4.998  0.0920  0.7964 -0.4945
   98MOL    C1721551   7.453   6.218   4.966  0.3428  0.7301 -0.0704
   98MOL    C1821552   7.453   6.305   4.853 -0.2351  0.2719  0.1370
   98MOL    O1921553   7.337   6.369   4.813  0.2212  0.2426 -0.3020
   98MOL    H2021554   7.570   6.377   4.681 -0.5090 -0.3608 -0.1505
   98MOL    H2121555   7.765   6.247   4.728  2.0096 -0.7067  1.6483
   98MOL    H2221556   7.578   6.081   5.081  0.1779  0.5711 -0.6779
   98MOL    H2321557   7.364   6.206   5.027 -0.1734 -2.0982 -1.3051
   98MOL    C2421558   7.318   6.729   4.866  0.5068  0.7951 -0.2316
   98MOL    C2521559   7.339   6.606   4.805  0.5906 -0.8616 -0.0633
   98MOL    C2621560   7.319   6.490   4.880 -0.0790  0.2467  0.0152
   98MOL    C2721561   7.272   6.490   5.012 -0.7471  0.0221 -0.7833
   98MOL    C2821562   7.252   6.617   5.072 -0.8201  0.3625  0.1200
   98MOL    C2921563   7.263   6.736   4.993  0.2685 -0.6238  0.7425
   98MOL    O3021564   7.230   6.856   5.055 -0.0915 -0.1058 -0.0343
   98MOL    H3121565   7.327   6.817   4.805 -1.1349  1.8012  0.9314
   98MOL    H3221566   7.366   6.602   4.701  0.3863 -2.7515 -0.0614
   98MOL    H3321567   7.253   6.394   5.056 -0.8578  0.8396  1.0091
   98MOL    H3421568   7.205   6.611   5.169 -1.0693  1.7945  0.1100
   98MOL    C3521569   7.231   7.144   4.823 -0.1213 -0.3193 -0.6655
   98MOL    C3621570   7.198   7.028   4.895  0.1157 -0.7900 -0.1646
   98MOL    C3721571   7.279   6.972   4.995  0.5874  0.4359  0.5007
   98MOL    C3821572   7.397   7.042   5.026  1.0078 -0.0018  0.1548
   98MOL    C3921573   7.439   7.146   4.950  0.3918 -0.1827 -0.5978
   98MOL    C4021574   7.359   7.202   4.852 -0.5437 -0.6590  1.1394
   98MOL    O4121575   7.392   7.316   4.781 -0.4116 -0.1124  0.3328
   98MOL    H4221576   7.153   7.179   4.756 -2.2567 -0.8301  1.4956
   98MOL    H4321577   7.107   6.972   4.879 -0.9352  1.3241 -1.7498
   98MOL    H4421578   7.466   7.013   5.104  1.5441 -0.6208 -0.5347
   98MOL    H4521579   7.537   7.180   4.981  0.4656 -0.5949 -0.3793
   98MOL    C4621580   7.596   7.592   4.902 -0.1222  0.3245  0.3800
   98MOL    C4721581   7.544   7.486   4.830  0.2115  0.2647 -0.1044
   98MOL    C4821582   7.417   7.430   4.854  0.6108  0.0895 -0.4271
   98MOL    C4921583   7.326   7.492   4.942  0.2034  0.2504 -0.2309
   98MOL    C5021584   7.380   7.602   5.015  0.7198 -0.4860 -0.2672
   98MOL    C5121585   7.512   7.649   5.001 -0.1874 -0.4414  0.3444
   98MOL    O5221586   7.560   7.754   5.068  0.1565  0.3604 -0.5292
   98MOL    H5321587   7.699   7.624   4.899 -0.2275  0.8870  2.3849
   98MOL    H5421588   7.608   7.439   4.757 -0.8249 -1.6735  0.2096
   98MOL    H5521589   7.224   7.471   4.969  0.3730 -0.4956 -0.1815
   98MOL    H5621590   7.298   7.646   5.070 -0.3289  0.8331 -2.7929
   98MOL    C5721591   7.752   7.669   5.376  0.4302  0.1879 -0.1271
   98MOL    C5821592   7.715   7.689   5.239 -0.0107 -0.0588 -0.0550
   98MOL    C5921593   7.586   7.728   5.204  0.5098  1.0919  0.4182
   98MOL    C6021594   7.478   7.737   5.299 -0.6211  0.8130  0.0203
   98MOL    C6121595   7.517   7.720   5.434 -0.8376  0.0621  0.2986
   98MOL    C6221596   7.648   7.683   5.471  0.1606 -0.3482 -0.5319
   98MOL    O6321597   7.675   7.646   5.599 -0.3254 -0.4000  0.6223
   98MOL    H6421598   7.849   7.635   5.409  0.9172 -0.2575 -1.9728
   98MOL    H6521599   7.791   7.656   5.169 -0.0551  1.0903 -0.6574
   98MOL    H6621600   7.382   7.771   5.264 -0.0990  0.0673 -2.2225
   98MOL    H6721601   7.461   7.728   5.526  0.7053  0.9456  1.1600
   98MOL    C6821602   7.896   7.372   5.735  0.1233 -0.0655 -0.7397
   98MOL    C6921603   7.860   7.504   5.691  0.2549 -0.1897 -0.0920
   98MOL    C7021604   7.731   7.527   5.626 -1.0653  0.1530 -0.2758
   98MOL    C7121605   7.646   7.413   5.613  0.5941 -0.7676  0.1699
   98MOL    C7221606   7.683   7.292   5.670  0.6454 -0.2462  0.4182
   98MOL    C7321607   7.811   7.268   5.714  0.1220 -0.1385 -0.6488
   98MOL    O7421608   7.856   7.150   5.759 -0.0212  0.0142 -0.2473
   98MOL    H7521609   7.997   7.351   5.764  0.4345  0.4886 -1.3911
   98MOL    H7621610   7.919   7.592   5.713 -0.2766  0.7437 -2.2618
   98MOL    H7721611   7.549   7.429   5.570  1.3638  0.5049 -1.1405
   98MOL    H7821612   7.614   7.209   5.667 -0.5054  0.7168 -0.6758
   98MOL    C7921613   8.007   6.852   5.618  0.0225 -0.1781  0.3102
   98MOL    C8021614   7.940   6.939   5.704 -0.8506 -0.6882 -0.7735
   98MOL    C8121615   7.916   7.073   5.668 -0.5494  0.2901  0.3176
   98MOL    C8221616   7.974   7.119   5.550  0.1763 -0.2571  0.4347
   98MOL    C8321617   8.045   7.029   5.468 -0.2262  0.0872 -0.6847
   98MOL    C8421618   8.063   6.895   5.497 -0.8595  0.6645  0.3508
   98MOL    O8521619   8.126   6.812   5.414  0.3252  0.3520  0.1018
   98MOL    H8621620   8.031   6.753   5.653  1.4743  0.0108 -0.1191
   98MOL    H8721621   7.913   6.899   5.800 -0.2173 -0.3290 -0.4441
   98MOL    H8821622   7.960   7.223   5.524  1.3734  0.0583  1.0103
   98MOL    H8921623   8.089   7.063   5.375  1.1167  0.1747 -0.0292
   98MOL    C9021624   0.171   6.631   5.533 -0.2272 -0.1914  0.7621
   98MOL    C9121625   0.043   6.656   5.482  0.2104 -0.9893 -0.1534
   98MOL    C9221626   0.008   6.791   5.455  0.5553 -0.5355  0.3707
   98MOL    C9321627   0.099   6.893   5.473 -0.0496  0.2383  0.0173
   98MOL    C9421628   0.225   6.867   5.525  0.3728 -0.1721 -0.5114
   98MOL    C9521629   0.265   6.736   5.546  1.2094 -0.0998 -0.4306
   98MOL    O9621630   0.392   6.712   5.583 -0.0256  0.0014 -0.2562
   98MOL    H9721631   0.198   6.530   5.560 -1.8387 -0.2071  2.3523
   98MOL    H9821632   8.223   6.580   5.466  0.0936 -0.8311 -0.3766
   98MOL    H9921633   0.064   6.990   5.441  0.5507  0.0091 -1.3845
   98MOL   H10021634   0.296   6.947   5.544  0.5370 -0.9386  2.2444
   98MOL   C10121635   0.540   6.478   5.338 -0.1376 -0.0021 -0.4574
   98MOL   C10221636   0.474   6.586   5.399  0.2626  0.1527  0.0046
   98MOL   C10321637   0.468   6.611   5.533  0.2445  0.4525  0.0482
   98MOL   C10421638   0.554   6.535   5.617  0.0684 -0.3521 -0.4773
   98MOL   C10521639   0.631   6.429   5.561  0.1346 -0.1414 -0.3469
   98MOL   C10621640   0.615   6.396   5.425 -0.4508 -0.2906  0.1979
   98MOL   O10721641   0.673   6.278   5.387  0.6993 -0.1647  0.2222
   98MOL   H10821642   0.528   6.464   5.232  1.9260 -1.4132 -0.5358
   98MOL   H10921643   0.407   6.641   5.335  1.1855  1.2271 -0.0414
   98MOL   H11021644   0.569   6.567   5.719  0.4149  0.4184 -0.7648
   98MOL   H11121645   0.705   6.383   5.624 -1.6211 -1.0416  1.1378
   98MOL   C11221646   1.004   6.365   5.239  0.1751 -0.1020 -1.0094
   98MOL   C11321647   0.871   6.379   5.285 -0.4946  0.1744 -0.2253
   98MOL   C11421648   0.806   6.269   5.350 -0.1692  0.3466  0.1286
   98MOL   C11521649   0.873   6.145   5.370 -0.0138 -0.2009 -0.4507
   98MOL   C11621650   0.999   6.126   5.312 -0.1755 -0.1253 -0.3141
   98MOL   C11721651   1.066   6.239   5.256 -0.0130 -0.1018 -0.0221
   98MOL   O11821652   1.193   6.224   5.200 -0.5327 -0.0378 -0.3704
   98MOL   H11921653   1.045   6.448   5.183 -1.1437  0.0137 -1.8363
   98MOL   H12021654   0.831   6.478   5.279  1.7135  1.1381  0.3692
   98MOL   H12121655   0.819   6.063   5.417  0.1693  0.4452  0.9241
   98MOL   H12221656   1.054   6.034   5.327  3.6956  1.7686 -2.2124
   98MOL   C12321657   1.418   6.003   5.397 -0.2017  0.1915  0.0674
   98MOL   C12421658   1.326   6.040   5.297 -0.3239 -0.3870 -0.1971
   98MOL   C12521659   1.295   6.178   5.284 -0.4182  0.5735  0.8410
   98MOL   C12621660   1.363   6.271   5.361  0.0913 -0.0492  0.2870
   98MOL   C12721661   1.459   6.241   5.453 -1.1001 -0.2758 -0.1296
   98MOL   C12821662   1.486   6.099   5.475 -0.9278  0.3087  0.4520
   98MOL   O12921663   1.571   6.049   5.569  0.1833 -0.0286 -0.3321
   98MOL   H13021664   1.429   5.898   5.419 -0.2499  0.0786 -0.4402
   98MOL   H13121665   1.282   5.957   5.243 -0.1593 -0.9275  0.4858
   98MOL   H13221666   1.337   6.376   5.351  2.0691  0.5370  1.0891
   98MOL   H13321667   1.501   6.312   5.522 -1.0011  0.8276 -1.2993
   98MOL   C13421668   1.860   6.278   5.622 -0.2621 -0.6450 -0.2897
   98MOL   C13521669   1.772   6.187   5.561  0.3625 -0.2478 -0.2278
   98MOL   C13621670   1.663   6.133   5.634  0.3353 -0.2119 -0.0191
   98MOL   C13721671   1.646   6.167   5.770  0.1469  0.3390  0.0650
   98MOL   C13821672   1.731   6.255   5.831 -0.2784 -0.5596 -0.2550
   98MOL   C13921673   1.836   6.319   5.756 -0.2259  0.9408  0.3904
   98MOL   O14021674   1.926   6.400   5.815  0.3882  0.0757 -0.0666
   98MOL   H14121675   1.944   6.309   5.561 -0.2371  4.8245  2.1683
   98MOL   H14221676   1.780   6.158   5.458  0.5487 -0.2668 -0.2076
   98MOL   H14321677   1.561   6.129   5.825  1.3270 -0.2393  1.5305
   98MOL   H14421678   1.713   6.271   5.936 -1.5944  2.4124 -0.9023
   98MOL   C14521679   2.192   6.284   6.049 -0.3820  0.4710 -0.2233
   98MOL   C14621680   2.066   6.326   5.996  0.2801  0.5509 -0.0078
   98MOL   C14721681   2.047   6.353   5.858  0.4396  0.3697 -0.0411
   98MOL   C14821682   2.155   6.333   5.773 -0.2516  0.5691  0.0305
   98MOL   C14921683   2.277   6.276   5.821 -0.1323 -0.4937 -0.2117
   98MOL   C15021684   2.299   6.260   5.961  0.6224 -1.0333  0.2079
   98MOL   O15121685   2.415   6.210   6.013 -0.4755 -0.5371  0.0176
   98MOL   H15221686   2.206   6.278   6.156 -1.6771  0.0405 -0.0711
   98MOL   H15321687   1.977   6.354   6.051  1.2341  1.5154  1.0949
   98MOL   H15421688   2.136   6.368   5.672  0.5018 -0.0547 -0.3330
   98MOL   H15521689   2.361   6.266   5.754  0.2890  3.0772 -0.3029
   98MOL   C15621690   2.735   6.337   6.158 -0.0806  0.5539 -0.4993
   98MOL   C15721691   2.630   6.244   6.124 -0.4489  0.7525 -0.2265
   98MOL   C15821692   2.504   6.295   6.076 -1.0414 -0.1487  0.0301
   98MOL   C15921693   2.477   6.430   6.082  0.5677 -0.1747  0.3821
   98MOL   C16021694   2.582   6.519   6.121 -0.2792  0.0826 -0.2456
   98MOL   C16121695   2.715   6.472   6.158  0.8542 -0.0701  0.3822
   98MOL   O16221696   2.804   6.568   6.193 -0.3616 -0.7218  0.0247
   98MOL   H16321697   2.827   6.298   6.199 -1.2991 -0.9519  0.8518
   98MOL   H16421698   2.640   6.136   6.129  0.0056  0.8413  1.0611
   98MOL   H16521699   2.377   6.460   6.052 -0.1520  0.0684  2.9511
   98MOL   H16621700   2.556   6.623   6.113  0.8194  0.3840  0.0701
   98MOL   C16721701   2.754   6.623   6.553 -0.2790  0.0284 -0.1719
   98MOL   C16821702   2.733   6.586   6.419  0.6454 -0.3739 -0.2896
   98MOL   C16921703   2.829   6.591   6.324  0.3725 -0.0027  0.8899
   98MOL   C17021704   2.958   6.632   6.359 -0.3398  0.1600  0.4454
   98MOL   C17121705   2.987   6.668   6.491  0.1545  0.1274 -0.0540
   98MOL   C17221706   2.881   6.679   6.592  0.0694  0.5007 -0.1333
   98MOL   O17321707   2.903   6.718   6.725  0.4076  0.2615  0.0116
   98MOL   H17421708   2.682   6.612   6.633 -1.9587  1.9795 -1.3653
   98MOL   H17521709   2.633   6.550   6.400  0.2121  1.6811 -2.1477
   98MOL   H17621710   3.038   6.620   6.287 -1.2804 -1.6833 -0.3262
   98MOL   H17721711   3.084   6.704   6.520 -0.7241  0.5349  2.5001
   98MOL   C17821712   3.015   6.420   6.905 -1.0111  0.2181 -0.0394
   98MOL   C17921713   2.932   6.503   6.826  0.4507 -0.4461  0.4807
   98MOL   C18021714   2.976   6.635   6.798  0.1131 -0.3237  0.3274
   98MOL   C18121715   3.096   6.689   6.849 -0.1139  0.0271  0.2334
   98MOL   C18221716   3.183   6.604   6.916  0.1551  0.6431  0.1083
   98MOL   C18321717   3.145   6.467   6.939  0.2320  0.3630 -0.3702
   98MOL   O18421718   3.238   6.394   7.015 -0.0853  0.7794  0.2211
   98MOL   H18521719   2.985   6.317   6.919  0.0852  0.0975  1.4329
   98MOL   H18621720   2.839   6.470   6.783  0.3400  3.1284 -2.3096
   98MOL   H18721721   3.129   6.785   6.811  2.2815 -0.8590  0.0004
   98MOL   H18821722   3.272   6.641   6.964 -0.7422  0.1481  2.2027
   98MOL   C18921723   3.408   6.130   6.828  0.7556 -0.2452  0.3905
   98MOL   C19021724   3.377   6.258   6.878  0.4936  0.2345  0.2379
   98MOL   C19121725   3.269   6.271   6.967  1.0535 -0.7276 -0.7862
   98MOL   C19221726   3.189   6.160   6.997  0.0379 -0.4358  0.1575
   98MOL   C19321727   3.222   6.032   6.949 -0.2255 -0.3798  0.2792
   98MOL   C19421728   3.328   6.021   6.861  0.2101 -0.3444  0.9520
   98MOL   O19521729   3.358   5.901   6.810  0.0369  0.3717 -0.3754
   98MOL   H19621730   3.488   6.104   6.759 -0.0799 -0.7463 -0.4038
   98MOL   H19721731   3.424   6.349   6.844 -1.2300  1.0809  0.0694
   98MOL   H19821732   3.108   6.165   7.069  0.2616  2.4647  0.2533
   98MOL   H19921733   3.166   5.948   6.990  1.5293 -0.7980  1.8587
   98MOL   C20021734   3.574   5.680   7.013 -1.0814 -0.3347  0.0274
   98MOL   C20121735   3.465   5.757   6.974  0.6398 -0.4494 -0.1635
   98MOL   C20221736   3.473   5.841   6.857 -0.6650 -0.1823  0.6755
   98MOL   C20321737   3.597   5.865   6.787  0.1057  0.3128 -0.3110
   98MOL   C20421738   3.706   5.784   6.823 -0.0548 -0.5411  0.1189
   98MOL   C20521739   3.692   5.691   6.930  0.8698  0.1227  0.2859
   98MOL   O20621740   3.801   5.615   6.946 -0.0462 -0.1054 -0.3885
   98MOL   H20721741   3.578   5.629   7.108 -0.5430 -0.1163  0.1201
   98MOL   H20821742   3.378   5.765   7.038 -0.1523  1.8836 -1.4789
   98MOL   H20921743   3.599   5.916   6.692 -2.9925 -1.3651 -1.3172
   98MOL   H21021744   3.794   5.782   6.760 -2.1159 -1.0273 -2.8549
   98MOL   C21121745   4.063   5.790   7.137  0.3448  0.1658 -0.1172
   98MOL   C21221746   3.988   5.743   7.029 -0.7873 -0.7123  0.2263
   98MOL   C21321747   3.888   5.641   7.048  1.3052  0.7661 -0.2830
   98MOL   C21421748   3.872   5.583   7.177 -0.2472  0.1964  0.6344
   98MOL   C21521749   3.958   5.625   7.287 -0.3366 -0.3660 -0.6765
   98MOL   C21621750   4.053   5.725   7.262 -0.7592 -0.0867 -0.2139
   98MOL   O21721751   4.138   5.764   7.367  0.1513  0.1872 -0.0881
   98MOL   H21821752   4.139   5.865   7.122  1.9217 -0.9974  1.8555
   98MOL   H21921753   4.016   5.788   6.934  2.2210 -0.6733  1.0882
   98MOL   H22021754   3.803   5.504   7.201  1.0361 -1.2243 -0.3179
   98MOL   H22121755   3.944   5.578   7.383 -0.0006  3.0823  1.1552
   98MOL   H22221756   4.139   5.697   7.433  0.1602 -0.6568 -0.9230
   99MOL     C121757   0.601   4.588   7.642 -0.0512  0.7660 -0.2532
   99MOL     C221758   0.701   4.631   7.552  0.2634 -0.3699  0.3038
   99MOL     C321759   0.798   4.544   7.505 -0.5004 -0.2319 -0.0882
   99MOL     C421760   0.806   4.419   7.554 -0.7099  0.1001 -0.3558
   99MOL     C521761   0.721   4.376   7.656 -0.0674  0.3014 -0.1962
   99MOL     C621762   0.616   4.454   7.696  1.2519 -0.1977 -0.0234
   99MOL     O721763   0.514   4.408   7.771 -0.1132 -0.5920  1.0633
   99MOL     H821764   0.533   4.662   7.680 -0.1225  0.5731 -0.0040
   99MOL     H921765   0.705   4.732   7.516  2.1310 -0.0351  1.3821
   99MOL    H1021766   0.884   4.355   7.515 -1.2543 -0.6005 -0.3121
   99MOL    H1121767   0.729   4.270   7.676 -0.9286  0.2560 -0.0797
   99MOL    H1221768   0.864   4.584   7.430  0.9551 -0.5052  1.0155
   99MOL    C1321769   0.430   4.069   7.883  0.2383 -0.0101 -0.2248
   99MOL    C1421770   0.435   4.185   7.808 -0.5371  0.4805 -0.3388
   99MOL    C1521771   0.526   4.292   7.841  0.1144  0.3302  0.5023
   99MOL    C1621772   0.610   4.282   7.952  0.4760 -0.0044  0.0352
   99MOL    C1721773   0.609   4.165   8.030 -0.7880 -0.5471  1.0845
   99MOL    C1821774   0.517   4.058   7.989 -0.0709 -1.1266  0.1012
   99MOL    O1921775   0.515   3.947   8.065  0.0625  0.0365 -0.5291
   99MOL    H2021776   0.363   3.989   7.854 -1.2949  0.4530  1.9156
   99MOL    H2121777   0.380   4.204   7.717 -0.9709 -0.7876 -0.3410
   99MOL    H2221778   0.673   4.366   7.976  0.8219 -0.6592  1.4721
   99MOL    H2321779   0.672   4.131   8.110  0.8364 -3.4098 -1.3050
   99MOL    C2421780   0.625   3.591   8.012  0.7172  0.3299  0.0554
   99MOL    C2521781   0.544   3.709   8.032  0.0018  0.3639  0.7881
   99MOL    C2621782   0.602   3.841   8.045 -0.7786  0.1794 -0.3358
   99MOL    C2721783   0.741   3.856   8.035  0.0651  0.2438 -0.3913
   99MOL    C2821784   0.821   3.739   8.014  0.6892  0.2867 -0.0081
   99MOL    C2921785   0.765   3.609   8.003  0.4681 -0.5236 -0.2826
   99MOL    O3021786   0.848   3.506   7.979 -0.1643 -0.2238  0.6700
   99MOL    H3121787   0.568   3.500   8.011  0.2454  0.6224 -0.0576
   99MOL    H3221788   0.439   3.692   8.054  0.3834 -2.0396  0.8423
   99MOL    H3321789   0.802   3.943   8.052  1.1502 -0.3477 -1.1525
   99MOL    H3421790   0.926   3.762   7.997  1.0623 -0.4535  1.1806
   99MOL    C3521791   1.021   3.418   0.045  0.8220 -0.5535 -0.0340
   99MOL    C3621792   0.918   3.446   8.206 -0.4246  0.5362 -0.8588
   99MOL    C3721793   0.950   3.478   8.072 -0.0202 -0.0084 -0.4738
   99MOL    C3821794   1.081   3.468   8.027  0.1217 -0.2119 -0.4466
   99MOL    C3921795   1.178   3.424   8.116 -0.1827 -0.4059  0.5345
   99MOL    C4021796   1.151   3.401   0.000 -0.0695  0.1642  0.7126
   99MOL    O4121797   1.248   3.375   0.093  0.8603 -0.0826  0.1701
   99MOL    H4221798   0.990   3.399   0.147  0.6352  2.2781  0.4868
   99MOL    H4321799   0.820   3.455   8.251 -0.1181  1.9160 -0.4472
   99MOL    H4421800   1.104   3.498   7.926  0.1660  0.7707 -0.1489
   99MOL    H4521801   1.277   3.401   8.080  0.0092 -0.2505  0.9599
   99MOL    C4621802   1.359   3.699   0.235  0.4656  0.3550  0.3000
   99MOL    C4721803   1.272   3.601   0.189 -0.4670  0.8308  0.2487
   99MOL    C4821804   1.323   3.478   0.144  0.0425 -0.0667  0.2166
   99MOL    C4921805   1.457   3.449   0.151  0.4924 -0.0558 -0.2573
   99MOL    C5021806   1.547   3.539   0.205  0.5208 -0.0179 -0.4943
   99MOL    C5121807   1.496   3.668   0.249  0.0342 -0.6131  0.5479
   99MOL    O5221808   1.583   3.769   0.288  0.6945 -0.0389  0.1224
   99MOL    H5321809   1.315   3.793   0.268 -0.0704  0.3395 -0.3430
   99MOL    H5421810   1.168   3.630   0.196  0.0682  3.0349 -0.6609
   99MOL    H5521811   1.489   3.348   0.129 -2.7110 -0.8616 -1.4195
   99MOL    H5621812   1.653   3.520   0.207  0.7692  1.3084  0.0405
   99MOL    C5721813   1.664   3.965   0.591  0.4214  0.1583 -0.3190
   99MOL    C5821814   1.651   3.927   0.456 -0.2553 -0.9891 -0.4407
   99MOL    C5921815   1.594   3.804   0.423 -0.1899  0.0365  0.2197
   99MOL    C6021816   1.554   3.716   0.530 -0.1713  0.2305  0.5666
   99MOL    C6121817   1.575   3.753   0.667 -0.2881  0.1264  0.4209
   99MOL    C6221818   1.622   3.880   0.695 -0.1166 -0.8434 -0.2223
   99MOL    O6321819   1.618   3.922   0.827  0.6304 -0.2713  0.0776
   99MOL    H6421820   1.706   4.063   0.611  1.5014 -0.4749  0.5930
   99MOL    H6521821   1.691   3.991   0.380 -2.3229  3.3267  1.9017
   99MOL    H6621822   1.526   3.613   0.512  0.1421 -0.0221  1.4906
   99MOL    H6721823   1.532   3.692   0.746 -2.0038 -1.5293 -1.7098
   99MOL    C6821824   1.402   4.216   0.868 -0.3651 -0.2202 -0.2229
   99MOL    C6921825   1.443   4.082   0.854 -0.2745  1.0973 -0.7379
   99MOL    C7021826   1.578   4.046   0.850  0.3387  0.1191  0.4388
   99MOL    C7121827   1.680   4.146   0.874 -0.1831  0.1222 -0.4701
   99MOL    C7221828   1.636   4.282   0.875 -0.3805  1.0373 -0.1590
   99MOL    C7321829   1.499   4.315   0.873  0.9782  0.2492 -0.2953
   99MOL    O7421830   1.463   4.449   0.879 -0.5007 -0.7592 -0.7076
   99MOL    H7521831   1.298   4.240   0.887 -0.6715 -2.9031  1.8148
   99MOL    H7621832   1.377   3.997   0.849  0.3577  0.7453 -4.2995
   99MOL    H7721833   1.783   4.115   0.866 -0.2414  0.2133 -1.6677
   99MOL    H7821834   1.704   4.365   0.869  1.7530 -0.5764  0.9112
   99MOL    C7921835   1.340   4.517   0.537  0.7639 -0.4546  0.5056
   99MOL    C8021836   1.361   4.459   0.656 -1.2474 -0.0484  0.4392
   99MOL    C8121837   1.439   4.519   0.761  0.0645 -0.6670  0.4436
   99MOL    C8221838   1.494   4.649   0.736 -0.3684 -0.5770  0.3461
   99MOL    C8321839   1.467   4.712   0.620 -0.1742  0.2175  0.3587
   99MOL    C8421840   1.395   4.644   0.516  0.4481  0.3143 -0.1451
   99MOL    O8521841   1.371   4.714   0.396 -0.1444  0.3791  0.1741
   99MOL    H8621842   1.276   4.477   0.459  0.2725 -0.4929  0.9293
   99MOL    H8721843   1.323   4.362   0.685 -1.4135  0.1713  0.9694
   99MOL    H8821844   1.546   4.708   0.810  0.5461 -1.0920  0.1196
   99MOL    H8921845   1.506   4.812   0.603 -0.7162  0.6266  1.4670
   99MOL    C9021846   1.682   4.735   0.192  0.1803  0.0443  0.1659
   99MOL    C9121847   1.596   4.752   0.307 -0.0014  0.1555  0.2389
   99MOL    C9221848   1.462   4.696   0.296 -0.4723  0.3532  0.4766
   99MOL    C9321849   1.420   4.616   0.193  0.1000 -0.7851  0.7302
   99MOL    C9421850   1.515   4.590   0.095  0.2701  0.2758 -0.1255
   99MOL    C9521851   1.637   4.658   0.087  0.4514  0.3591 -0.2292
   99MOL    O9621852   1.721   4.630   8.240 -0.1579 -0.3608 -0.0545
   99MOL    H9721853   1.785   4.770   0.193  0.6754 -1.3329  2.8051
   99MOL    H9821854   1.624   4.814   0.391  0.2118  0.1264  0.1890
   99MOL    H9921855   1.323   4.568   0.192  1.3096 -3.3862 -1.4082
   99MOL   H10021856   1.496   4.516   0.019  1.3052 -1.5097  1.3093
   99MOL   C10121857   1.630   4.869   7.974 -0.2133 -0.9304 -0.0608
   99MOL   C10221858   1.662   4.829   8.108  0.3121 -0.1604 -1.1252
   99MOL   C10321859   1.691   4.692   8.124  0.8634  0.1124 -0.2966
   99MOL   C10421860   1.681   4.602   8.019  0.1463  0.3326  0.2791
   99MOL   C10521861   1.654   4.651   7.891 -0.4649 -0.2279 -0.6527
   99MOL   C10621862   1.624   4.784   7.865  0.5642  0.5836  0.1605
   99MOL   O10721863   1.590   4.827   7.740 -0.0324  0.4003 -0.3068
   99MOL   H10821864   1.610   4.974   7.958  0.1916 -1.1230 -1.9392
   99MOL   H10921865   1.667   4.894   8.193 -0.1818  0.3076 -1.4494
   99MOL   H11021866   1.703   4.498   8.036 -0.0328  0.1959 -0.3011
   99MOL   H11121867   1.670   4.592   7.802 -1.2985  0.9908 -1.6464
   99MOL   C11221868   1.874   5.019   7.589  0.5948 -0.0207 -0.2099
   99MOL   C11321869   1.790   4.912   7.635 -0.4615 -0.2686 -0.3678
   99MOL   C11421870   1.663   4.936   7.690 -0.1920  0.0133 -0.2774
   99MOL   C11521871   1.622   5.063   7.711  0.2223  0.1173  0.3116
   99MOL   C11621872   1.708   5.170   7.674  0.2118  0.5422  0.7338
   99MOL   C11721873   1.826   5.149   7.607 -0.2199 -0.3958 -0.1605
   99MOL   O11821874   1.907   5.255   7.575  0.2272 -0.0283 -0.1486
   99MOL   H11921875   1.970   4.993   7.548  0.2650 -1.6709  0.0187
   99MOL   H12021876   1.821   4.808   7.641 -0.1667 -0.2555 -1.5516
   99MOL   H12121877   1.524   5.082   7.752  0.2298 -1.3650  1.0430
   99MOL   H12221878   1.673   5.272   7.683 -0.7338  0.2398  0.4790
   99MOL   C12321879   2.130   5.431   7.823  0.6744 -0.3035  0.1068
   99MOL   C12421880   2.074   5.331   7.739  0.1481 -0.8373 -0.3467
   99MOL   C12521881   1.952   5.349   7.673 -0.0680 -0.4814  0.1417
   99MOL   C12621882   1.885   5.468   7.695  0.0064  0.0543 -0.2049
   99MOL   C12721883   1.927   5.565   7.792  0.4604 -0.3199  0.1330
   99MOL   C12821884   2.059   5.552   7.849 -0.0421 -0.1752  0.4052
   99MOL   O12921885   2.119   5.647   7.931  0.3136  0.8253  0.5439
   99MOL   H13021886   2.224   5.415   7.874  0.2219  0.8014  1.2934
   99MOL   H13121887   2.118   5.232   7.730  0.5498 -0.6151 -0.8645
   99MOL   H13221888   1.802   5.498   7.632 -0.1163  1.3220  0.5451
   99MOL   H13321889   1.879   5.659   7.812  2.2138  1.3532 -3.1331
   99MOL   C13421890   1.917   5.625   8.238 -0.4469  0.6423 -0.3230
   99MOL   C13521891   2.008   5.596   8.135  0.8077  0.0019 -0.0040
   99MOL   C13621892   2.035   5.681   8.032  0.0509 -0.3147  0.4531
   99MOL   C13721893   1.961   5.802   8.020  0.1951  0.1071  0.1006
   99MOL   C13821894   1.871   5.840   8.126 -0.8459 -0.8961 -0.5607
   99MOL   C13921895   1.846   5.747   8.237 -0.1032  0.2768  0.4691
   99MOL   O14021896   1.759   5.780   0.078 -0.2065  0.3008 -0.7996
   99MOL   H14121897   1.898   5.555   0.064 -1.1799 -1.0271 -1.8930
   99MOL   H14221898   2.053   5.498   8.138 -0.9101 -0.8126  0.0883
   99MOL   H14321899   1.979   5.863   7.933 -0.6445 -1.0050 -0.8645
   99MOL   H14421900   1.816   5.930   8.108  1.5777 -0.2566 -5.4738
   99MOL   C14521901   1.403   5.716   8.250  0.2788  0.2544  0.8422
   99MOL   C14621902   1.538   5.698   0.035 -1.0116  0.1625 -0.1053
   99MOL   C14721903   1.630   5.804   0.035 -0.6496  0.0219  0.6708
   99MOL   C14821904   1.583   5.933   8.252  0.8668  0.8304  0.1440
   99MOL   C14921905   1.446   5.949   8.215  0.4166 -0.3672 -0.0944
   99MOL   C15021906   1.356   5.838   8.212 -0.3803  0.1551 -0.5699
   99MOL   O15121907   1.228   5.842   8.165 -0.0824  0.2960  0.2973
   99MOL   H15221908   1.337   5.632   8.238 -1.2306  1.7164 -1.4208
   99MOL   H15321909   1.563   5.596   0.063 -1.7512 -0.7580 -2.7061
   99MOL   H15421910   1.654   6.014   0.008  1.3424  0.4820 -0.3942
   99MOL   H15521911   1.402   6.043   8.184  0.4482 -1.5118 -3.8093
   99MOL   C15621912   0.952   6.081   8.181 -0.6649 -0.9726 -0.0842
   99MOL   C15721913   1.075   6.024   8.140  0.2037  0.3590 -0.7763
   99MOL   C15821914   1.141   5.927   8.222 -0.0940 -0.4076  0.0743
   99MOL   C15921915   1.089   5.897   0.098  0.2321 -0.1386  0.4824
   99MOL   C16021916   0.957   5.946   0.134 -0.0824  0.3720  0.1412
   99MOL   C16121917   0.892   6.038   0.047  0.2126  0.3805  0.4666
   99MOL   O16221918   0.764   6.083   0.080  0.2468 -0.5902 -0.3585
   99MOL   H16321919   0.888   6.138   8.115 -1.3601 -0.6600  0.8617
   99MOL   H16421920   1.103   6.030   8.036 -0.0311  0.9629 -0.8056
   99MOL   H16521921   1.142   5.826   0.161 -2.2090 -1.3746  1.2116
   99MOL   H16621922   0.906   5.908   0.221  1.0969 -1.0670  0.2203
   99MOL   C16721923   0.449   6.129   8.147  0.0758  0.0503 -0.0969
   99MOL   C16821924   0.560   6.152   8.229 -0.0719 -0.1909 -0.3177
   99MOL   C16921925   0.661   6.054   8.250 -0.1988  0.4759 -0.4971
   99MOL   C17021926   0.646   5.931   8.187  0.2035  0.0154  0.3513
   99MOL   C17121927   0.531   5.905   8.108 -0.6405  0.2964  0.4872
   99MOL   C17221928   0.427   6.002   8.091 -0.5272 -1.0662 -0.1812
   99MOL   O17321929   0.323   5.976   8.004  0.4514 -0.2911 -0.1603
   99MOL   H17421930   0.376   6.206   8.128  1.0418  1.1769  0.6419
   99MOL   H17521931   0.558   6.252   0.016  1.9322  0.6178 -2.0826
   99MOL   H17621932   0.730   5.863   8.188 -2.2098 -3.0997 -0.9672
   99MOL   H17721933   0.514   5.808   8.064  2.4505 -0.1602  0.2010
   99MOL   C17821934   0.040   6.203   7.970  0.3131 -0.1237 -0.9210
   99MOL   C17921935   0.126   6.107   8.018 -0.0418 -0.6012  0.1373
   99MOL   C18021936   0.244   6.079   7.947  0.6973 -0.1027  0.7240
   99MOL   C18121937   0.281   6.139   7.822 -0.3643 -0.0101 -0.0557
   99MOL   C18221938   0.188   6.235   7.775 -0.2888  0.8216  0.1797
   99MOL   C18321939   0.075   6.277   7.856 -0.5089 -0.1483 -0.3166
   99MOL   O18421940   8.246   6.377   7.809 -0.1663 -0.1344 -0.8237
   99MOL   H18521941   8.202   6.231   8.019  1.1331 -0.5060  0.8561
   99MOL   H18621942   0.111   6.051   8.110 -1.1414  0.8698  0.8794
   99MOL   H18721943   0.365   6.111   7.761  1.4216  1.3213  1.7077
   99MOL   H18821944   0.207   6.283   7.680 -1.2370  2.2253  0.6893
   99MOL   C18921945   0.033   6.739   7.763  1.3107 -0.2824  0.2004
   99MOL   C19021946   0.032   6.601   7.742  0.2613  0.2729  0.2494
   99MOL   C19121947   0.004   6.509   7.843 -0.9976  0.8269  0.6856
   99MOL   C19221948   8.236   6.552   7.972 -0.5017  0.3065 -0.1918
   99MOL   C19321949   8.231   6.689   7.998 -0.3978  0.3674 -0.4361
   99MOL   C19421950   0.007   6.786   7.896 -0.9385  0.7093  0.1954
   99MOL   O19521951   0.019   6.920   7.934 -0.4332  0.3629  0.0885
   99MOL   H19621952   0.050   6.805   7.679  2.3294 -0.2713  0.4077
   99MOL   H19721953   0.053   6.570   7.641 -1.8842 -1.9389  0.4273
   99MOL   H19821954   8.217   6.489   8.058  0.1112  0.9215  0.4068
   99MOL   H19921955   8.224   6.732   8.097  0.9437 -0.1988 -0.0834
   99MOL   C20021956   0.189   7.144   7.702  0.6463  0.0405 -0.0318
   99MOL   C20121957   0.169   7.027   7.774 -0.6672 -0.3143  0.9463
   99MOL   C20221958   0.044   7.015   7.841 -0.4158 -0.2097 -0.4287
   99MOL   C20321959   8.198   7.113   7.824 -0.2234  0.1591 -0.1207
   99MOL   C20421960   8.225   7.229   7.747  0.3752 -0.1381 -0.1827
   99MOL   C20521961   0.093   7.244   7.685 -0.2275 -0.9962  0.8969
   99MOL   O20621962   0.133   7.355   7.614 -0.0186  0.3530  0.1010
   99MOL   H20721963   0.293   7.147   7.670  0.6142 -0.0402 -0.1420
   99MOL   H20821964   0.248   6.953   7.772 -0.3603  0.0207  0.4505
   99MOL   H20921965   8.106   7.106   7.879  0.2549 -3.8093  0.3260
   99MOL   H21021966   8.157   7.312   7.733  1.8184  0.9447 -0.8629
   99MOL   C21121967   8.194   7.299   7.304  0.5644  0.6776 -0.0427
   99MOL   C21221968   0.016   7.262   7.414  0.6050 -0.1422  0.0211
   99MOL   C21321969   0.079   7.367   7.488 -0.2187  0.0376  0.3138
   99MOL   C21421970   0.083   7.501   7.439 -0.0742  0.1002  0.2217
   99MOL   C21521971   0.039   7.529   7.311 -0.7661 -0.0702 -0.5186
   99MOL   C21621972   8.212   7.430   7.251  0.2127  0.0600  0.5111
   99MOL   O21721973   8.154   7.461   7.130 -0.2114 -0.0046 -0.4412
   99MOL   H21821974   8.143   7.223   7.248  1.0935  1.2658 -1.3333
   99MOL   H21921975   0.002   7.163   7.456  0.4530  1.0048  2.8084
   99MOL   H22021976   0.141   7.567   7.501  0.8342 -0.1932 -0.2967
   99MOL   H22121977   0.048   7.627   7.268 -0.0402 -0.7923 -2.0544
   99MOL   H22221978   8.129   7.380   7.089 -0.6559 -0.7394  1.2234
  100MOL     C121979   7.136   1.016   7.098  1.0248  0.4088  0.4334
  100MOL     C221980   7.272   1.036   7.124  0.0541  0.0053 -0.4083
  100MOL     C321981   7.296   1.100   7.244 -0.4837  0.1927  0.1313
  100MOL     C421982   7.196   1.150   7.330 -0.1967  0.0915 -0.0781
  100MOL     C521983   7.068   1.132   7.295  0.4547 -0.2808 -0.4396
  100MOL     C621984   7.033   1.072   7.170 -0.6554  0.3199 -0.1205
  100MOL     O721985   6.902   1.067   7.127 -0.5701  1.0430 -0.4154
  100MOL     H821986   7.106   0.954   7.015 -0.1702 -0.0860  1.2299
  100MOL     H921987   7.351   0.987   7.068  2.2224  0.3709  2.1924
  100MOL    H1021988   7.212   1.200   7.424 -1.9588  0.6845 -0.0724
  100MOL    H1121989   6.986   1.172   7.354  0.3059  0.1201 -0.9102
  100MOL    H1221990   7.396   1.104   7.284 -0.0501 -0.6186 -0.8743
  100MOL    C1321991   6.867   1.399   6.978 -0.0005  0.4122  0.2455
  100MOL    C1421992   6.902   1.299   7.073 -0.3549 -0.1509 -0.1475
  100MOL    C1521993   6.868   1.166   7.045 -0.2176  0.0000  0.1090
  100MOL    C1621994   6.802   1.134   6.923  0.3223  0.0495 -0.4915
  100MOL    C1721995   6.770   1.231   6.828  0.2006 -0.2226  0.2139
  100MOL    C1821996   6.793   1.368   6.858 -0.1514 -0.3142  0.4787
  100MOL    O1921997   6.759   1.468   6.768  0.2062  0.5995 -0.0325
  100MOL    H2021998   6.902   1.500   6.996  2.9457 -0.5754  0.2965
  100MOL    H2121999   6.947   1.331   7.166  0.5453  1.7589 -1.1914
  100MOL    H2222000   6.779   1.029   6.912 -0.1462 -0.2488  2.8527
  100MOL    H2322001   6.736   1.210   6.728  1.5115 -2.6217  0.2412
  100MOL    C2422002   6.389   1.428   6.776  0.0097  0.3554  0.2067
  100MOL    C2522003   6.522   1.462   6.816 -0.0386 -0.3326 -0.0916
  100MOL    C2622004   6.630   1.449   6.725 -0.2942 -0.4793  0.0449
  100MOL    C2722005   6.610   1.396   6.594 -0.1803  0.1087 -0.0430
  100MOL    C2822006   6.475   1.362   6.556  0.0501  0.4310  0.0109
  100MOL    C2922007   6.368   1.376   6.650  0.2362  0.2106  0.0214
  100MOL    O3022008   6.242   1.321   6.627  0.3865  0.4942  1.1253
  100MOL    H3122009   6.303   1.431   6.840  0.2803  1.0150  0.5465
  100MOL    H3222010   6.539   1.492   6.918  0.1107  0.7609 -0.4306
  100MOL    H3322011   6.694   1.375   6.529  0.0078 -0.9410  0.5313
  100MOL    H3422012   6.442   1.323   6.461  3.0250  1.0264 -1.3453
  100MOL    C3522013   6.016   1.345   6.339  0.0551  0.2717  0.3769
  100MOL    C3622014   6.091   1.284   6.443 -0.2940 -1.1350 -0.2747
  100MOL    C3722015   6.172   1.373   6.522 -0.3706  0.0103 -0.5568
  100MOL    C3822016   6.175   1.514   6.501 -0.9431  0.7893  0.4987
  100MOL    C3922017   6.109   1.573   6.393 -0.1221  1.1356 -0.1191
  100MOL    C4022018   6.026   1.486   6.309  0.1283  0.5037 -0.7654
  100MOL    O4122019   5.959   1.538   6.203 -0.0763  0.0945 -0.5478
  100MOL    H4222020   5.947   1.290   6.276  1.7946 -2.3238  0.6585
  100MOL    H4322021   6.073   1.180   6.466 -0.2758 -0.9897  0.3936
  100MOL    H4422022   6.236   1.572   6.569  3.4937 -0.2177 -2.4340
  100MOL    H4522023   6.125   1.678   6.376 -3.1250  1.8670  1.3986
  100MOL    C4622024   6.130   1.496   5.888 -0.0062 -0.1612  0.0339
  100MOL    C4722025   6.042   1.475   5.997 -0.5456 -0.2170  0.0965
  100MOL    C4822026   6.030   1.575   6.096 -0.0396 -0.2073 -0.6370
  100MOL    C4922027   6.081   1.706   6.072  0.2431  0.9651 -0.0474
  100MOL    C5022028   6.161   1.730   5.958 -0.4951 -0.2932  0.3990
  100MOL    C5122029   6.188   1.624   5.869 -0.0184  0.2852 -0.0443
  100MOL    O5222030   6.275   1.642   5.757  0.0490  0.0008 -0.3704
  100MOL    H5322031   6.138   1.410   5.824 -0.6034 -0.1169 -0.0985
  100MOL    H5422032   5.995   1.380   6.020  1.2368 -1.3576 -0.8755
  100MOL    H5522033   6.057   1.785   6.141 -0.1008  1.7031 -0.9936
  100MOL    H5622034   6.204   1.828   5.943  0.9147 -1.1379 -1.2750
  100MOL    C5722035   6.602   1.786   5.847 -0.3685  0.2935 -0.4689
  100MOL    C5822036   6.493   1.696   5.851 -0.7245  0.3830 -0.3836
  100MOL    C5922037   6.387   1.716   5.764 -0.5412 -0.3430 -0.6541
  100MOL    C6022038   6.390   1.829   5.675 -0.0261  0.3283  0.4114
  100MOL    C6122039   6.491   1.927   5.679 -0.0673 -0.0360 -0.1715
  100MOL    C6222040   6.598   1.908   5.771 -0.1201 -0.2854 -0.0534
  100MOL    O6322041   6.699   2.000   5.777 -0.3342  0.0984 -0.1681
  100MOL    H6422042   6.690   1.755   5.901  0.3977  0.8174 -1.3983
  100MOL    H6522043   6.484   1.614   5.919  3.2065  0.2090  0.0146
  100MOL    H6622044   6.313   1.851   5.603 -1.1138 -1.4254  1.0059
  100MOL    H6722045   6.478   2.014   5.617  0.8715 -0.7576 -1.3967
  100MOL    C6822046   6.992   1.979   6.004  1.3393  0.2343 -1.0707
  100MOL    C6922047   6.904   1.952   5.894 -0.9107 -0.0682 -0.0601
  100MOL    C7022048   6.779   2.020   5.886  0.1518 -0.2686 -0.5986
  100MOL    C7122049   6.738   2.094   5.998  0.3385 -0.2752  0.6122
  100MOL    C7222050   6.820   2.123   6.100 -0.3531  0.3761  0.3135
  100MOL    C7322051   6.954   2.073   6.103  0.5361 -0.1703  0.2468
  100MOL    O7422052   7.041   2.101   6.209  0.0722  0.9131  0.6075
  100MOL    H7522053   7.089   1.932   6.006  0.9034 -0.8901 -3.8572
  100MOL    H7622054   6.942   1.889   5.815  2.6693  1.1059  0.6493
  100MOL    H7722055   6.636   2.128   6.000  0.3685 -0.0111 -1.2800
  100MOL    H7822056   6.792   2.180   6.188  0.9885 -0.5720  1.3982
  100MOL    C7922057   7.388   2.170   6.083  0.1201  0.1294 -0.1438
  100MOL    C8022058   7.278   2.095   6.134  0.0448 -0.7226 -0.1058
  100MOL    C8122059   7.159   2.167   6.168 -0.0008 -0.3125  0.6379
  100MOL    C8222060   7.159   2.307   6.174 -0.2733 -0.2308 -0.4716
  100MOL    C8322061   7.275   2.379   6.134  0.3629  0.1377  0.0503
  100MOL    C8422062   7.390   2.312   6.087 -0.7172  0.8910  0.0510
  100MOL    O8522063   7.488   2.390   6.036  0.0441  0.0711 -0.0862
  100MOL    H8622064   7.466   2.113   6.035  0.3084 -0.8564  1.3063
  100MOL    H8722065   7.290   1.988   6.134  2.9514 -0.4393 -1.2341
  100MOL    H8822066   7.070   2.360   6.205  0.2026 -0.5652  1.5401
  100MOL    H8922067   7.265   2.487   6.129 -2.7077 -0.1612 -1.9654
  100MOL    C9022068   7.639   2.194   5.764 -0.4448 -0.2123  0.4835
  100MOL    C9122069   7.538   2.254   5.849 -0.4992  0.4995  0.1747
  100MOL    C9222070   7.580   2.328   5.958  0.1461 -0.1860  0.0737
  100MOL    C9322071   7.711   2.343   5.989  0.2198  0.0692  0.1141
  100MOL    C9422072   7.813   2.290   5.909 -0.8848  0.5321 -0.2852
  100MOL    C9522073   7.773   2.205   5.799 -0.1357 -0.3686  0.3579
  100MOL    O9622074   7.865   2.150   5.716 -0.3838  0.2835  0.4366
  100MOL    H9722075   7.615   2.132   5.679  1.4257  1.3718 -1.2547
  100MOL    H9822076   7.431   2.250   5.833 -0.2088  0.0872 -1.8979
  100MOL    H9922077   7.737   2.404   6.074 -1.4613  0.0996  0.6302
  100MOL   H10022078   7.913   2.307   5.945 -0.8275  2.8437 -1.4557
  100MOL   C10122079   7.787   2.290   5.379  0.4513  0.2626 -0.1804
  100MOL   C10222080   7.811   2.284   5.516  0.1607  0.6692  0.0382
  100MOL   C10322081   7.846   2.162   5.581 -0.6702  0.0149  0.1278
  100MOL   C10422082   7.845   2.044   5.507  0.8529 -0.3705  0.2195
  100MOL   C10522083   7.811   2.045   5.367 -0.3844 -0.3800 -0.0331
  100MOL   C10622084   7.788   2.170   5.303 -0.3649  0.2632  0.1117
  100MOL   O10722085   7.771   2.169   5.169 -0.3683  0.0369  0.6988
  100MOL   H10822086   7.750   2.380   5.332  0.9347 -0.1495 -1.3631
  100MOL   H10922087   7.803   2.373   5.577  0.3124  2.0227 -1.8541
  100MOL   H11022088   7.870   1.951   5.555  0.1766 -0.2811  0.7535
  100MOL   H11122089   7.814   1.951   5.314  0.8494 -0.9233  0.9837
  100MOL   C11222090   8.012   2.064   4.911 -0.2048 -0.2863  0.1626
  100MOL   C11322091   7.897   2.061   4.989 -0.4403  0.3016 -0.3116
  100MOL   C11422092   7.884   2.163   5.086 -0.4600 -0.7183 -0.0182
  100MOL   C11522093   7.978   2.267   5.094 -0.7087 -0.1135 -0.1437
  100MOL   C11622094   8.089   2.274   5.010 -0.3307 -0.8148  0.4057
  100MOL   C11722095   8.111   2.170   4.919 -0.2922  0.5431  0.5532
  100MOL   O11822096   8.224   2.177   4.842 -0.1085 -0.3843  0.2529
  100MOL   H11922097   8.019   1.983   4.839 -0.9943  1.0912 -1.5137
  100MOL   H12022098   7.830   1.978   4.975  1.6542 -1.8450  1.9876
  100MOL   H12122099   7.974   2.346   5.167  0.2893  0.4527 -0.6902
  100MOL   H12222100   8.155   2.357   5.029 -1.0059 -0.2726  0.4131
  100MOL   C12322101   8.213   2.089   4.484 -0.0556  0.2912 -0.5553
  100MOL   C12422102   8.246   2.085   4.621 -0.0676  0.0177 -0.0577
  100MOL   C12522103   8.196   2.181   4.708  0.8871 -1.2751 -0.3429
  100MOL   C12622104   8.134   2.300   4.659 -0.8324 -0.6482 -0.1172
  100MOL   C12722105   8.095   2.300   4.523 -0.2893  0.4186 -0.4224
  100MOL   C12822106   8.130   2.188   4.440  0.5186  0.5768  0.0542
  100MOL   O12922107   8.106   2.190   4.304 -0.6238  0.1772  0.1170
  100MOL   H13022108   0.009   2.024   4.414  0.5161 -1.5225  1.5163
  100MOL   H13122109   0.051   2.005   4.664  0.6866 -0.2647 -1.5865
  100MOL   H13222110   8.119   2.389   4.719 -1.5283 -0.3227 -0.7725
  100MOL   H13322111   8.051   2.387   4.478 -0.3032  0.9217  0.5533
  100MOL   C13422112   7.827   2.385   4.173  0.0011 -0.5977 -0.0166
  100MOL   C13522113   7.959   2.347   4.201  0.7899 -0.0306 -0.0686
  100MOL   C13622114   7.980   2.222   4.265  0.6114 -0.1467  0.2806
  100MOL   C13722115   7.869   2.139   4.288  0.4234 -0.3491  0.1566
  100MOL   C13822116   7.739   2.168   4.238  0.1571  0.4168 -0.8782
  100MOL   C13922117   7.716   2.300   4.185  0.5079  0.1213  0.1589
  100MOL   O14022118   7.595   2.357   4.145 -0.4540 -0.0238  0.2768
  100MOL   H14122119   7.795   2.482   4.137  0.0529  0.1884  1.9899
  100MOL   H14222120   8.038   2.420   4.212 -0.7478  1.6432  0.0980
  100MOL   H14322121   7.882   2.040   4.330  1.1446 -1.0377 -1.6648
  100MOL   H14422122   7.660   2.096   4.251  0.9753 -0.4111 -0.4449
  100MOL   C14522123   7.426   2.496   3.851 -0.7081  0.4755 -0.5061
  100MOL   C14622124   7.469   2.470   3.981 -0.3795  0.5723  0.4023
  100MOL   C14722125   7.555   2.363   4.014  0.1389 -0.3586  0.0197
  100MOL   C14822126   7.588   2.275   3.907 -0.6846  0.5552  0.2651
  100MOL   C14922127   7.539   2.298   3.775 -0.2318  0.8868  0.6459
  100MOL   C15022128   7.459   2.409   3.750 -0.0920 -0.0053  0.5578
  100MOL   O15122129   7.410   2.437   3.622 -0.6907 -0.3909 -0.5885
  100MOL   H15222130   7.350   2.571   3.836 -2.3781 -1.2476 -0.7137
  100MOL   H15322131   7.448   2.542   4.058 -1.0158 -0.0368  0.8018
  100MOL   H15422132   7.654   2.191   3.921 -0.3297  0.7387 -0.2714
  100MOL   H15522133   7.574   2.227   3.701  0.8329  2.3635 -0.2937
  100MOL   C15622134   7.271   2.134   3.454 -0.0823  0.0239  0.7094
  100MOL   C15722135   7.286   2.241   3.541 -0.4097 -0.6622  0.4049
  100MOL   C15822136   7.391   2.335   3.531  0.5084  0.1220  0.0262
  100MOL   C15922137   7.472   2.330   3.411 -0.3574  0.2471  0.3138
  100MOL   C16022138   7.456   2.222   3.321 -0.1706  0.1132 -0.0829
  100MOL   C16122139   7.353   2.126   3.339  0.2097  0.4805 -0.6292
  100MOL   O16222140   7.328   2.022   3.255  0.3452 -0.5011 -0.3976
  100MOL   H16322141   7.189   2.068   3.476  1.7291 -2.3299  0.6402
  100MOL   H16422142   7.218   2.258   3.623  1.3080  0.4890  1.5960
  100MOL   H16522143   7.545   2.409   3.401 -0.0687  0.4085  3.0930
  100MOL   H16622144   7.526   2.224   3.239 -0.9224 -2.5499 -0.8421
  100MOL   C16722145   7.006   1.828   3.275 -0.0417 -0.3139 -0.1881
  100MOL   C16822146   7.100   1.924   3.245  0.0398 -0.1417  0.0884
  100MOL   C16922147   7.236   1.924   3.291  0.2090 -0.2288  0.2903
  100MOL   C17022148   7.270   1.820   3.384 -0.8026  0.2051 -0.2340
  100MOL   C17122149   7.171   1.727   3.422  0.2084  0.6697 -0.1079
  100MOL   C17222150   7.040   1.729   3.369 -0.1544  0.1608 -0.4099
  100MOL   O17322151   6.949   1.630   3.403  0.6883 -0.1612 -0.5566
  100MOL   H17422152   6.908   1.831   3.229  0.8546 -1.5345 -2.2453
  100MOL   H17522153   7.088   1.992   3.162 -0.1504 -0.3182 -0.0302
  100MOL   H17622154   7.368   1.820   3.430 -0.3649  1.8556 -1.1414
  100MOL   H17722155   7.189   1.654   3.499  0.2860  2.2072  1.3592
  100MOL   C17822156   7.025   1.293   3.547 -0.2231 -0.2121  0.1498
  100MOL   C17922157   6.978   1.426   3.540 -0.6867 -0.0544  0.5391
  100MOL   C18022158   6.992   1.501   3.416  0.1821  0.2937 -0.0090
  100MOL   C18122159   7.036   1.430   3.303 -0.5356 -0.3578  0.1185
  100MOL   C18222160   7.069   1.293   3.311  0.2487 -0.4467 -0.2055
  100MOL   C18322161   7.073   1.227   3.434  0.0530 -0.1515 -0.1721
  100MOL   O18422162   7.109   1.100   3.433  0.0363 -0.4823  1.0459
  100MOL   H18522163   7.012   1.248   3.644  0.8846  1.0748  0.9113
  100MOL   H18622164   6.932   1.475   3.624 -0.4302 -0.7766  1.1091
  100MOL   H18722165   7.039   1.480   3.207  2.6448  0.6321  0.6756
  100MOL   H18822166   7.097   1.249   3.217 -0.8418 -1.1920 -0.1903
  100MOL   C18922167   7.422   0.977   3.270  0.7987 -0.0563 -0.5366
  100MOL   C19022168   7.286   0.999   3.294 -0.6730 -0.0285  1.3522
  100MOL   C19122169   7.241   1.068   3.406 -0.1313  0.0648  0.2628
  100MOL   C19222170   7.343   1.113   3.500 -0.8603 -0.0781  0.5364
  100MOL   C19322171   7.475   1.083   3.470 -0.0199  0.9014  0.0271
  100MOL   C19422172   7.519   1.010   3.360 -0.5857  0.4011  0.1081
  100MOL   O19522173   7.653   0.983   3.336 -0.6905 -0.0650  0.2603
  100MOL   H19622174   7.456   0.931   3.178  2.6091 -0.4913  0.3177
  100MOL   H19722175   7.213   0.961   3.224 -0.5468 -3.0686  2.7767
  100MOL   H19822176   7.326   1.163   3.594  2.3723  2.1256  0.0620
  100MOL   H19922177   7.540   1.119   3.548 -0.1017  0.1517  0.4562
  100MOL   C20022178   7.856   1.021   3.650 -0.5148  0.1014 -0.1625
  100MOL   C20122179   7.799   1.048   3.524 -0.0564  0.7207 -0.3960
  100MOL   C20222180   7.733   0.950   3.449  0.2084 -0.0057  0.0970
  100MOL   C20322181   7.734   0.818   3.495 -0.2118 -0.4174 -0.1635
  100MOL   C20422182   7.803   0.781   3.609  0.2571  0.2961  0.1726
  100MOL   C20522183   7.859   0.884   3.689 -0.2729 -0.0543 -0.0189
  100MOL   O20622184   7.925   0.851   3.805  0.4569  0.3862  0.7723
  100MOL   H20722185   7.898   1.103   3.706  0.1913 -0.2150 -0.2232
  100MOL   H20822186   7.799   1.151   3.493  0.6794  1.0752  0.7475
  100MOL   H20922187   7.677   0.743   3.443  0.0314  0.1104 -1.2002
  100MOL   H21022188   7.796   0.678   3.639  0.8630 -0.2845 -1.6456
  100MOL   C21122189   7.821   0.643   4.097  0.5141  0.6932  0.3792
  100MOL   C21222190   7.900   0.691   3.984 -0.4565 -0.3691  0.0474
  100MOL   C21322191   7.852   0.803   3.908 -0.9419  0.4637 -0.6493
  100MOL   C21422192   7.736   0.866   3.954  0.3982 -0.7335  0.6078
  100MOL   C21522193   7.661   0.824   4.069  0.3777 -0.0554  0.6599
  100MOL   C21622194   7.705   0.711   4.137  0.2271 -0.8815 -0.0979
  100MOL   O21722195   7.642   0.671   4.244  0.2336  0.5900 -0.0146
  100MOL   H21822196   7.854   0.550   4.140 -0.7559  0.0486 -0.0251
  100MOL   H21922197   7.995   0.646   3.958  0.1749 -0.6416  2.6836
  100MOL   H22022198   7.710   0.954   3.896 -2.0095 -2.1799 -0.5559
  100MOL   H22122199   7.575   0.882   4.097  1.1395  0.6035  1.6768
  100MOL   H22222200   7.559   0.712   4.260 -0.8150 -1.8857  1.2831
  101MOL     C122201   7.332   1.887   1.074 -0.0796 -0.5141  0.1777
  101MOL     C222202   7.407   1.788   1.140  0.7937 -0.4055  0.1021
  101MOL     C322203   7.354   1.733   1.261 -0.4348 -0.0429  0.6862
  101MOL     C422204   7.238   1.782   1.317 -0.0356 -0.0331 -0.0469
  101MOL     C522205   7.160   1.881   1.245  0.1357 -0.2908  0.3336
  101MOL     C622206   7.212   1.936   1.125 -0.0589  0.2748  0.0263
  101MOL     O722207   7.128   2.011   1.045  0.0055 -0.4538 -0.5184
  101MOL     H822208   7.364   1.930   0.980 -0.6690  0.1473  0.2745
  101MOL     H922209   7.506   1.764   1.103  0.8188  0.6292 -0.5221
  101MOL    H1022210   7.205   1.735   1.408 -2.4347  1.7998  0.0849
  101MOL    H1122211   7.062   1.921   1.264 -0.6878 -1.3313 -1.5968
  101MOL    H1222212   7.408   1.647   1.300 -2.2596 -1.3863  0.2850
  101MOL    C1322213   6.938   1.848   0.774 -0.3069 -0.1374 -0.1339
  101MOL    C1422214   6.982   1.877   0.904 -0.3214  0.1431 -0.1088
  101MOL    C1522215   7.091   1.965   0.923  0.9205  0.6555 -0.4228
  101MOL    C1622216   7.164   2.013   0.804 -0.3035 -1.2194 -0.2759
  101MOL    C1722217   7.119   1.975   0.674  0.0109 -0.5641 -0.2680
  101MOL    C1822218   6.997   1.901   0.658 -0.0820 -0.1814  0.3057
  101MOL    O1922219   6.939   1.876   0.532 -0.3060 -0.7740 -0.4776
  101MOL    H2022220   6.853   1.782   0.765 -0.1222 -0.2521 -1.1099
  101MOL    H2122221   6.947   1.836   0.998  1.9854  0.5948  0.9945
  101MOL    H2222222   7.256   2.068   0.818 -0.3807 -0.7144 -1.7483
  101MOL    H2322223   7.173   2.005   0.586 -0.7908  2.1670  0.1399
  101MOL    C2422224   6.737   2.187   0.441  0.3677  0.0194  0.6692
  101MOL    C2522225   6.826   2.098   0.510  0.0596 -0.7093  0.4211
  101MOL    C2622226   6.849   1.960   0.467  0.0654 -0.0816  0.3580
  101MOL    C2722227   6.767   1.916   0.364  0.4348 -0.0864  0.1035
  101MOL    C2822228   6.681   2.001   0.294  0.2687 -0.3598 -0.6071
  101MOL    C2922229   6.671   2.132   0.329 -0.7797  0.7977 -0.8779
  101MOL    O3022230   6.591   2.221   0.254 -0.1471 -0.1280 -0.1892
  101MOL    H3122231   6.721   2.286   0.481 -2.5917  0.5102 -1.5847
  101MOL    H3222232   6.870   2.130   0.603  2.0174  0.7547 -0.9498
  101MOL    H3322233   6.779   1.813   0.336  1.1029 -0.4429  1.6531
  101MOL    H3422234   6.630   1.951   0.213  1.1613 -2.2163 -0.0501
  101MOL    C3522235   6.802   2.367   8.244 -0.5086  0.2853 -0.1751
  101MOL    C3622236   6.728   2.277   0.061 -0.5565  0.1567  0.3803
  101MOL    C3722237   6.667   2.315   0.183 -0.0472  0.2904  0.3362
  101MOL    C3822238   6.673   2.452   0.224  0.5272 -0.0346 -0.7430
  101MOL    C3922239   6.745   2.547   0.141  0.6049 -0.4287 -0.0355
  101MOL    C4022240   6.814   2.501   0.031  0.9351  0.4483 -0.4979
  101MOL    O4122241   6.887   2.585   8.204 -0.0033 -0.7716 -0.3019
  101MOL    H4222242   6.853   2.335   8.154  0.6766  1.1650  0.1624
  101MOL    H4322243   6.716   2.172   0.037 -0.5660  0.6274 -1.7094
  101MOL    H4422244   6.604   2.490   0.298 -0.6639  1.2787 -2.4857
  101MOL    H4522245   6.751   2.654   0.155 -2.6125 -0.0980 -0.9697
  101MOL    C4622246   7.243   2.518   0.030  0.0955  0.4961 -0.8688
  101MOL    C4722247   7.120   2.516   8.214 -0.0304  0.5566  0.3098
  101MOL    C4822248   7.016   2.601   0.001  0.1410 -0.6714 -0.0234
  101MOL    C4922249   7.034   2.692   0.105  0.3138 -0.2324  0.0312
  101MOL    C5022250   7.154   2.683   0.177  0.5636 -0.1923  0.1893
  101MOL    C5122251   7.260   2.601   0.139  0.2507  0.2978  0.2991
  101MOL    O5222252   7.381   2.593   0.203 -0.3432  0.2171  0.2166
  101MOL    H5322253   7.319   2.447   0.001  0.6117  0.5433  0.3137
  101MOL    H5422254   7.098   2.449   8.132 -1.6427  0.3667  0.8779
  101MOL    H5522255   6.951   2.745   0.149  0.8262 -0.7323  1.6682
  101MOL    H5622256   7.174   2.745   0.263  2.3783  0.1416 -0.4420
  101MOL    C5722257   7.418   2.767   0.526 -0.2649 -0.9396 -0.3495
  101MOL    C5822258   7.380   2.683   0.423  0.1763 -0.4858 -0.7100
  101MOL    C5922259   7.413   2.693   0.286 -0.3501 -0.3592 -0.0251
  101MOL    C6022260   7.501   2.800   0.255  0.5327  0.3487 -0.4158
  101MOL    C6122261   7.538   2.898   0.354  0.0859 -0.2304 -0.1201
  101MOL    C6222262   7.502   2.874   0.487 -0.1283 -0.1551 -0.5146
  101MOL    O6322263   7.572   2.951   0.583  0.2806 -0.4204 -0.2324
  101MOL    H6422264   7.401   2.757   0.632  2.5847  1.2921  0.3666
  101MOL    H6522265   7.315   2.603   0.455 -5.1505  2.6949 -2.9465
  101MOL    H6622266   7.541   2.811   0.155  0.7679 -0.2329 -0.3833
  101MOL    H6722267   7.615   2.967   0.323 -0.4421  0.3078 -0.2450
  101MOL    C6822268   7.705   2.780   0.885  0.2329 -0.1271 -0.0062
  101MOL    C6922269   7.614   2.842   0.801 -0.2078 -0.6170  0.1905
  101MOL    C7022270   7.658   2.894   0.677 -0.0749 -0.5947 -0.0949
  101MOL    C7122271   7.799   2.893   0.645 -0.7969  0.5209 -0.0119
  101MOL    C7222272   7.890   2.826   0.736  0.8211  0.3052  0.3639
  101MOL    C7322273   7.841   2.771   0.858  0.5824  0.4876 -0.6364
  101MOL    O7422274   7.924   2.714   0.954  0.7209  0.7330  0.1590
  101MOL    H7522275   7.666   2.741   0.978  3.1999 -0.7242  1.0567
  101MOL    H7622276   7.508   2.841   0.823 -0.2582  0.7022  0.0436
  101MOL    H7722277   7.829   2.940   0.552  1.3439 -1.2091 -0.2270
  101MOL    H7822278   7.994   2.831   0.710  0.3632  1.0310 -1.4355
  101MOL    C7922279   7.812   2.407   1.123 -0.3158  0.3290  1.0754
  101MOL    C8022280   7.821   2.537   1.084  0.0893 -0.4031  0.1399
  101MOL    C8122281   7.910   2.581   0.980  0.0002 -0.8623 -0.6976
  101MOL    C8222282   7.994   2.495   0.920  0.3779 -0.4223  0.0015
  101MOL    C8322283   7.982   2.357   0.956  0.3367 -0.5310 -0.6720
  101MOL    C8422284   7.895   2.312   1.054 -0.2885 -0.2127  0.0375
  101MOL    O8522285   7.903   2.181   1.100  0.1480  0.4798 -0.0494
  101MOL    H8622286   7.741   2.363   1.191 -1.7084 -0.2000 -0.6851
  101MOL    H8722287   7.752   2.603   1.134 -0.7882 -1.5117  0.4073
  101MOL    H8822288   8.074   2.535   0.858 -0.1909  0.3942 -0.2166
  101MOL    H8922289   8.058   2.289   0.920 -0.5458 -0.7689 -2.1028
  101MOL    C9022290   7.622   2.012   0.923 -0.0687 -0.3649 -0.4332
  101MOL    C9122291   7.699   2.115   0.981  0.4100  0.3507  0.3645
  101MOL    C9222292   7.826   2.087   1.040  0.0032 -0.2199  0.0025
  101MOL    C9322293   7.866   1.949   1.034 -0.0820 -0.0660  0.4728
  101MOL    C9422294   7.788   1.848   0.974 -0.2703  0.2778 -0.3627
  101MOL    C9522295   7.667   1.880   0.915  0.2676 -0.2488  0.1260
  101MOL    O9622296   7.587   1.788   0.845 -0.4730 -0.2469 -0.5637
  101MOL    H9722297   7.529   2.039   0.874 -1.3427  0.8480  2.4843
  101MOL    H9822298   7.666   2.218   0.990 -1.8807 -0.2784 -0.4904
  101MOL    H9922299   7.963   1.926   1.076  0.8202 -1.6759 -2.3415
  101MOL   H10022300   7.819   1.746   0.953 -1.6155 -0.3841  0.7749
  101MOL   C10122301   7.691   1.860   0.495  0.2451  0.8751 -0.1074
  101MOL   C10222302   7.705   1.821   0.631 -0.0288 -0.1276  0.0458
  101MOL   C10322303   7.586   1.807   0.710 -0.9596  0.8165 -0.5905
  101MOL   C10422304   7.455   1.804   0.644 -0.5721 -0.1180  0.5861
  101MOL   C10522305   7.449   1.843   0.507 -0.0504  0.1447 -0.3892
  101MOL   C10622306   7.571   1.864   0.430  0.7187  0.0615 -0.2333
  101MOL   O10722307   7.562   1.882   0.296 -0.0270  0.1722 -0.6922
  101MOL   H10822308   7.783   1.859   0.439 -0.4221  2.4531 -1.2810
  101MOL   H10922309   7.806   1.834   0.667  0.2244 -1.1976 -0.2476
  101MOL   H11022310   7.364   1.786   0.698  0.5478 -1.5201  2.0854
  101MOL   H11122311   7.351   1.841   0.462 -0.4078  0.8513  0.3423
  101MOL   C11222312   7.790   1.730   0.048 -0.5242 -0.5541  0.0121
  101MOL   C11322313   7.683   1.749   0.139  0.4682 -0.5029 -0.1886
  101MOL   C11422314   7.678   1.865   0.221 -0.8196  0.3839  0.4390
  101MOL   C11522315   7.777   1.957   0.210  0.1693 -0.4297 -0.2669
  101MOL   C11622316   7.887   1.939   0.126 -0.7201  0.9715 -0.2887
  101MOL   C11722317   7.892   1.832   0.036  0.5221  0.0692  0.2090
  101MOL   O11822318   7.992   1.819   8.198 -0.2135  0.3783 -0.1220
  101MOL   H11922319   7.794   1.645   8.236 -1.1144  1.0190 -2.0838
  101MOL   H12022320   7.600   1.681   0.150  0.9184 -1.3602 -1.8387
  101MOL   H12122321   7.777   2.044   0.274 -1.7367  0.8157 -1.9107
  101MOL   H12222322   7.965   2.014   0.125 -0.7894  1.0412 -0.4085
  101MOL   C12322323   7.952   1.985   7.875 -0.5712  0.3405  0.0669
  101MOL   C12422324   7.923   1.912   7.990 -0.0701 -0.2444  0.2786
  101MOL   C12522325   8.011   1.914   8.103 -0.0823 -0.9896  0.4135
  101MOL   C12622326   8.124   1.998   8.101  0.1787  0.7496 -0.2471
  101MOL   C12722327   8.143   2.086   7.994  0.0789 -0.4393 -0.1603
  101MOL   C12822328   8.061   2.080   7.882 -0.4173 -0.8392 -0.6799
  101MOL   O12922329   8.101   2.165   7.782 -0.0520 -0.1598 -0.5330
  101MOL   H13022330   7.885   1.991   7.790 -2.5764  0.1232  1.6091
  101MOL   H13122331   7.856   1.827   7.992  0.9577 -1.0596  0.1744
  101MOL   H13222332   8.195   1.990   8.181  0.6301  0.1985 -0.6954
  101MOL   H13322333   8.221   2.160   8.000 -1.0846  0.6419  2.6247
  101MOL   C13422334   7.873   2.146   7.491 -0.0933  0.6732  0.1268
  101MOL   C13522335   7.922   2.177   7.616  0.4396  0.6709 -0.6035
  101MOL   C13622336   8.052   2.131   7.657  0.0802 -0.2571 -0.3245
  101MOL   C13722337   8.131   2.059   7.572 -0.5741  0.5590  0.4105
  101MOL   C13822338   8.077   2.014   7.444 -0.3045 -0.0641 -0.0699
  101MOL   C13922339   7.950   2.062   7.404  0.0963 -0.5230  0.3700
  101MOL   O14022340   7.891   2.029   7.286 -0.4575 -0.1119 -0.9717
  101MOL   H14122341   7.785   2.187   7.445 -0.4868 -0.2605  0.0376
  101MOL   H14222342   7.860   2.234   7.684 -0.3712  2.6312 -2.9365
  101MOL   H14322343   8.234   2.041   7.598 -0.1767  0.8502 -0.9563
  101MOL   H14422344   8.134   1.947   7.380 -0.3533 -1.7108  1.5628
  101MOL   C14522345   8.131   1.956   7.010  0.5783 -0.3725  0.1971
  101MOL   C14622346   8.051   2.030   7.101  0.2311  0.0921  0.0336
  101MOL   C14722347   7.975   1.963   7.196 -0.6088 -0.7963  0.0239
  101MOL   C14822348   7.979   1.818   7.194 -0.1598  0.3613  0.3099
  101MOL   C14922349   8.071   1.743   7.115 -0.3129 -0.0791 -0.1032
  101MOL   C15022350   8.143   1.818   7.013  0.3136  0.0595  0.3836
  101MOL   O15122351   8.235   1.751   6.930 -0.5162 -0.0307  0.2815
  101MOL   H15222352   8.191   2.011   6.938 -1.6577 -0.8192 -2.0724
  101MOL   H15322353   8.051   2.138   7.093 -0.0014  0.0124 -1.0301
  101MOL   H15422354   7.918   1.761   7.263  1.1718 -1.5972 -0.0938
  101MOL   H15522355   8.084   1.638   7.134  0.4598 -0.3798 -2.2162
  101MOL   C15622356   8.246   1.393   6.832 -1.2230  0.2819 -0.0952
  101MOL   C15722357   8.234   1.534   6.830  0.0894 -0.6628 -0.7885
  101MOL   C15822358   0.005   1.613   6.940  0.0082 -0.1515  0.4879
  101MOL   C15922359   0.052   1.553   7.063 -0.4264  0.4086  0.4311
  101MOL   C16022360   0.062   1.408   7.067 -0.1795  0.2347 -0.6345
  101MOL   C16122361   0.025   1.329   6.956 -0.0188 -0.1632  0.3255
  101MOL   O16222362   0.038   1.191   6.957 -0.2302 -0.0338 -0.1115
  101MOL   H16322363   8.215   1.331   6.749 -0.5862  0.8060 -0.7344
  101MOL   H16422364   8.181   1.577   6.746 -0.9607  0.0738  0.2278
  101MOL   H16522365   0.081   1.612   7.149 -0.7808  0.1241  0.7409
  101MOL   H16622366   0.110   1.357   7.150 -0.5175  0.6558 -0.1845
  101MOL   C16722367   8.053   1.081   7.222  0.3421 -0.1492  0.2018
  101MOL   C16822368   8.104   1.136   7.102  0.1688 -0.2744  0.0961
  101MOL   C16922369   8.240   1.125   7.067  0.3335 -0.0712  0.2078
  101MOL   C17022370   0.072   1.048   7.148  0.1645 -0.4369 -0.0650
  101MOL   C17122371   0.022   0.986   7.262  0.3970  0.6635 -0.2769
  101MOL   C17222372   8.139   1.004   7.298  0.5266 -0.5689  0.3994
  101MOL   O17322373   8.091   0.940   7.411  0.0546  0.6665 -0.4378
  101MOL   H17422374   7.952   1.107   7.250  0.6510 -2.3084  3.5205
  101MOL   H17522375   8.035   1.204   7.053 -0.0823 -0.3146  0.3929
  101MOL   H17622376   0.175   1.036   7.117  0.1753  0.2553 -0.3057
  101MOL   H17722377   0.085   0.934   7.333 -2.0079 -1.0740  0.6580
  101MOL   C17822378   7.838   0.688   7.496 -0.5851  0.3737 -0.5435
  101MOL   C17922379   7.924   0.797   7.502 -0.6004 -0.3010 -0.5419
  101MOL   C18022380   8.002   0.834   7.388  0.0998 -0.7764  0.6453
  101MOL   C18122381   7.986   0.760   7.265  0.7283 -0.2744 -0.4304
  101MOL   C18222382   7.907   0.644   7.265 -0.8325 -0.0385  0.5800
  101MOL   C18322383   7.833   0.606   7.379 -0.2180  0.9635  0.9135
  101MOL   O18422384   7.748   0.502   7.371  0.2317  0.1846  0.2199
  101MOL   H18522385   7.774   0.662   7.579  0.6637  1.8892  0.9446
  101MOL   H18622386   7.935   0.843   7.599 -1.4916  0.3702 -0.7533
  101MOL   H18722387   8.032   0.792   7.173  1.2500 -0.8098 -0.3595
  101MOL   H18822388   7.898   0.586   7.174  0.7366 -0.6602  0.8124
  101MOL   C18922389   7.668   0.205   7.580  0.2363 -0.2967  0.0712
  101MOL   C19022390   7.661   0.302   7.474  0.5245  0.9229  0.1269
  101MOL   C19122391   7.764   0.395   7.453 -0.0544 -0.2395 -0.2374
  101MOL   C19222392   7.890   0.361   7.514  0.0751 -0.4306  0.4343
  101MOL   C19322393   7.908   0.258   7.613 -0.3428 -0.1431 -0.2003
  101MOL   C19422394   7.793   0.182   7.648  0.5987 -0.3524  0.5435
  101MOL   O19522395   7.809   0.086   7.741  0.4577 -0.0298  0.1170
  101MOL   H19622396   7.579   0.146   7.595  0.2854 -0.5143 -0.4673
  101MOL   H19722397   7.566   0.319   7.426  0.1960 -1.5033 -0.1490
  101MOL   H19822398   7.977   0.423   7.497  0.4495 -1.5527 -1.9833
  101MOL   H19922399   8.000   0.242   7.669 -1.1150 -1.3263  0.7697
  101MOL   C20022400   7.854   8.022   7.554  0.4603 -0.7042 -0.1438
  101MOL   C20122401   7.868   8.158   7.593 -1.0515  0.5516  0.7264
  101MOL   C20222402   7.791   8.213   7.694  1.0267  0.1285 -0.1374
  101MOL   C20322403   7.688   8.133   7.751 -0.0448  0.5550  0.5264
  101MOL   C20422404   7.669   7.996   7.712  0.3356  0.3615  1.2373
  101MOL   C20522405   7.759   7.935   7.620 -0.0049 -0.2907 -0.1645
  101MOL   O20622406   7.742   7.805   7.593 -0.3214  0.3902  0.2921
  101MOL   H20722407   7.913   7.985   7.471 -0.2426 -0.5493 -0.7224
  101MOL   H20822408   7.942   8.226   7.553 -1.5430  1.6250  1.6001
  101MOL   H20922409   7.631   8.179   7.831  1.0765  0.9195  1.1342
  101MOL   H21022410   7.594   7.929   7.750  0.4235  0.1049  0.9514
  101MOL   C21122411   7.710   7.755   7.233  0.1392 -0.2816  0.9807
  101MOL   C21222412   7.691   7.810   7.362  0.4926  0.8577  0.1142
  101MOL   C21322413   7.767   7.759   7.468 -0.4701  0.0542 -0.3931
  101MOL   C21422414   7.853   7.651   7.452  0.6113  0.2586 -0.3264
  101MOL   C21522415   7.873   7.602   7.319 -0.4202  0.2889  0.0433
  101MOL   C21622416   7.806   7.658   7.209 -0.5234  0.1364  0.0573
  101MOL   O21722417   7.834   7.611   7.083  0.1982  0.2046 -0.5469
  101MOL   H21822418   7.666   7.800   7.145  1.3793  0.1568  0.5684
  101MOL   H21922419   7.619   7.889   7.374 -0.0620  0.4996 -0.8411
  101MOL   H22022420   7.899   7.605   7.539 -0.4970 -1.3971 -0.5932
  101MOL   H22122421   7.936   7.515   7.304 -1.2603 -0.0742 -1.5057
  101MOL   H22222422   7.902   7.545   7.087  1.2568  1.1691 -2.1817
  102MOL     C122423   5.183   4.408   5.873  0.4284  0.0944  0.4864
  102MOL     C222424   5.130   4.478   5.977 -0.0261 -0.9471 -0.3539
  102MOL     C322425   5.196   4.503   6.099 -0.1742  0.2974 -0.4492
  102MOL     C422426   5.318   4.445   6.117 -0.3678 -0.4180 -0.5367
  102MOL     C522427   5.387   4.380   6.014  0.2348 -0.1231 -0.9779
  102MOL     C622428   5.313   4.357   5.899 -0.2297 -0.3965 -0.0405
  102MOL     O722429   5.368   4.274   5.805 -0.3936 -0.2016 -0.1979
  102MOL     H822430   5.121   4.385   5.788 -1.3175  1.5183  1.3423
  102MOL     H922431   5.034   4.525   5.961  0.9896  1.5748  0.6437
  102MOL    H1022432   5.354   4.441   6.218 -1.0646 -1.2666 -0.3233
  102MOL    H1122433   5.489   4.345   6.022  0.1469 -0.5401 -1.6282
  102MOL    H1222434   5.151   4.563   6.177  0.2967 -0.7527  0.6618
  102MOL    C1322435   5.602   4.423   5.571  0.3866  0.1526 -0.0108
  102MOL    C1422436   5.485   4.392   5.640  0.6590  0.3965 -0.0267
  102MOL    C1522437   5.485   4.306   5.752  0.3205 -0.8982  0.1598
  102MOL    C1622438   5.604   4.255   5.802 -0.4651 -0.0190 -0.6230
  102MOL    C1722439   5.722   4.271   5.733 -0.1876 -0.4218 -0.5690
  102MOL    C1822440   5.722   4.355   5.613  0.3225 -0.2158 -0.6141
  102MOL    O1922441   5.847   4.365   5.543 -0.3562  0.6725  0.1047
  102MOL    H2022442   5.595   4.476   5.477  1.1574 -0.7390 -0.5872
  102MOL    H2122443   5.399   4.441   5.597 -0.5160 -0.4015  1.4111
  102MOL    H2222444   5.603   4.207   5.899 -1.3110  0.7301 -0.2570
  102MOL    H2322445   5.809   4.225   5.778  0.8633  0.2975 -1.8117
  102MOL    C2422446   6.158   4.154   5.562  0.0329 -0.9306 -0.1040
  102MOL    C2522447   6.064   4.261   5.582  0.4762 -0.0681 -0.2152
  102MOL    C2622448   5.933   4.258   5.533 -0.3294  0.7336 -0.6865
  102MOL    C2722449   5.890   4.143   5.463 -0.1780  0.3979 -0.1072
  102MOL    C2822450   5.985   4.045   5.432  0.5719 -0.7299  1.0158
  102MOL    C2922451   6.116   4.051   5.484 -0.2406  0.7572  0.5166
  102MOL    O3022452   6.205   3.952   5.447 -0.5657  0.2057  0.0476
  102MOL    H3122453   6.260   4.155   5.598  0.1490  0.0272 -0.4480
  102MOL    H3222454   6.098   4.350   5.633  0.9844  0.4796 -1.5041
  102MOL    H3322455   5.790   4.138   5.423  0.2801 -2.1500 -0.9983
  102MOL    H3422456   5.956   3.970   5.360 -0.4272  0.2363  0.3908
  102MOL    C3522457   6.526   3.987   5.291  0.3007  0.5617  0.1690
  102MOL    C3622458   6.427   3.956   5.385 -1.2134  0.3078  0.6763
  102MOL    C3722459   6.297   3.974   5.351  0.6726  0.3131  0.4720
  102MOL    C3822460   6.256   4.025   5.225  0.2848 -0.3599  0.4892
  102MOL    C3922461   6.359   4.045   5.132 -0.0970  0.0323 -0.3855
  102MOL    C4022462   6.496   4.032   5.165 -0.4712 -0.2404  0.2430
  102MOL    O4122463   6.593   4.053   5.068 -0.0971  0.0951  0.4416
  102MOL    H4222464   6.628   3.964   5.318  1.1569  0.7134 -2.7769
  102MOL    H4322465   6.455   3.905   5.476 -0.7764 -2.4731 -0.9315
  102MOL    H4422466   6.155   4.038   5.188  0.5217 -3.2181 -1.3661
  102MOL    H4522467   6.330   4.091   5.039  0.6479  0.8823 -0.1962
  102MOL    C4622468   6.655   3.935   4.731 -0.7200  0.4724 -0.6674
  102MOL    C4722469   6.632   4.016   4.843  0.0207 -0.1833  0.1495
  102MOL    C4822470   6.608   3.963   4.969  0.1198  0.7968  0.2864
  102MOL    C4922471   6.607   3.820   4.986  0.4864 -0.0191 -0.2676
  102MOL    C5022472   6.628   3.739   4.874 -0.2542  0.1640  0.1245
  102MOL    C5122473   6.647   3.794   4.743 -0.4953 -0.0845  0.3599
  102MOL    O5222474   6.667   3.711   4.639  0.4084 -0.7031 -0.3625
  102MOL    H5322475   6.692   3.981   4.641  0.1663 -0.5384 -0.8253
  102MOL    H5422476   6.624   4.123   4.836 -0.1563 -0.1149  1.3039
  102MOL    H5522477   6.595   3.768   5.080  0.2889 -0.8088 -0.7264
  102MOL    H5622478   6.629   3.631   4.884  0.1588  0.2317  0.8384
  102MOL    C5722479   6.807   3.783   4.303 -0.4116  0.9684  0.5087
  102MOL    C5822480   6.708   3.768   4.405 -0.3599 -0.5354 -0.2704
  102MOL    C5922481   6.750   3.741   4.537  1.0125 -0.0980 -0.6640
  102MOL    C6022482   6.886   3.736   4.566 -0.6946 -0.3850 -0.1580
  102MOL    C6122483   6.985   3.758   4.465  0.4885  0.3927 -0.2744
  102MOL    C6222484   6.945   3.777   4.336 -0.9148 -0.1169  0.0274
  102MOL    O6322485   7.041   3.791   4.240 -0.3885 -0.1589 -0.3556
  102MOL    H6422486   6.776   3.784   4.199 -0.6016 -0.3428  0.5418
  102MOL    H6522487   6.600   3.776   4.402 -0.3209  0.1468  0.0844
  102MOL    H6622488   6.926   3.720   4.665 -1.2548  1.3239  0.3677
  102MOL    H6722489   7.089   3.751   4.496  0.7885  1.1546 -1.0729
  102MOL    C6822490   7.058   3.603   3.916 -0.7421  0.0047  0.6366
  102MOL    C6922491   7.034   3.704   4.012  0.3032 -0.3392  0.5469
  102MOL    C7022492   7.058   3.682   4.154  0.7627 -0.0421  0.0642
  102MOL    C7122493   7.106   3.553   4.189 -0.1652  0.5052 -0.1265
  102MOL    C7222494   7.129   3.451   4.095 -0.1937 -0.1891 -0.4455
  102MOL    C7322495   7.111   3.482   3.953 -0.2415 -0.1679 -0.5445
  102MOL    O7422496   7.137   3.389   3.862  0.6945  0.2622  0.1691
  102MOL    H7522497   7.034   3.621   3.812 -2.5265 -0.8182  0.8885
  102MOL    H7622498   7.007   3.803   3.979  0.7026  0.1660  1.7177
  102MOL    H7722499   7.128   3.525   4.291  0.9558  2.0107  0.0489
  102MOL    H7822500   7.180   3.365   4.136  0.6034  1.1139  1.3527
  102MOL    C7922501   7.418   3.455   3.624  0.0803 -0.2931  0.4633
  102MOL    C8022502   7.290   3.449   3.674 -0.5974  0.1753 -0.4278
  102MOL    C8122503   7.261   3.392   3.802 -0.4423  0.8310  0.3773
  102MOL    C8222504   7.363   3.334   3.879  0.2997 -0.5581 -0.3723
  102MOL    C8322505   7.492   3.335   3.822 -0.0678  0.3768  0.4871
  102MOL    C8422506   7.518   3.412   3.703 -0.2067  0.2579  0.3994
  102MOL    O8522507   7.647   3.413   3.657 -0.0777 -0.5114  0.1760
  102MOL    H8622508   7.447   3.512   3.537  1.1339 -0.9557  0.3774
  102MOL    H8722509   7.203   3.488   3.623 -0.0171  0.2545 -1.3678
  102MOL    H8822510   7.340   3.280   3.970  0.4026 -1.7138 -1.0212
  102MOL    H8922511   7.572   3.272   3.860  0.0026  0.6229  0.7494
  102MOL    C9022512   7.789   3.136   3.464  0.9366 -0.1566  0.5825
  102MOL    C9122513   7.743   3.212   3.571  0.3829  0.0967 -0.3899
  102MOL    C9222514   7.681   3.338   3.544  0.1841  0.5611 -0.4886
  102MOL    C9322515   7.655   3.383   3.416  0.1500 -0.3454 -0.4096
  102MOL    C9422516   7.705   3.310   3.309 -0.5751  0.1119 -0.7200
  102MOL    C9522517   7.772   3.188   3.331 -0.3106 -0.2074  0.1969
  102MOL    O9622518   7.810   3.122   3.219  0.1143 -0.2707 -0.3692
  102MOL    H9722519   7.830   3.036   3.464 -0.0577 -0.5998 -1.5695
  102MOL    H9822520   7.758   3.186   3.675 -0.0259  1.3034 -0.0209
  102MOL    H9922521   7.608   3.479   3.403  0.0955 -0.4903 -1.3800
  102MOL   H10022522   7.679   3.340   3.209 -3.0900 -0.6356 -0.3254
  102MOL   C10122523   7.667   2.876   2.986 -0.7591 -0.7636  0.2506
  102MOL   C10222524   7.749   2.980   3.038  0.0980 -0.3072  0.0185
  102MOL   C10322525   7.723   3.027   3.168 -0.8383  0.1695  0.5207
  102MOL   C10422526   7.631   2.956   3.250  0.3590  0.1095  0.3983
  102MOL   C10522527   7.545   2.859   3.194 -0.3194 -0.1090  0.3437
  102MOL   C10622528   7.561   2.821   3.059 -0.4349 -0.1538  0.0914
  102MOL   O10722529   7.474   2.737   2.994 -0.0311 -0.3087 -0.6494
  102MOL   H10822530   7.676   2.843   2.884 -0.0107 -1.3945  0.5136
  102MOL   H10922531   7.825   3.018   2.971 -1.6351  2.0958 -0.6615
  102MOL   H11022532   7.616   2.981   3.354  2.0277 -2.0506  1.1796
  102MOL   H11122533   7.467   2.807   3.247 -1.2550  0.1232 -0.7959
  102MOL   C11222534   7.184   2.960   2.896 -0.4651  0.1204  0.8096
  102MOL   C11322535   7.305   2.918   2.959  0.8612 -0.5940 -0.1957
  102MOL   C11422536   7.367   2.790   2.925  0.1199 -0.0473 -0.5008
  102MOL   C11522537   7.302   2.716   2.824 -0.6853  0.4029 -0.4431
  102MOL   C11622538   7.181   2.762   2.765 -0.0866 -0.6928  0.9275
  102MOL   C11722539   7.121   2.882   2.801 -0.5579  0.9332 -0.8028
  102MOL   O11822540   6.999   2.929   2.756 -0.3567 -0.2662 -0.2328
  102MOL   H11922541   7.144   3.058   2.914 -0.0407  0.4665 -0.0670
  102MOL   H12022542   7.336   2.989   3.034 -0.9455 -0.3012  0.3009
  102MOL   H12122543   7.339   2.618   2.801  0.3427  0.8124 -0.5475
  102MOL   H12222544   7.126   2.695   2.701  0.6203 -0.2186 -0.2105
  102MOL   C12322545   6.865   3.201   2.543  0.2171 -0.1526 -0.8035
  102MOL   C12422546   6.866   3.092   2.636 -0.8350 -0.0396  0.4091
  102MOL   C12522547   6.992   3.047   2.678  0.2062  0.3800 -0.3083
  102MOL   C12622548   7.110   3.115   2.637 -0.0508  0.0674 -0.2707
  102MOL   C12722549   7.104   3.224   2.547  0.3842 -0.0102  0.0388
  102MOL   C12822550   6.980   3.267   2.498 -0.4697 -0.5669  0.7505
  102MOL   O12922551   6.972   3.367   2.403 -0.4271  0.2278 -0.4536
  102MOL   H13022552   6.773   3.247   2.510  0.1639 -0.6284 -1.3370
  102MOL   H13122553   6.787   3.030   2.673 -1.2402 -1.6830 -3.0895
  102MOL   H13222554   7.207   3.084   2.675 -0.1215 -2.0475 -1.7149
  102MOL   H13322555   7.199   3.274   2.528  0.4651 -0.1412  0.1020
  102MOL   C13422556   6.628   3.428   2.270 -0.0655 -0.2221 -0.2677
  102MOL   C13522557   6.750   3.430   2.344 -0.4474 -0.3143 -0.3612
  102MOL   C13622558   6.868   3.362   2.314 -0.0838 -0.7895  0.1647
  102MOL   C13722559   6.854   3.275   2.205 -0.1045 -0.6446 -0.4739
  102MOL   C13822560   6.737   3.268   2.121  0.7944 -0.0820 -0.3114
  102MOL   C13922561   6.626   3.340   2.162  0.5295 -0.6318 -0.5165
  102MOL   O14022562   6.508   3.319   2.091  0.0748  0.5384 -0.5915
  102MOL   H14122563   6.543   3.479   2.312  0.7306  1.0735 -0.2166
  102MOL   H14222564   6.738   3.488   2.435 -2.2703 -0.1721 -0.6610
  102MOL   H14322565   6.942   3.216   2.181  1.4554  0.2214  2.8686
  102MOL   H14422566   6.736   3.212   2.029  2.7300 -0.1494 -0.3170
  102MOL   C14522567   6.274   3.054   2.180  0.4576  0.0531 -0.5045
  102MOL   C14622568   6.344   3.176   2.185 -0.4676 -0.0576  0.2250
  102MOL   C14722569   6.445   3.199   2.092 -0.1199  0.3655  0.2987
  102MOL   C14822570   6.459   3.116   1.978 -0.3469  0.2356 -0.1580
  102MOL   C14922571   6.372   3.004   1.969 -0.0271 -0.0212 -0.0956
  102MOL   C15022572   6.290   2.967   2.076 -0.4150  0.4028 -0.2104
  102MOL   O15122573   6.215   2.852   2.076 -0.1881  0.1979  0.3066
  102MOL   H15222574   6.206   3.048   2.264 -1.1286 -0.3071 -1.7972
  102MOL   H15322575   6.333   3.234   2.276  0.2575 -1.4106  1.1904
  102MOL   H15422576   6.525   3.153   1.900 -1.0999  2.9773  0.4295
  102MOL   H15522577   6.383   2.942   1.882 -0.2276 -2.3969  1.5272
  102MOL   C15622578   6.232   2.529   2.257 -0.4944  0.0443  0.2294
  102MOL   C15722579   6.186   2.648   2.191  1.0193 -1.1600  0.2915
  102MOL   C15822580   6.274   2.735   2.122  0.0768  0.1412  0.1886
  102MOL   C15922581   6.409   2.694   2.103  0.3081  0.2306  0.6992
  102MOL   C16022582   6.453   2.571   2.162 -1.4881 -0.1319  0.3295
  102MOL   C16122583   6.369   2.491   2.247 -0.3985 -0.2664  0.4731
  102MOL   O16222584   6.402   2.372   2.301 -0.6446  0.1263 -0.1695
  102MOL   H16322585   6.157   2.471   2.309 -0.7270  0.3829  0.2736
  102MOL   H16422586   6.082   2.673   2.204  0.8933 -0.1167 -2.4146
  102MOL   H16522587   6.475   2.744   2.033 -0.3633  0.1433  0.0010
  102MOL   H16622588   6.554   2.536   2.143 -1.4712 -0.1284  0.4122
  102MOL   C16722589   6.678   2.293   2.520  0.1281  0.2835 -0.0251
  102MOL   C16822590   6.583   2.283   2.417 -0.1463 -0.6026  0.1057
  102MOL   C16922591   6.483   2.379   2.414  0.5313  0.2934  0.2814
  102MOL   C17022592   6.453   2.470   2.524 -0.3794  0.2016  0.0580
  102MOL   C17122593   6.549   2.473   2.624 -0.6071 -0.2210  0.1058
  102MOL   C17222594   6.664   2.387   2.627  0.0866  0.8363  0.0278
  102MOL   O17322595   6.761   2.384   2.724  0.4148  0.1069  0.4995
  102MOL   H17422596   6.766   2.233   2.503  0.8180  0.8563  1.4297
  102MOL   H17522597   6.603   2.213   2.338 -0.7540  0.3723 -0.9328
  102MOL   H17622598   6.364   2.531   2.527 -1.8983 -1.8883 -0.8382
  102MOL   H17722599   6.542   2.546   2.704  1.8942  0.4881 -0.2958
  102MOL   C17822600   6.892   2.659   2.948  0.2135 -0.3379 -0.2849
  102MOL   C17922601   6.873   2.568   2.835  0.2810 -0.7667 -0.3615
  102MOL   C18022602   6.770   2.481   2.823  0.3288  0.4967 -0.3933
  102MOL   C18122603   6.672   2.477   2.925 -0.4326  0.0177  0.2782
  102MOL   C18222604   6.686   2.566   3.037  0.2709  0.0933  0.2197
  102MOL   C18322605   6.789   2.661   3.045  0.5674 -0.2081 -0.5083
  102MOL   O18422606   6.795   2.740   3.159 -0.6317 -0.5547 -0.7718
  102MOL   H18522607   6.974   2.729   2.951 -0.3101  0.3190 -1.1471
  102MOL   H18622608   6.948   2.562   2.758  0.3220 -1.4891 -0.2671
  102MOL   H18722609   6.599   2.398   2.920 -0.3831 -0.1170  1.4624
  102MOL   H18822610   6.624   2.571   3.125  1.3684  0.2773  1.0027
  102MOL   C18922611   6.849   3.089   3.242 -0.4376 -0.7956 -0.2093
  102MOL   C19022612   6.830   2.956   3.257  0.2425  0.4328  0.4236
  102MOL   C19122613   6.800   2.879   3.141  0.6695  0.3769 -0.3193
  102MOL   C19222614   6.762   2.945   3.025 -0.9185 -0.0112  0.7448
  102MOL   C19322615   6.770   3.079   3.016 -0.4534 -0.7305 -0.3576
  102MOL   C19422616   6.822   3.157   3.124 -0.3387 -0.0708 -0.8326
  102MOL   O19522617   6.836   3.297   3.119  0.6272  0.2680 -0.2032
  102MOL   H19622618   6.896   3.151   3.318  1.5874 -3.1348  0.5335
  102MOL   H19722619   6.842   2.902   3.350 -1.9218  0.3401  0.6929
  102MOL   H19822620   6.722   2.893   2.939  0.4695 -2.1528  1.3406
  102MOL   H19922621   6.759   3.128   2.920  2.3882  0.7442  0.0228
  102MOL   C20022622   6.893   3.494   2.816  0.5377 -0.3138  0.8299
  102MOL   C20122623   6.837   3.442   2.936 -0.9074 -0.3520 -0.5259
  102MOL   C20222624   6.903   3.345   3.011  0.2474 -0.4895 -0.4179
  102MOL   C20322625   7.029   3.299   2.971 -0.5464  0.5243  0.0369
  102MOL   C20422626   7.088   3.356   2.860 -0.0783  0.4003  1.0035
  102MOL   C20522627   7.025   3.459   2.782 -0.0416  0.3869 -0.4490
  102MOL   O20622628   7.096   3.505   2.676 -0.1310 -1.2144 -0.1831
  102MOL   H20722629   6.847   3.562   2.746  2.8135 -0.1608 -0.5672
  102MOL   H20822630   6.740   3.477   2.969  0.0936  2.8694 -0.8817
  102MOL   H20922631   7.091   3.238   3.034 -1.0968 -1.1571 -1.0297
  102MOL   H21022632   7.190   3.327   2.839 -0.6355 -0.1231 -1.1074
  102MOL   C21122633   7.165   3.862   2.742  0.0501 -0.8443 -0.6222
  102MOL   C21222634   7.149   3.719   2.765  0.0110 -0.2203  0.2806
  102MOL   C21322635   7.108   3.643   2.657 -0.3898 -0.0792 -0.0016
  102MOL   C21422636   7.071   3.699   2.533 -0.4213 -0.2649  0.4174
  102MOL   C21522637   7.087   3.836   2.512 -0.0784 -0.1536 -0.3124
  102MOL   C21622638   7.131   3.915   2.617  0.3279  0.2590 -0.5028
  102MOL   O21722639   7.133   4.044   2.592 -0.0624 -0.5889 -0.3719
  102MOL   H21822640   7.205   3.927   2.817  0.6185 -1.6369 -0.2331
  102MOL   H21922641   7.178   3.677   2.861  0.6634 -0.6628 -0.1065
  102MOL   H22022642   7.030   3.634   2.457 -0.2608  0.8919 -0.6644
  102MOL   H22122643   7.049   3.885   2.423 -0.4747 -2.7605 -1.6402
  102MOL   H22222644   7.104   4.065   2.505 -0.2209 -0.7988 -0.3693
  103MOL     C122645   3.749   6.437   2.390 -0.2630  0.2673  0.5510
  103MOL     C222646   3.704   6.569   2.407 -0.2560  0.4495 -0.9583
  103MOL     C322647   3.766   6.655   2.501  0.0748  0.4332  0.2450
  103MOL     C422648   3.874   6.607   2.577 -0.1840  0.2068  0.0757
  103MOL     C522649   3.927   6.481   2.555 -0.4368  0.4037  0.2116
  103MOL     C622650   3.866   6.396   2.459 -0.1379 -0.6876  0.3656
  103MOL     O722651   3.924   6.277   2.425 -0.0479  0.3671 -0.1106
  103MOL     H822652   3.709   6.368   2.317  0.9592 -0.9398  1.0252
  103MOL     H922653   3.621   6.599   2.344  1.4122 -0.0209 -3.4619
  103MOL    H1022654   3.928   6.671   2.646  0.9358 -1.6563  0.9904
  103MOL    H1122655   4.010   6.436   2.607 -0.9006 -2.0729 -1.0964
  103MOL    H1222656   3.740   6.759   2.501  2.1119  0.9683  0.7764
  103MOL    C1322657   3.985   6.026   2.692 -0.0191 -0.3831 -0.2945
  103MOL    C1422658   4.003   6.136   2.604  0.8058 -0.0297 -0.4544
  103MOL    C1522659   3.901   6.174   2.514  0.3406  0.3486 -0.4022
  103MOL    C1622660   3.782   6.101   2.506  0.2935  0.8461 -0.7694
  103MOL    C1722661   3.760   5.988   2.592 -0.3247 -0.4751 -0.3906
  103MOL    C1822662   3.860   5.955   2.686  0.1111 -0.1593 -0.5842
  103MOL    O1922663   3.834   5.850   2.768  0.1172 -0.4449  0.0327
  103MOL    H2022664   4.059   6.018   2.769 -0.3646  0.7413  0.1735
  103MOL    H2122665   4.095   6.191   2.617 -0.5672  1.8607  1.4251
  103MOL    H2222666   3.719   6.123   2.422 -0.3051 -0.0149 -0.5612
  103MOL    H2322667   3.665   5.938   2.580  0.6064 -2.0694 -1.4009
  103MOL    C2422668   4.053   5.772   3.047  0.2220 -0.6292  0.1677
  103MOL    C2522669   4.002   5.776   2.915 -0.4349 -0.4913 -0.3293
  103MOL    C2622670   3.884   5.847   2.894 -0.4969 -0.3271 -0.0233
  103MOL    C2722671   3.810   5.899   2.997  0.2191  0.2180 -0.4651
  103MOL    C2822672   3.859   5.895   3.129  0.3236  0.2825 -0.1609
  103MOL    C2922673   3.979   5.834   3.156  0.1308  0.7007  0.7089
  103MOL    O3022674   4.035   5.849   3.278 -0.2682  0.3627 -0.0064
  103MOL    H3122675   4.148   5.727   3.070 -0.6256 -1.8567  1.2934
  103MOL    H3222676   4.059   5.740   2.830 -1.8846  1.6925 -2.2956
  103MOL    H3322677   3.712   5.943   2.984  0.6568  2.0508  2.0931
  103MOL    H3422678   3.811   5.948   3.210 -0.1832 -0.6715  0.1743
  103MOL    C3522679   3.968   5.636   3.571 -0.4306 -1.0749 -0.3283
  103MOL    C3622680   3.961   5.745   3.479 -0.3356  0.8028  0.2509
  103MOL    C3722681   4.046   5.740   3.365 -0.5661  0.2051 -0.2793
  103MOL    C3822682   4.143   5.636   3.357  0.0143 -0.6847  0.8143
  103MOL    C3922683   4.153   5.531   3.452 -0.2839  0.5087  0.0256
  103MOL    C4022684   4.062   5.533   3.558 -0.0267  0.2598  0.7938
  103MOL    O4122685   4.078   5.434   3.648 -0.7728  0.3184 -0.0449
  103MOL    H4222686   3.902   5.622   3.656 -1.7100 -0.7274 -1.2480
  103MOL    H4322687   3.888   5.822   3.499 -2.9765 -1.1546 -1.4074
  103MOL    H4422688   4.210   5.628   3.273 -1.3895 -0.9443 -0.2965
  103MOL    H4522689   4.225   5.452   3.448 -0.2511  0.4882  1.0553
  103MOL    C4622690   3.824   5.186   3.773 -0.3521 -0.9674  0.2080
  103MOL    C4722691   3.912   5.298   3.771 -0.6875  0.2360 -0.0642
  103MOL    C4822692   3.990   5.329   3.654 -0.1118  0.4669 -0.1137
  103MOL    C4922693   3.974   5.253   3.539  0.0981 -0.4682  0.2141
  103MOL    C5022694   3.878   5.150   3.534  0.1027 -0.3142  0.0678
  103MOL    C5122695   3.798   5.116   3.650 -0.2067  0.8261  0.7699
  103MOL    O5222696   3.711   5.010   3.641 -0.4590 -0.7176 -0.0465
  103MOL    H5322697   3.768   5.165   3.864 -0.4695  0.7542  0.5518
  103MOL    H5422698   3.919   5.367   3.855  0.2624 -0.9283  0.8268
  103MOL    H5522699   4.034   5.251   3.449 -3.0619 -0.1869 -1.9781
  103MOL    H5622700   3.860   5.094   3.444 -1.0773 -1.0701  0.7516
  103MOL    C5722701   3.365   5.176   3.657  0.1821  0.9681  0.7751
  103MOL    C5822702   3.499   5.126   3.699  0.4864  0.5823 -0.4164
  103MOL    C5922703   3.580   5.051   3.611 -1.1149  0.2725  0.0301
  103MOL    C6022704   3.524   5.018   3.487  0.0946  0.7382 -0.3030
  103MOL    C6122705   3.394   5.049   3.449  0.2512 -0.0710  0.7095
  103MOL    C6222706   3.313   5.131   3.529 -0.6880  1.1406 -0.4454
  103MOL    O6322707   3.194   5.168   3.478  0.1921  0.9552 -0.0190
  103MOL    H6422708   3.299   5.234   3.720  1.8418  1.0840  2.4442
  103MOL    H6522709   3.543   5.149   3.795 -2.8963 -0.5463  1.5088
  103MOL    H6622710   3.580   4.962   3.414 -0.8022 -0.2496 -0.2454
  103MOL    H6722711   3.361   5.019   3.351 -0.4095 -3.1969  1.8200
  103MOL    C6822712   2.911   4.941   3.583  0.0631  0.1200  0.6753
  103MOL    C6922713   3.027   5.024   3.590  0.2510  0.2912 -0.4214
  103MOL    C7022714   3.096   5.070   3.476  0.7564  0.0437  0.1147
  103MOL    C7122715   3.049   5.026   3.351 -0.0401 -0.1114 -0.0826
  103MOL    C7222716   2.929   4.949   3.337 -0.4067 -0.1986 -0.0019
  103MOL    C7322717   2.855   4.910   3.457 -0.1127 -0.0976  0.5565
  103MOL    O7422718   2.740   4.832   3.452  0.4343  0.0743 -0.9965
  103MOL    H7522719   2.855   4.908   3.670  1.1728 -0.5909  1.1296
  103MOL    H7622720   3.055   5.055   3.690  0.6874 -1.2921 -0.0529
  103MOL    H7722721   3.112   5.052   3.268 -0.1130  0.2717 -0.0188
  103MOL    H7822722   2.891   4.927   3.238  1.0013 -0.6915 -0.4428
  103MOL    C7922723   2.461   4.907   3.682 -0.5664 -0.8392  0.0587
  103MOL    C8022724   2.584   4.867   3.633  0.7437  0.7363  0.0813
  103MOL    C8122725   2.620   4.889   3.495 -0.6659  0.1552 -1.3121
  103MOL    C8222726   2.526   4.947   3.410 -0.2301 -0.3064  0.2378
  103MOL    C8322727   2.410   4.996   3.463  0.1902 -0.0939  0.4055
  103MOL    C8422728   2.376   4.981   3.598 -0.3358 -0.4304 -0.1180
  103MOL    O8522729   2.273   5.051   3.654 -0.0836 -0.2456  0.6688
  103MOL    H8622730   2.439   4.890   3.786 -2.3911 -1.7858 -0.4746
  103MOL    H8722731   2.646   4.813   3.703 -1.0607  1.1079  1.9845
  103MOL    H8822732   2.542   4.952   3.304  0.2356 -1.0119  0.2729
  103MOL    H8922733   2.347   5.067   3.411 -1.3971  0.5432  3.0931
  103MOL    C9022734   1.973   5.103   3.438 -0.1314  0.2896 -0.0527
  103MOL    C9122735   2.108   5.122   3.487 -0.8718  0.7944  0.1048
  103MOL    C9222736   2.149   5.038   3.595 -0.4702  0.1564  0.3215
  103MOL    C9322737   2.068   4.939   3.647  0.6216  0.7407  0.0834
  103MOL    C9422738   1.938   4.916   3.593  0.5006 -0.2336 -1.1825
  103MOL    C9522739   1.890   5.004   3.493 -0.1543 -0.3022 -0.4389
  103MOL    O9622740   1.759   4.996   3.455  0.0894 -0.1596  0.6990
  103MOL    H9722741   1.938   5.170   3.362 -0.6153  1.0313  0.8142
  103MOL    H9822742   2.174   5.203   3.461 -0.2224  0.4084  0.5341
  103MOL    H9922743   2.102   4.872   3.725  2.5992 -0.2030 -1.5452
  103MOL   H10022744   1.872   4.832   3.610 -0.3766  0.6286 -0.2330
  103MOL   C10122745   1.518   5.279   3.473 -0.6420 -0.5347 -1.5130
  103MOL   C10222746   1.609   5.180   3.421  0.3579 -0.1778 -0.1956
  103MOL   C10322747   1.668   5.086   3.510  0.3822  0.6483 -0.3562
  103MOL   C10422748   1.637   5.091   3.647  0.1436  0.3177  0.0145
  103MOL   C10522749   1.554   5.193   3.699  0.1408  0.4012 -0.9897
  103MOL   C10622750   1.497   5.289   3.612 -0.0795  0.7937  0.7213
  103MOL   O10722751   1.412   5.386   3.655 -0.6225 -0.2415  0.0426
  103MOL   H10822752   1.466   5.340   3.401 -0.3349 -0.2341 -1.4847
  103MOL   H10922753   1.639   5.184   3.317  1.7906 -0.9157  0.1744
  103MOL   H11022754   1.666   5.008   3.709 -0.2565  1.5127  1.8474
  103MOL   H11122755   1.514   5.197   3.799 -2.1783 -1.3625 -1.7918
  103MOL   C11222756   1.567   5.569   3.942 -0.0170  0.5314 -0.5373
  103MOL   C11322757   1.501   5.468   3.868 -0.2623 -0.7100  0.1023
  103MOL   C11422758   1.468   5.486   3.730 -0.0181 -0.5105 -0.6666
  103MOL   C11522759   1.509   5.606   3.674 -0.0868  0.6046  0.5502
  103MOL   C11622760   1.570   5.710   3.747 -0.1714  0.0674 -0.0954
  103MOL   C11722761   1.596   5.693   3.886 -0.6458  0.3109  0.4185
  103MOL   O11822762   1.655   5.795   3.958 -0.2733  0.7467 -0.0387
  103MOL   H11922763   1.604   5.553   4.041 -1.6539 -0.0989 -0.0060
  103MOL   H12022764   1.473   5.374   3.915  1.7032 -1.9280 -1.1213
  103MOL   H12122765   1.479   5.613   3.571  1.3486  0.4803  0.1168
  103MOL   H12222766   1.609   5.799   3.700 -0.1451  0.7871  1.2641
  103MOL   C12322767   1.813   5.793   4.289 -0.1933 -0.0172 -0.0144
  103MOL   C12422768   1.796   5.793   4.145 -0.8005  0.6849  0.0067
  103MOL   C12522769   1.668   5.794   4.094  0.9654 -0.2477  0.6660
  103MOL   C12622770   1.553   5.800   4.174  0.5621 -0.7407  0.4700
  103MOL   C12722771   1.564   5.792   4.312 -0.2262  0.2434 -0.3916
  103MOL   C12822772   1.696   5.790   4.367  0.6702  0.2296 -0.1776
  103MOL   O12922773   1.716   5.795   4.500  0.5081  0.0573 -0.0915
  103MOL   H13022774   1.912   5.801   4.331  0.0986  0.6913 -0.8324
  103MOL   H13122775   1.879   5.803   4.076  0.1256  3.0058  1.4209
  103MOL   H13222776   1.455   5.808   4.128 -0.1828  3.4036  2.4968
  103MOL   H13322777   1.475   5.801   4.373 -0.4917  1.8232 -0.9924
  103MOL   C13422778   2.004   5.652   4.677 -0.2734  0.0844  0.1003
  103MOL   C13522779   1.922   5.738   4.608  0.0589 -1.1907  0.1932
  103MOL   C13622780   1.799   5.696   4.549  0.0675  0.0021 -0.0916
  103MOL   C13722781   1.763   5.561   4.557 -0.0271 -0.2857 -0.3230
  103MOL   C13822782   1.842   5.477   4.632  0.4258  0.2110 -0.2180
  103MOL   C13922783   1.964   5.515   4.679 -0.2707 -0.0482 -0.4523
  103MOL   O14022784   2.039   5.426   4.747 -0.0121  0.0455  0.2121
  103MOL   H14122785   2.099   5.682   4.720 -0.9873  3.5309 -0.5803
  103MOL   H14222786   1.961   5.838   4.610 -1.0197 -0.7703  2.1111
  103MOL   H14322787   1.664   5.530   4.523 -0.3394  0.9578 -0.5813
  103MOL   H14422788   1.798   5.379   4.642  2.5692 -0.7224  0.2564
  103MOL   C14522789   2.317   5.332   4.538  0.5896 -0.7232  0.0787
  103MOL   C14622790   2.193   5.368   4.577 -0.7737  0.1331  0.4245
  103MOL   C14722791   2.169   5.417   4.707 -0.1679  0.2827  0.6174
  103MOL   C14822792   2.270   5.432   4.798  0.0757  0.3623 -0.9552
  103MOL   C14922793   2.406   5.403   4.752  0.5866  0.0774 -0.1923
  103MOL   C15022794   2.428   5.353   4.625 -0.9652  0.4016  0.0471
  103MOL   O15122795   2.550   5.314   4.594 -0.0344  0.6580  0.2327
  103MOL   H15222796   2.330   5.303   4.435  0.3280 -1.6763  0.3048
  103MOL   H15322797   2.114   5.372   4.504  1.4506  2.2575 -1.9659
  103MOL   H15422798   2.231   5.465   4.892 -3.0383 -2.3681 -1.1951
  103MOL   H15522799   2.486   5.413   4.823  0.8929  1.2222 -0.6685
  103MOL   C15622800   2.775   5.537   4.407 -0.4668 -0.0954 -0.1045
  103MOL   C15722801   2.699   5.488   4.509  0.4429 -0.0145  0.1836
  103MOL   C15822802   2.617   5.375   4.492 -0.2548  0.3996 -0.6276
  103MOL   C15922803   2.612   5.318   4.367 -0.2809  0.0444 -0.1337
  103MOL   C16022804   2.676   5.376   4.262 -0.4692  0.8500 -0.1386
  103MOL   C16122805   2.767   5.480   4.276  0.5806 -0.5810  0.4475
  103MOL   O16222806   2.823   5.538   4.165 -0.2117  0.2684 -0.3100
  103MOL   H16322807   2.839   5.621   4.426  1.6177 -1.6325 -0.0482
  103MOL   H16422808   2.707   5.532   4.607 -2.3979 -0.4703  0.6441
  103MOL   H16522809   2.558   5.227   4.342  2.6316 -2.0281  0.8012
  103MOL   H16622810   2.668   5.324   4.168  1.1184  2.4857 -1.2130
  103MOL   C16722811   2.592   5.828   4.114  0.0144 -0.1359 -0.1477
  103MOL   C16822812   2.703   5.757   4.163 -0.4938 -0.4872  0.0548
  103MOL   C16922813   2.737   5.629   4.103  0.5010 -0.3171 -0.2894
  103MOL   C17022814   2.662   5.584   3.987 -0.5239  1.4458  0.3736
  103MOL   C17122815   2.558   5.656   3.938 -0.0987  0.0339 -0.5987
  103MOL   C17222816   2.522   5.777   4.000 -0.4410  0.1982  0.6693
  103MOL   O17322817   2.412   5.838   3.949  0.3200  0.0909 -0.3363
  103MOL   H17422818   2.552   5.918   4.159 -1.5661 -0.6840 -0.4344
  103MOL   H17522819   2.763   5.792   4.245 -0.2857 -0.3068 -0.1771
  103MOL   H17622820   2.689   5.487   3.946 -0.2050  0.6371  2.4366
  103MOL   H17722821   2.509   5.621   3.848 -1.9138  2.2992 -0.5358
  103MOL   C17822822   2.128   5.988   4.143 -0.2489  0.0138  0.2879
  103MOL   C17922823   2.216   5.892   4.083 -0.3983  0.5102  0.5948
  103MOL   C18022824   2.337   5.935   4.019 -0.9548  0.9080  0.3164
  103MOL   C18122825   2.371   6.072   4.028  0.8995 -0.1372 -0.3607
  103MOL   C18222826   2.274   6.169   4.069 -0.7492 -0.6538  0.0275
  103MOL   C18322827   2.149   6.131   4.138 -1.6239  0.0445  0.1980
  103MOL   O18422828   2.074   6.222   4.207 -0.1574  0.3256 -0.4689
  103MOL   H18522829   2.037   5.948   4.186 -0.5380  1.1854  0.7746
  103MOL   H18622830   2.193   5.787   4.076 -0.7435  0.6382 -0.3227
  103MOL   H18722831   2.469   6.096   3.989  1.6367  0.7677  1.9835
  103MOL   H18822832   2.300   6.274   4.069 -0.1120 -0.8060  0.0774
  103MOL   C18922833   2.105   6.272   4.574 -0.1516  0.0878  0.2962
  103MOL   C19022834   2.122   6.286   4.432 -0.0531  0.2557  0.1525
  103MOL   C19122835   2.063   6.197   4.343  0.3589  0.2892 -0.4083
  103MOL   C19222836   1.968   6.105   4.389 -0.6640 -0.6340 -0.5470
  103MOL   C19322837   1.958   6.101   4.532  0.4270  0.3795 -0.5077
  103MOL   C19422838   2.020   6.184   4.622  0.2971 -0.6589  0.1766
  103MOL   O19522839   2.022   6.162   4.757 -0.4073 -0.5188 -0.4382
  103MOL   H19622840   2.146   6.338   4.649  1.9692  0.8020 -1.4439
  103MOL   H19722841   2.196   6.354   4.392 -0.7851  1.1506  0.3100
  103MOL   H19822842   1.914   6.040   4.323  0.1961 -1.1286 -0.7744
  103MOL   H19922843   1.900   6.018   4.569 -1.9770  1.7006 -1.2229
  103MOL   C20022844   2.349   6.029   4.866 -0.7392  0.1899 -0.5580
  103MOL   C20122845   2.226   6.035   4.803 -0.2660  0.1037 -0.2988
  103MOL   C20222846   2.144   6.146   4.822  0.2848  0.1365 -0.1824
  103MOL   C20322847   2.188   6.240   4.919 -0.9234  0.2633  0.3895
  103MOL   C20422848   2.310   6.231   4.990 -0.2446  0.3579  0.4347
  103MOL   C20522849   2.394   6.122   4.965 -0.0743  0.0323  0.2634
  103MOL   O20622850   2.519   6.096   5.021 -0.2456 -0.5771  0.8422
  103MOL   H20722851   2.407   5.939   4.852 -1.6169 -0.1131 -2.4639
  103MOL   H20822852   2.202   5.958   4.731 -1.4832 -0.4636  0.6877
  103MOL   H20922853   2.137   6.334   4.930  2.0423  1.7609  2.1801
  103MOL   H21022854   2.347   6.303   5.061 -0.5007 -0.5413  1.4816
  103MOL   C21122855   2.651   6.350   5.252  0.3709 -0.1289  0.0534
  103MOL   C21222856   2.640   6.279   5.139  0.2335  0.1342 -0.7398
  103MOL   C21322857   2.557   6.161   5.138  0.2503 -0.4911  0.1182
  103MOL   C21422858   2.513   6.107   5.256  0.8436 -0.2454 -0.6503
  103MOL   C21522859   2.531   6.181   5.371 -0.1083 -0.4454 -0.1890
  103MOL   C21622860   2.597   6.305   5.370  0.1700  0.5265 -0.3489
  103MOL   O21722861   2.609   6.375   5.487 -0.3796  0.4406  0.3635
  103MOL   H21822862   2.708   6.441   5.264  0.7514 -0.3506 -0.0785
  103MOL   H21922863   2.687   6.318   5.050  1.6244  0.4405  0.1235
  103MOL   H22022864   2.466   6.010   5.257 -2.1901  1.1746  0.8974
  103MOL   H22122865   2.497   6.140   5.465  0.1987 -0.3585 -0.0396
  103MOL   H22222866   2.635   6.465   5.478  1.3287 -0.2384 -1.7447
  104MOL     C122867   2.885   7.957   4.591  0.4302 -0.5816  0.4010
  104MOL     C222868   2.776   7.926   4.502  0.0919 -0.4608 -0.2532
  104MOL     C322869   2.795   7.877   4.372  0.9060  0.1607 -0.1250
  104MOL     C422870   2.922   7.864   4.323  0.1212 -0.5426 -0.9110
  104MOL     C522871   3.032   7.889   4.405 -0.6632 -0.3565 -0.3221
  104MOL     C622872   3.016   7.926   4.542 -0.5067  0.1399  0.9432
  104MOL     O722873   3.129   7.949   4.620  0.2421 -0.1090 -0.3237
  104MOL     H822874   2.867   7.999   4.689 -2.9522 -0.9579  0.0213
  104MOL     H922875   2.674   7.954   4.521  0.4549  0.5729  0.2406
  104MOL    H1022876   2.948   7.830   4.223 -2.2590  1.5911 -2.3079
  104MOL    H1122877   3.132   7.875   4.365 -1.0775 -2.2561 -0.7481
  104MOL    H1222878   2.713   7.850   4.306  0.2027  1.4826  0.1904
  104MOL    C1322879   3.367   8.202   4.482 -0.3532 -0.2203  0.8566
  104MOL    C1422880   3.313   8.078   4.515 -0.4362 -0.0424  0.1554
  104MOL    C1522881   3.195   8.069   4.599 -0.2148 -0.3292 -0.2887
  104MOL    C1622882   3.140   8.185   4.665 -0.2730 -0.2271 -0.1115
  104MOL    C1722883   3.194   0.061   4.627  0.2816  0.3804  0.3685
  104MOL    C1822884   3.312   0.070   4.541 -0.3978  0.1464  0.2045
  104MOL    O1922885   3.365   0.195   4.514 -0.1751  0.0241 -0.1217
  104MOL    H2022886   3.440   8.206   4.402 -0.8169 -3.2373  0.2021
  104MOL    H2122887   3.348   7.987   4.467  0.5529  0.7672 -0.6876
  104MOL    H2222888   3.050   8.172   4.722  0.9391 -0.4281  1.8161
  104MOL    H2322889   3.151   0.149   4.672 -0.0711  1.5588 -2.1837
  104MOL    C2422890   3.586   0.284   4.234 -0.5405  0.2824  0.5276
  104MOL    C2522891   3.465   0.269   4.312 -0.3027  0.0784  0.1932
  104MOL    C2622892   3.474   0.199   4.437 -0.6595 -0.1806  1.2009
  104MOL    C2722893   3.599   0.143   4.483 -0.9901  0.4484  0.0750
  104MOL    C2822894   3.719   0.168   4.412  0.4527 -0.1076 -0.1519
  104MOL    C2922895   3.711   0.230   4.285  0.2075  0.2345 -0.0830
  104MOL    O3022896   3.827   0.265   4.228  0.2603  0.2988 -0.2769
  104MOL    H3122897   3.585   0.352   4.150  0.8509  1.0523  1.1331
  104MOL    H3222898   3.366   0.293   4.278  0.1636  0.5656 -0.8251
  104MOL    H3322899   3.591   0.096   4.580 -0.8254 -2.2077 -1.1668
  104MOL    H3422900   3.815   0.137   4.449  0.4094 -0.3345 -0.2249
  104MOL    C3522901   3.888   0.616   4.137 -0.1317 -0.4013  0.5091
  104MOL    C3622902   3.855   0.480   4.129 -0.0852  0.7928  0.0524
  104MOL    C3722903   3.866   0.398   4.242  0.3667 -0.0713  0.2954
  104MOL    C3822904   3.909   0.456   4.363 -0.2370  0.4916  0.2180
  104MOL    C3922905   3.945   0.591   4.373  0.2314 -0.4654  0.6994
  104MOL    C4022906   3.935   0.675   4.257 -0.5805 -0.1599 -0.3225
  104MOL    O4122907   3.969   0.808   4.272  0.2928 -0.5028  0.4755
  104MOL    H4222908   3.885   0.675   4.047 -3.0508  1.1396  1.5331
  104MOL    H4322909   3.817   0.439   4.037 -0.5724 -0.7300  0.9193
  104MOL    H4422910   3.911   0.383   4.442  0.8822  0.3478  0.0712
  104MOL    H4522911   3.976   0.623   4.471 -0.4782 -0.5456  0.9536
  104MOL    C4622912   4.333   0.840   4.213 -0.0018 -0.1001  0.3377
  104MOL    C4722913   4.201   0.809   4.191 -0.1674 -0.6800 -0.1681
  104MOL    C4822914   4.102   0.836   4.287 -0.4459  0.2060 -0.9271
  104MOL    C4922915   4.140   0.915   4.402 -0.2697 -0.5070  0.4014
  104MOL    C5022916   4.272   0.957   4.415  0.9403  0.3112  0.6868
  104MOL    C5122917   4.372   0.916   4.326 -0.2491  0.0200  0.3389
  104MOL    O5222918   4.503   0.952   4.342 -0.3057  0.2322  0.5060
  104MOL    H5322919   4.405   0.807   4.139  2.2016  3.5323  0.7514
  104MOL    H5422920   4.174   0.759   4.099 -1.9572  1.4502 -0.8275
  104MOL    H5522921   4.067   0.927   4.480 -1.5999 -2.7452 -0.4596
  104MOL    H5622922   4.300   1.019   4.499 -0.3748  0.0899  1.3042
  104MOL    C5722923   4.833   0.821   4.413  0.0146  0.2436 -0.2384
  104MOL    C5822924   4.730   0.902   4.371 -0.1692 -0.5135  0.8487
  104MOL    C5922925   4.596   0.866   4.391  0.1382  0.2396  0.2735
  104MOL    C6022926   4.568   0.749   4.467 -0.7623 -0.4578  0.0723
  104MOL    C6122927   4.674   0.666   4.527 -0.8425 -0.5894  0.6833
  104MOL    C6222928   4.807   0.699   4.489  0.8358 -0.2828 -0.0133
  104MOL    O6322929   4.908   0.610   4.511 -0.0966  0.0663 -0.3573
  104MOL    H6422930   4.929   0.849   4.373  0.9747 -1.0333  1.0972
  104MOL    H6522931   4.762   0.985   4.310  1.3632 -0.8365  1.2113
  104MOL    H6622932   4.467   0.724   4.495  0.0267 -0.9217  2.6032
  104MOL    H6722933   4.665   0.573   4.582 -0.5651 -0.5497  0.7961
  104MOL    C6822934   5.200   0.611   4.721  0.4329  0.5536 -0.0362
  104MOL    C6922935   5.115   0.595   4.612 -0.4564  0.7725 -0.5064
  104MOL    C7022936   4.983   0.623   4.622 -0.1921  0.2684  0.2568
  104MOL    C7122937   4.932   0.666   4.751  0.3928 -0.2534  0.2807
  104MOL    C7222938   5.014   0.676   4.861  0.5394  1.1481  0.1329
  104MOL    C7322939   5.149   0.647   4.849  1.1120  0.4137  0.1881
  104MOL    O7422940   5.234   0.660   4.957 -0.4766 -0.1549  0.4642
  104MOL    H7522941   5.307   0.599   4.706  0.3602  0.3278 -0.3637
  104MOL    H7622942   5.162   0.559   4.521  2.4719 -0.8370  1.5421
  104MOL    H7722943   4.826   0.686   4.753  0.5760  0.7184  1.5608
  104MOL    H7822944   4.980   0.706   4.959 -2.8374 -1.0812 -0.2584
  104MOL    C7922945   5.454   0.953   4.910 -0.8847 -0.8866  0.0576
  104MOL    C8022946   5.338   0.874   4.907  0.5963 -0.2486  1.1297
  104MOL    C8122947   5.349   0.738   4.937  0.5483  0.9142  0.0596
  104MOL    C8222948   5.475   0.678   4.950  0.4313  0.2901 -0.4596
  104MOL    C8322949   5.590   0.753   4.939  0.3403  0.1841 -0.9252
  104MOL    C8422950   5.584   0.895   4.926  0.6582 -0.0673  0.0902
  104MOL    O8522951   5.696   0.972   4.928  0.2867  0.6121  0.0969
  104MOL    H8622952   5.448   1.060   4.902  0.0505 -0.8779 -0.6142
  104MOL    H8722953   5.243   0.923   4.888 -0.6983 -3.6132 -1.7715
  104MOL    H8822954   5.492   0.573   4.969  1.5352  0.3600 -1.0450
  104MOL    H8922955   5.681   0.695   4.949  0.7416  1.3719  2.9870
  104MOL    C9022956   5.826   0.918   4.582  0.3609 -0.0104 -0.0253
  104MOL    C9122957   5.738   0.947   4.686 -0.0626  0.0993  0.2994
  104MOL    C9222958   5.779   0.944   4.820 -0.0898 -0.1897 -0.1114
  104MOL    C9322959   5.918   0.930   4.845  0.1981 -0.4903  0.4699
  104MOL    C9422960   6.008   0.902   4.739 -0.6965  0.5019 -0.1348
  104MOL    C9522961   5.962   0.888   4.607 -0.4950  0.3155  0.3671
  104MOL    O9622962   6.043   0.857   4.497 -0.5451 -0.2256  0.5258
  104MOL    H9722963   5.791   0.921   4.480  1.8280  0.7647 -0.5239
  104MOL    H9822964   5.637   0.977   4.661 -0.3182 -0.5726  0.5283
  104MOL    H9922965   5.953   0.941   4.946 -0.4808 -1.1700  0.7822
  104MOL   H10022966   6.113   0.878   4.747 -0.5208  0.9921 -0.8745
  104MOL   C10122967   6.194   0.529   4.575  0.2277 -0.4451  0.1515
  104MOL   C10222968   6.109   0.643   4.590 -0.0289  0.2555 -0.0524
  104MOL   C10322969   6.129   0.750   4.500  0.8850 -1.2910  0.0468
  104MOL   C10422970   6.223   0.735   4.392 -1.0985  0.0982  0.4170
  104MOL   C10522971   6.309   0.625   4.387 -0.2325 -0.5289  0.0243
  104MOL   C10622972   6.295   0.518   4.477  0.1665  0.8793 -0.7632
  104MOL   O10722973   6.388   0.411   4.481  0.0157 -0.2802 -0.2340
  104MOL   H10822974   6.179   0.451   4.648  1.3856  0.1328  1.0071
  104MOL   H10922975   6.032   0.640   4.666 -1.2744 -1.3413 -1.3731
  104MOL   H11022976   6.231   0.814   4.320 -1.4528 -1.5933 -1.5201
  104MOL   H11122977   6.389   0.631   4.314  0.7812  0.3705  1.2029
  104MOL   C11222978   6.704   0.482   4.311 -0.4941  0.9227 -0.2453
  104MOL   C11322979   6.597   0.487   4.406  0.4879 -0.0975  0.5623
  104MOL   C11422980   6.491   0.397   4.397 -0.2910  0.3389  0.2015
  104MOL   C11522981   6.488   0.297   4.297  1.1338 -0.0214 -1.0554
  104MOL   C11622982   6.598   0.292   4.208  0.3953  0.4850  0.2411
  104MOL   C11722983   6.705   0.382   4.212 -0.7520 -0.2107  0.1133
  104MOL   O11822984   6.809   0.374   4.120 -0.1757  0.5962  0.4323
  104MOL   H11922985   6.783   0.556   4.320 -1.0154  1.2595  1.9046
  104MOL   H12022986   6.604   0.565   4.481  3.5437  1.2624 -1.0085
  104MOL   H12122987   6.408   0.226   4.283 -0.1158  1.6208 -2.3831
  104MOL   H12222988   6.591   0.220   4.128 -1.3369  3.0990 -2.0293
  104MOL   C12322989   6.871   0.656   3.903 -0.9966  0.2445 -0.6245
  104MOL   C12422990   6.890   0.557   3.999  0.5535 -0.1250  0.5774
  104MOL   C12522991   6.800   0.450   4.012  0.1992  0.1103 -0.4917
  104MOL   C12622992   6.705   0.423   3.910  0.1985  0.2291  0.9038
  104MOL   C12722993   6.700   0.522   3.803 -0.4771  0.2215 -0.3991
  104MOL   C12822994   6.777   0.640   3.800 -0.8174  0.0072  0.3588
  104MOL   O12922995   6.762   0.731   3.698  0.4163  0.4005 -0.3863
  104MOL   H13022996   6.934   0.744   3.906 -1.8167  0.8204 -0.1690
  104MOL   H13122997   6.963   0.581   4.075  1.0172 -1.2299  0.4929
  104MOL   H13222998   6.632   0.344   3.915  0.4862 -0.0320  0.9501
  104MOL   H13322999   6.627   0.505   3.725 -0.4769  1.5122 -0.6865
  104MOL   C13423000   6.994   0.789   3.421  0.0683 -0.3609  0.1098
  104MOL   C13523001   6.906   0.820   3.530 -0.0309  0.5853 -0.0929
  104MOL   C13623002   6.826   0.711   3.576  0.2645  0.2124  0.2743
  104MOL   C13723003   6.823   0.586   3.506 -0.4830  0.3769  0.0005
  104MOL   C13823004   6.894   0.569   3.387  0.0865  0.2762  0.5187
  104MOL   C13923005   6.997   0.664   3.357 -0.1498  0.0938 -0.2750
  104MOL   O14023006   7.079   0.650   3.256 -0.0440 -0.6148  0.2333
  104MOL   H14123007   7.059   0.870   3.392  2.7935 -1.3526  3.0771
  104MOL   H14223008   6.904   0.921   3.567  3.2983  0.5108  0.4832
  104MOL   H14323009   6.763   0.506   3.547 -0.4650  1.2450  1.7631
  104MOL   H14423010   6.901   0.470   3.344 -0.5017 -0.8022  2.8303
  104MOL   C14523011   7.273   0.338   3.234 -0.2890 -0.4145 -0.3805
  104MOL   C14623012   7.163   0.421   3.223  0.1728  0.7082 -0.7668
  104MOL   C14723013   7.172   0.552   3.274  0.0819  0.5472 -0.8869
  104MOL   C14823014   7.292   0.586   3.335 -0.2970 -0.6182 -0.0837
  104MOL   C14923015   7.405   0.502   3.344  0.2194  0.0642 -0.4504
  104MOL   C15023016   7.392   0.373   3.297 -0.5412 -0.3260 -0.1505
  104MOL   O15123017   7.494   0.284   3.305 -0.7989  0.0765 -0.5056
  104MOL   H15223018   7.261   0.244   3.182  0.3565 -2.2013  2.5859
  104MOL   H15323019   7.076   0.382   3.172  0.9457 -2.4021  0.1301
  104MOL   H15423020   7.304   0.687   3.371  1.5512 -0.1761 -1.7923
  104MOL   H15523021   7.494   0.537   3.394  1.4478 -0.1297 -2.4340
  104MOL   C15623022   7.671   0.135   3.593 -0.1649 -0.2304 -0.4434
  104MOL   C15723023   7.644   0.213   3.471 -0.2621 -0.4224 -0.4685
  104MOL   C15823024   7.511   0.223   3.427  0.0599 -0.1208 -0.6151
  104MOL   C15923025   7.404   0.177   3.504  0.1193  0.0920  0.1762
  104MOL   C16023026   7.429   0.101   3.621  0.1168 -0.5067  0.7608
  104MOL   C16123027   7.560   0.079   3.666  0.5607 -0.1689 -0.0749
  104MOL   O16223028   7.578   0.017   3.787  0.1886  0.5957  0.2933
  104MOL   H16323029   7.772   0.109   3.623 -0.1207  0.6981  0.2110
  104MOL   H16423030   7.724   0.246   3.406 -0.8226 -1.5501 -1.7688
  104MOL   H16523031   7.305   0.197   3.463 -0.2557 -1.5769  0.2591
  104MOL   H16623032   7.349   0.053   3.675  1.5187 -4.1151 -0.2358
  104MOL   C16723033   7.865   8.070   3.901 -0.6404  1.2730  0.8373
  104MOL   C16823034   7.772   8.174   3.886  0.2120 -0.3161 -0.6484
  104MOL   C16923035   7.667   8.165   3.791  0.5862  0.0175 -0.1153
  104MOL   C17023036   7.648   8.045   3.720  0.0919  0.8620  0.3772
  104MOL   C17123037   7.748   7.950   3.728  0.2468  0.1443  0.1385
  104MOL   C17223038   7.862   7.960   3.814 -0.1709 -0.2360 -0.0159
  104MOL   O17323039   7.959   7.856   3.823  0.1573  0.1608  0.1487
  104MOL   H17423040   7.945   8.088   3.972 -1.2155  1.7879  1.3740
  104MOL   H17523041   7.774   0.006   3.950  2.4146 -2.2401  1.9614
  104MOL   H17623042   7.561   8.030   3.657  1.2019  0.6889 -1.1328
  104MOL   H17723043   7.732   7.861   3.668 -1.1231 -0.0481  0.7611
  104MOL   C17823044   8.026   7.725   3.478  0.1909 -0.1415 -0.1142
  104MOL   C17923045   8.015   7.812   3.589 -1.2125 -0.4472 -0.2958
  104MOL   C18023046   7.971   7.767   3.716  0.6752  0.7884 -0.1497
  104MOL   C18123047   7.939   7.630   3.737 -0.0296 -0.4696  0.0727
  104MOL   C18223048   7.954   7.539   3.629 -0.3117 -0.2283  0.1255
  104MOL   C18323049   7.995   7.585   3.499  0.3835 -0.1278 -0.3132
  104MOL   O18423050   8.000   7.487   3.406  0.0057 -0.5454 -0.5289
  104MOL   H18523051   8.063   7.753   3.380 -0.1772 -0.4735 -0.3483
  104MOL   H18623052   8.035   7.917   3.574  0.4174 -0.9036 -1.5058
  104MOL   H18723053   7.894   7.606   3.832 -2.6109  0.0518 -0.9661
  104MOL   H18823054   7.939   7.432   3.639 -0.1269 -0.2720 -0.0512
  104MOL   C18923055   7.745   7.508   3.143  0.9649 -0.0878  0.3307
  104MOL   C19023056   7.862   7.524   3.215 -0.7312 -0.9488 -0.1317
  104MOL   C19123057   7.886   7.456   3.335  0.0808  0.3445 -0.2695
  104MOL   C19223058   7.798   7.360   3.387 -0.5382 -0.1086 -0.1846
  104MOL   C19323059   7.673   7.346   3.314  0.3968 -0.6830 -0.3612
  104MOL   C19423060   7.644   7.421   3.194 -0.1604 -0.3359 -0.5607
  104MOL   O19523061   7.520   7.415   3.134 -0.7864  0.1838  0.6170
  104MOL   H19623062   7.731   7.567   3.053 -0.2541  1.2827  1.4061
  104MOL   H19723063   7.934   7.591   3.171 -0.5544 -0.0442  1.4670
  104MOL   H19823064   7.820   7.303   3.476  0.8619 -0.9661 -1.0748
  104MOL   H19923065   7.607   7.277   3.363 -1.4926  0.6912 -0.8845
  104MOL   C20023066   7.371   7.740   3.043 -0.5897 -0.5730 -0.3562
  104MOL   C20123067   7.428   7.641   3.123  0.5846  0.2942 -0.8575
  104MOL   C20223068   7.477   7.524   3.063 -0.2159  0.3566  0.4887
  104MOL   C20323069   7.463   7.512   2.923 -0.0129 -0.0479 -0.3839
  104MOL   C20423070   7.415   7.616   2.843 -0.2291  0.1199  0.2178
  104MOL   C20523071   7.364   7.730   2.901 -0.3318 -0.4709  0.3261
  104MOL   O20623072   7.297   7.832   2.838  0.1599 -0.7690 -0.1113
  104MOL   H20723073   7.333   7.831   3.087  2.6101  1.4645 -1.6186
  104MOL   H20823074   7.428   7.647   3.231  0.8137 -1.9709 -0.7092
  104MOL   H20923075   7.501   7.427   2.868 -1.2463 -0.5185 -0.5373
  104MOL   H21023076   7.426   7.623   2.736  1.7922  1.6804  0.4928
  104MOL   C21123077   7.109   7.645   2.576  0.1436 -0.2305 -0.1912
  104MOL   C21223078   7.143   7.689   2.711  0.1530  0.0446  0.5790
  104MOL   C21323079   7.234   7.801   2.722  0.2726  0.5748 -0.8437
  104MOL   C21423080   7.260   7.884   2.615  0.4844 -0.2930 -0.2487
  104MOL   C21523081   7.226   7.847   2.486  0.6117 -0.6188 -0.0473
  104MOL   C21623082   7.154   7.728   2.468 -0.9136  0.9100 -0.3893
  104MOL   O21723083   7.123   7.685   2.345 -0.6323 -0.3166  0.0279
  104MOL   H21823084   7.054   7.556   2.551  2.1130 -0.9657 -2.0714
  104MOL   H21923085   7.121   7.622   2.793 -2.4476  0.7095  0.4592
  104MOL   H22023086   7.310   7.979   2.630  0.0195 -0.1621  0.5160
  104MOL   H22123087   7.247   7.912   2.402  1.3093  0.5109  0.9827
  104MOL   H22223088   7.052   7.624   2.333  0.6942 -2.1426  1.1062
  105MOL     C123089   5.577   2.587   5.472 -0.7519  0.5427  0.3604
  105MOL     C223090   5.651   2.556   5.586 -0.2515 -0.0064 -0.8829
  105MOL     C323091   5.704   2.657   5.665 -0.5918 -0.5180  0.1910
  105MOL     C423092   5.687   2.790   5.629  0.3503  0.2327  0.0407
  105MOL     C523093   5.611   2.829   5.516  0.2930  0.0541 -0.5313
  105MOL     C623094   5.555   2.720   5.435 -0.2392 -0.2278  0.2938
  105MOL     O723095   5.473   2.737   5.330  0.1176  0.1985 -0.2694
  105MOL     H823096   5.530   2.510   5.412  1.8721 -1.3755  0.6843
  105MOL     H923097   5.664   2.451   5.608  0.0241  0.6836  2.4078
  105MOL    H1023098   5.723   2.872   5.690  0.3935  0.6268 -0.5120
  105MOL    H1123099   5.579   2.930   5.492  2.7591  1.3064  1.1388
  105MOL    H1223100   5.755   2.636   5.758  0.1740 -1.2044 -0.3800
  105MOL    C1323101   5.546   2.602   4.986  0.1642 -0.1109  0.1426
  105MOL    C1423102   5.494   2.611   5.119 -0.7868  0.0083 -0.6656
  105MOL    C1523103   5.520   2.721   5.202 -0.0162 -0.2986 -0.6629
  105MOL    C1623104   5.619   2.814   5.150  0.4490  0.1675  0.0728
  105MOL    C1723105   5.679   2.796   5.027  0.0013 -0.2172  0.5851
  105MOL    C1823106   5.637   2.694   4.945  0.3413  0.2469  0.0248
  105MOL    O1923107   5.693   2.686   4.822  0.4546 -0.2416  0.3292
  105MOL    H2023108   5.510   2.525   4.919 -0.1999 -0.4975  0.7655
  105MOL    H2123109   5.424   2.536   5.154  0.6946 -0.1122  2.1968
  105MOL    H2223110   5.664   2.891   5.211  0.7658  0.8031 -0.9583
  105MOL    H2323111   5.756   2.866   5.000 -2.8107  2.7050 -0.0607
  105MOL    C2423112   6.046   2.553   4.843  0.0808  0.1918 -0.1707
  105MOL    C2523113   5.907   2.565   4.865  0.0394 -0.1567  0.0960
  105MOL    C2623114   5.831   2.671   4.803  0.3244 -0.1089  0.1288
  105MOL    C2723115   5.896   2.758   4.712  0.2819  0.1911  0.2895
  105MOL    C2823116   6.040   2.762   4.710  0.5679  0.0476  0.1239
  105MOL    C2923117   6.109   2.659   4.770 -0.1246  0.0551 -0.4822
  105MOL    O3023118   6.248   2.648   4.759  0.1620  0.5457  0.4987
  105MOL    H3123119   6.096   2.472   4.893  0.1227 -0.7872 -1.7522
  105MOL    H3223120   5.852   2.490   4.918 -1.8865 -0.0923 -1.7368
  105MOL    H3323121   5.839   2.829   4.654  2.6012  2.3838  0.6285
  105MOL    H3423122   6.093   2.835   4.651  1.3402 -0.2351  0.4691
  105MOL    C3523123   6.562   2.824   4.799 -0.6758 -0.6759  0.4741
  105MOL    C3623124   6.460   2.743   4.751 -0.1886 -0.2920 -0.1758
  105MOL    C3723125   6.333   2.739   4.818 -0.5018 -0.8467  0.1411
  105MOL    C3823126   6.313   2.811   4.934  0.1108 -0.6601 -0.4140
  105MOL    C3923127   6.415   2.891   4.989 -0.3927 -0.6807 -0.5930
  105MOL    C4023128   6.541   2.896   4.919  0.3205 -0.2682 -0.4843
  105MOL    O4123129   6.635   2.974   4.984 -0.0192  0.0046  1.1013
  105MOL    H4223130   6.658   2.837   4.752 -2.3180  1.1682 -2.4726
  105MOL    H4323131   6.473   2.701   4.652 -1.6863  1.2032 -1.0324
  105MOL    H4423132   6.219   2.805   4.987  0.8714  1.9193  1.3754
  105MOL    H4523133   6.400   2.937   5.085  1.6256 -1.5716  0.1659
  105MOL    C4623134   6.649   3.277   4.765  0.3306  0.8776 -0.1202
  105MOL    C4723135   6.599   3.181   4.864 -0.1618 -0.1084 -0.0387
  105MOL    C4823136   6.679   3.076   4.905 -0.4252  0.1032  0.7946
  105MOL    C4923137   6.816   3.075   4.868  0.5065 -0.1016  0.1121
  105MOL    C5023138   6.864   3.166   4.768 -0.7613  0.2270 -0.8981
  105MOL    C5123139   6.778   3.267   4.718 -0.2830 -0.0214  0.1431
  105MOL    O5223140   6.831   3.359   4.627 -0.7551  0.9660 -0.0396
  105MOL    H5323141   6.585   3.354   4.724  0.5483  0.2011 -1.7685
  105MOL    H5423142   6.494   3.184   4.893  0.2354  1.5054  1.3794
  105MOL    H5523143   6.889   3.004   4.904  2.5802  1.7456 -0.3589
  105MOL    H5623144   6.970   3.164   4.749 -0.3744 -0.1279  1.2263
  105MOL    C5723145   7.053   3.531   4.865 -0.0450 -0.5492  0.5670
  105MOL    C5823146   6.932   3.486   4.806 -0.1060 -0.2437 -0.1493
  105MOL    C5923147   6.937   3.429   4.676 -0.1269 -0.2982 -0.4484
  105MOL    C6023148   7.058   3.414   4.605  0.0749 -0.2641  0.8688
  105MOL    C6123149   7.172   3.457   4.670 -0.0062  0.2209  0.7648
  105MOL    C6223150   7.169   3.519   4.798 -0.1786 -0.1239 -0.4808
  105MOL    O6323151   7.289   3.563   4.853  0.2756 -0.2073 -0.1220
  105MOL    H6423152   7.041   3.573   4.964  1.4829  1.8259 -0.1971
  105MOL    H6523153   6.835   3.495   4.851  0.2717  0.6811  0.4915
  105MOL    H6623154   7.058   3.352   4.517 -1.6083 -1.9607  2.0177
  105MOL    H6723155   7.262   3.447   4.611 -0.1974 -0.7222  0.6302
  105MOL    C6823156   7.562   3.322   4.847 -0.3461 -0.5700  0.0498
  105MOL    C6923157   7.482   3.430   4.810 -0.5076  0.7191  0.0258
  105MOL    C7023158   7.371   3.461   4.890 -0.1718  0.3207  0.2974
  105MOL    C7123159   7.345   3.381   5.008 -0.4020  0.2291 -0.5588
  105MOL    C7223160   7.426   3.272   5.035 -0.0712 -0.3853 -0.3596
  105MOL    C7323161   7.534   3.236   4.950 -0.3987 -0.5252 -0.4600
  105MOL    O7423162   7.613   3.128   4.982 -0.3396 -0.3911  0.4051
  105MOL    H7523163   7.649   3.289   4.793  0.6114  0.3484  0.9865
  105MOL    H7623164   7.512   3.481   4.720 -0.3565  1.4560  0.4861
  105MOL    H7723165   7.264   3.410   5.073 -1.0104  1.7847 -1.9678
  105MOL    H7823166   7.406   3.215   5.125 -1.4213  0.2223 -0.2504
  105MOL    C7923167   7.549   2.831   4.776  0.0147  0.7836  0.3283
  105MOL    C8023168   7.595   2.954   4.816  0.1555 -0.2644 -0.6800
  105MOL    C8123169   7.558   3.008   4.942  0.5830 -0.7445 -0.2114
  105MOL    C8223170   7.483   2.934   5.029  0.0393  0.0238 -0.8148
  105MOL    C8323171   7.445   2.803   4.995  1.0306  0.1611  0.2827
  105MOL    C8423172   7.473   2.751   4.864  0.2660 -0.3388  0.4135
  105MOL    O8523173   7.439   2.633   4.812 -0.4154 -0.0409  0.4597
  105MOL    H8623174   7.581   2.791   4.681  0.7019 -0.9498  1.2612
  105MOL    H8723175   7.666   3.008   4.755  0.4390 -0.5257 -0.5829
  105MOL    H8823176   7.479   2.968   5.131  1.3784  1.4575 -1.2227
  105MOL    H8923177   7.391   2.748   5.070 -1.2689  0.4187 -1.1245
  105MOL    C9023178   7.474   2.370   5.075  0.4060  0.1621  0.3884
  105MOL    C9123179   7.490   2.496   5.010  0.4630  0.2629 -0.1970
  105MOL    C9223180   7.410   2.530   4.898  0.0897  0.3608 -0.3320
  105MOL    C9323181   7.317   2.435   4.853 -0.0316 -1.2247  0.3953
  105MOL    C9423182   7.294   2.318   4.923 -1.2344 -0.3933 -0.1811
  105MOL    C9523183   7.372   2.279   5.034  0.1966 -0.3937 -0.2007
  105MOL    O9623184   7.354   2.154   5.086 -0.9174  0.1668  0.0436
  105MOL    H9723185   7.548   2.344   5.149 -0.5663 -1.4393  0.8326
  105MOL    H9823186   7.564   2.569   5.040  0.2505  0.2336  0.3961
  105MOL    H9923187   7.271   2.468   4.761 -1.2723 -1.4365  0.9419
  105MOL   H10023188   7.224   2.249   4.877 -1.3785  0.5414 -1.3734
  105MOL   C10123189   7.210   2.176   5.421  0.1297  0.8209 -0.2159
  105MOL   C10223190   7.224   2.189   5.286  0.3014 -0.4101  0.1496
  105MOL   C10323191   7.338   2.139   5.218 -0.6948  0.4541  0.4512
  105MOL   C10423192   7.437   2.080   5.294  0.1985  0.0821  0.3973
  105MOL   C10523193   7.419   2.049   5.429  0.1055  0.1718 -0.0960
  105MOL   C10623194   7.305   2.100   5.497 -0.7089 -0.9856 -0.1318
  105MOL   O10723195   7.299   2.076   5.631  0.6959  0.1065  0.2370
  105MOL   H10823196   7.137   2.242   5.465 -1.0212 -0.3492 -0.3432
  105MOL   H10923197   7.157   2.242   5.221  0.4975 -2.4919 -1.8349
  105MOL   H11023198   7.521   2.039   5.239 -1.4662 -2.3760 -0.3742
  105MOL   H11123199   7.494   1.999   5.488 -1.3402 -1.3550  0.4990
  105MOL   C11223200   7.299   1.752   5.797  0.1243  0.9387  0.3085
  105MOL   C11323201   7.327   1.880   5.749  0.4292 -1.2088 -0.4647
  105MOL   C11423202   7.247   1.952   5.663 -0.6112  0.1447 -0.3262
  105MOL   C11523203   7.130   1.894   5.608 -0.3455 -0.1005 -0.1072
  105MOL   C11623204   7.104   1.756   5.640 -0.2860 -0.4542  0.7677
  105MOL   C11723205   7.184   1.690   5.735  0.3823  0.9831 -0.0864
  105MOL   O11823206   7.151   1.557   5.752 -0.1476 -0.2966 -0.0090
  105MOL   H11923207   7.357   1.699   5.871 -0.8000  1.9008  1.7416
  105MOL   H12023208   7.415   1.928   5.788  0.5713 -1.8167 -0.0228
  105MOL   H12123209   7.076   1.941   5.527 -0.1147  2.6144  1.2596
  105MOL   H12223210   7.026   1.706   5.585 -1.2777  0.7251  1.0773
  105MOL   C12323211   7.084   1.496   6.111  0.2656  0.1338 -0.0920
  105MOL   C12423212   7.083   1.557   5.984 -0.6401  0.3822 -0.1589
  105MOL   C12523213   7.158   1.503   5.878 -0.0240  0.5149 -1.2888
  105MOL   C12623214   7.247   1.398   5.906  1.1063  0.7421  0.4731
  105MOL   C12723215   7.255   1.340   6.030 -0.0460 -0.2938 -0.3148
  105MOL   C12823216   7.163   1.386   6.131 -0.0833  0.1371 -0.4642
  105MOL   O12923217   7.158   1.320   6.244 -0.1661  0.8165  0.0351
  105MOL   H13023218   7.026   1.524   6.198  1.3380  0.9538  0.3785
  105MOL   H13123219   7.019   1.644   5.983  0.4864  1.3008  2.2246
  105MOL   H13223220   7.313   1.360   5.829 -1.0825  2.3503 -2.2850
  105MOL   H13323221   7.320   1.255   6.041 -0.5049 -0.7579 -1.1680
  105MOL   C13423222   6.845   1.115   6.209  0.6762 -0.3863  0.3132
  105MOL   C13523223   6.955   1.196   6.177  0.3704 -0.9603 -0.4786
  105MOL   C13623224   7.050   1.236   6.267 -0.3878  0.4586  0.3079
  105MOL   C13723225   7.026   1.199   6.402  0.2094 -0.6963  0.1532
  105MOL   C13823226   6.915   1.129   6.441  0.2386  0.4351 -0.2839
  105MOL   C13923227   6.821   1.084   6.344 -0.8905 -0.0636 -0.2796
  105MOL   O14023228   6.711   1.009   6.366 -0.0244 -0.1412  0.5160
  105MOL   H14123229   6.775   1.084   6.133  2.2926  1.7325 -2.1439
  105MOL   H14223230   6.958   1.232   6.075  3.2667 -0.8591 -0.3800
  105MOL   H14323231   7.094   1.225   6.481  0.5183  1.4966 -0.8084
  105MOL   H14423232   6.910   1.100   6.545  3.0715 -2.0585 -0.7804
  105MOL   C14523233   6.753   0.792   6.655 -0.0531 -0.8603 -0.8716
  105MOL   C14623234   6.769   0.853   6.527 -0.4541  0.1275  0.4257
  105MOL   C14723235   6.693   0.961   6.488 -0.2188  0.2979 -0.2482
  105MOL   C14823236   6.597   1.013   6.577  1.3546  0.9192  0.0744
  105MOL   C14923237   6.581   0.947   6.702  0.2032 -0.3658  0.5414
  105MOL   C15023238   6.654   0.834   6.743 -0.0280  0.2624 -0.0651
  105MOL   O15123239   6.637   0.785   6.870 -0.5655 -0.5051 -0.5248
  105MOL   H15223240   6.806   0.701   6.678 -0.9862 -1.2407 -0.2142
  105MOL   H15323241   6.831   0.808   6.451  3.2101  3.1860  1.4240
  105MOL   H15423242   6.533   1.098   6.559  0.0833  0.8641  3.8901
  105MOL   H15523243   6.503   0.987   6.766 -1.4767 -0.0325 -1.6294
  105MOL   C15623244   6.420   0.500   6.832 -0.6370  0.2243 -0.0420
  105MOL   C15723245   6.464   0.632   6.824 -0.4086  0.0438  0.0981
  105MOL   C15823246   6.582   0.662   6.891 -0.6939 -0.1449 -0.0643
  105MOL   C15923247   6.653   0.572   6.970 -0.2877  0.1558 -0.6344
  105MOL   C16023248   6.607   0.441   6.976  0.0181 -0.6378  0.0441
  105MOL   C16123249   6.484   0.400   6.914 -0.5109  0.3373 -0.9406
  105MOL   O16223250   6.446   0.266   6.927  0.0378 -0.3110  0.1110
  105MOL   H16323251   6.339   0.475   6.764  0.0156 -0.4043 -0.5939
  105MOL   H16423252   6.407   0.708   6.772  0.3351  0.9466  0.5818
  105MOL   H16523253   6.750   0.594   7.012 -0.5896  0.6727 -0.2025
  105MOL   H16623254   6.654   0.366   7.037  1.6444 -1.6564 -2.4061
  105MOL   C16723255   6.100   0.191   6.826 -0.0998  0.0603  0.2578
  105MOL   C16823256   6.242   0.201   6.827  0.1513 -0.6728 -0.3092
  105MOL   C16923257   6.313   0.240   6.945  0.0321 -0.3019 -0.1434
  105MOL   C17023258   6.243   0.257   7.070  0.1675 -0.2039 -0.2591
  105MOL   C17123259   6.104   0.250   7.075 -0.4749  0.7348  0.0978
  105MOL   C17223260   6.032   0.217   6.950 -0.1830  0.4831 -0.0553
  105MOL   O17323261   5.896   0.208   6.951 -0.4748 -0.1415  0.2801
  105MOL   H17423262   6.053   0.145   6.741 -0.7849 -1.5429  1.4891
  105MOL   H17523263   6.305   0.174   6.743  1.4132  1.2653 -0.0203
  105MOL   H17623264   6.298   0.266   7.162 -0.5126 -1.2383  0.2571
  105MOL   H17723265   6.049   0.262   7.167 -1.0677 -0.3610 -0.1002
  105MOL   C17823266   5.721   8.222   6.725  0.2954 -0.0472  0.1506
  105MOL   C17923267   5.768   0.087   6.785  0.0162  0.3005 -0.2509
  105MOL   C18023268   5.851   0.085   6.896  0.6963 -0.2048  0.3085
  105MOL   C18123269   5.872   8.216   6.957  0.8535  0.5270 -0.7808
  105MOL   C18223270   5.824   8.093   6.905 -0.3799  0.0728  0.7261
  105MOL   C18323271   5.750   8.099   6.785  0.4331  0.4301  0.2810
  105MOL   O18423272   5.715   7.986   6.716 -0.0469 -0.5017  0.2882
  105MOL   H18523273   5.674   8.232   6.628  0.1460 -1.0124  0.1186
  105MOL   H18623274   5.736   0.168   6.722  2.1263 -0.3305 -2.2048
  105MOL   H18723275   5.931   8.223   7.048  2.0707 -0.8754 -1.4442
  105MOL   H18823276   5.852   8.005   6.960  2.0967  0.8245  0.7029
  105MOL   C18923277   5.377   7.880   6.832 -0.2996  0.1212 -0.0927
  105MOL   C19023278   5.509   7.931   6.830 -0.4429 -0.4877  0.6570
  105MOL   C19123279   5.580   7.945   6.711  0.2208 -0.3576 -0.2461
  105MOL   C19223280   5.530   7.902   6.592 -0.1055  0.2079  0.2550
  105MOL   C19323281   5.395   7.854   6.591 -0.5643  0.0904 -0.6008
  105MOL   C19423282   5.320   7.842   6.707 -0.2566  0.3584  0.1785
  105MOL   O19523283   5.188   7.796   6.698 -0.3082  0.5283 -0.0744
  105MOL   H19623284   5.323   7.872   6.925 -1.4215 -2.6851 -0.9311
  105MOL   H19723285   5.551   7.960   6.925  0.7375 -0.3092  0.0829
  105MOL   H19823286   5.585   7.929   6.503 -0.2165 -0.8870 -0.1471
  105MOL   H19923287   5.350   7.843   6.493 -3.7980 -0.7325  0.8985
  105MOL   C20023288   4.988   7.577   6.909  0.7585  0.8098  0.3478
  105MOL   C20123289   5.042   7.693   6.851  0.2366  0.0647 -0.0634
  105MOL   C20223290   5.150   7.682   6.765  0.2627  0.4942  0.1507
  105MOL   C20323291   5.211   7.555   6.739  0.5280 -0.3814  0.2142
  105MOL   C20423292   5.161   7.438   6.802 -0.1901 -0.5281  0.0132
  105MOL   C20523293   5.049   7.452   6.888  0.5146 -0.1909 -0.6117
  105MOL   O20623294   4.985   7.339   6.943  0.3290 -0.2544 -0.1453
  105MOL   H20723295   4.899   7.578   6.969 -0.4331  0.3645 -1.3607
  105MOL   H20823296   4.998   7.789   6.869  0.1558  0.2497 -1.1806
  105MOL   H20923297   5.301   7.551   6.680 -0.0918  2.7976 -1.0568
  105MOL   H21023298   5.193   7.336   6.790  0.3578 -0.4762  0.9639
  105MOL   C21123299   5.047   7.269   7.289 -0.0154 -0.2136 -0.9868
  105MOL   C21223300   5.059   7.271   7.151 -0.0868  0.7518 -0.3112
  105MOL   C21323301   4.957   7.326   7.072 -0.2670 -1.0321 -0.4853
  105MOL   C21423302   4.843   7.385   7.130 -0.1550 -0.0692  0.2263
  105MOL   C21523303   4.843   7.396   7.270  0.5791 -0.1639 -0.8711
  105MOL   C21623304   4.944   7.338   7.344  0.2145  0.4231 -0.7679
  105MOL   O21723305   4.935   7.354   7.478  0.3496  0.3225  0.2236
  105MOL   H21823306   5.117   7.210   7.346 -1.3935 -1.5083 -0.5966
  105MOL   H21923307   5.141   7.215   7.109  0.6671  1.5744  0.0568
  105MOL   H22023308   4.764   7.421   7.065  0.5870 -0.7478 -1.0794
  105MOL   H22123309   4.759   7.440   7.322 -0.5521 -2.1914 -0.9108
  105MOL   H22223310   4.846   7.373   7.503  0.4098  1.9754 -0.7604
  106MOL     C123311   5.285   4.552   4.337  0.1159 -0.6224 -0.2068
  106MOL     C223312   5.391   4.474   4.395  0.3767  0.2117 -0.2590
  106MOL     C323313   5.523   4.511   4.362 -0.1609  1.0484 -0.0562
  106MOL     C423314   5.563   4.610   4.270 -0.1639 -0.1200  0.1478
  106MOL     C523315   5.456   4.680   4.205 -0.6128  0.1981  0.3868
  106MOL     C623316   5.323   4.654   4.241  0.0594 -0.5301 -0.5742
  106MOL     O723317   5.226   4.738   4.195 -0.2138  0.0460  0.3349
  106MOL     H823318   5.188   4.533   4.379  0.9081  2.3743  3.2186
  106MOL     H923319   5.372   4.402   4.473 -0.4060 -0.6915 -1.2674
  106MOL    H1023320   5.667   4.616   4.242  0.1193 -2.3515  0.6584
  106MOL    H1123321   5.474   4.745   4.121 -0.3636 -1.6139 -1.0059
  106MOL    H1223322   5.596   4.451   4.414  0.8015  0.8987 -1.5426
  106MOL    C1323323   4.893   4.593   4.142  0.0279 -0.3853 -0.4623
  106MOL    C1423324   4.997   4.658   4.202 -0.0842 -0.3937 -0.1308
  106MOL    C1523325   5.123   4.679   4.133  0.5984 -0.1234  1.5201
  106MOL    C1623326   5.132   4.641   4.000  0.7726 -0.8245  0.9058
  106MOL    C1723327   5.017   4.587   3.933 -0.2135 -0.3989 -0.2061
  106MOL    C1823328   4.904   4.556   4.008  0.6510 -0.4634 -0.0374
  106MOL    O1923329   4.789   4.499   3.954 -0.6588 -1.1838 -0.1443
  106MOL    H2023330   4.804   4.583   4.203 -0.2916  0.0910 -0.8507
  106MOL    H2123331   4.992   4.687   4.306  0.8082  1.0361 -0.4834
  106MOL    H2223332   5.225   4.668   3.954  0.4379 -1.5539 -0.2324
  106MOL    H2323333   5.021   4.575   3.825  1.5427 -1.0129 -0.0957
  106MOL    C2423334   4.677   4.170   4.057  0.3739  0.4317 -0.0459
  106MOL    C2523335   4.689   4.307   4.039  1.0935 -0.3430 -0.4765
  106MOL    C2623336   4.790   4.362   3.957  1.1338 -0.5446 -0.8043
  106MOL    C2723337   4.881   4.280   3.891  0.0327  0.2694  0.5175
  106MOL    C2823338   4.869   4.139   3.906 -0.1570 -0.2437 -0.0472
  106MOL    C2923339   4.768   4.083   3.990  0.0402  0.1270  0.3528
  106MOL    O3023340   4.759   3.945   4.004 -0.0213 -0.1848  0.1018
  106MOL    H3123341   4.599   4.131   4.121  0.2325 -0.2868 -0.6565
  106MOL    H3223342   4.621   4.367   4.097 -1.3024 -3.4358  0.0425
  106MOL    H3323343   4.965   4.321   3.836  0.1379 -0.6024  0.0293
  106MOL    H3423344   4.942   4.079   3.854 -1.4194 -0.4097 -1.6795
  106MOL    C3523345   4.915   3.730   3.752 -0.4825 -0.1263  0.5150
  106MOL    C3623346   4.891   3.795   3.872  0.1176  0.3980  0.5195
  106MOL    C3723347   4.772   3.867   3.894  0.5018  0.0640  0.2717
  106MOL    C3823348   4.674   3.863   3.796  0.0586  0.2214 -0.2569
  106MOL    C3923349   4.694   3.796   3.675  0.1132 -0.3770 -0.7349
  106MOL    C4023350   4.818   3.740   3.647 -0.4679  0.4007 -0.2853
  106MOL    O4123351   4.842   3.686   3.522 -0.4533 -0.8198 -0.0363
  106MOL    H4223352   5.005   3.670   3.743  1.7128  2.6046  3.3019
  106MOL    H4323353   4.963   3.790   3.953  0.2286  1.9818  0.5414
  106MOL    H4423354   4.583   3.917   3.818  0.5885  0.9614  0.1505
  106MOL    H4523355   4.616   3.805   3.601  0.8396  1.3989 -1.3226
  106MOL    C4623356   4.988   3.962   3.329  0.1265  0.1731 -0.7632
  106MOL    C4723357   4.903   3.898   3.428  0.2997  0.1092  0.1935
  106MOL    C4823358   4.919   3.759   3.436  0.2901  0.0891 -0.4212
  106MOL    C4923359   5.010   3.689   3.361 -0.2432  0.1287  0.4805
  106MOL    C5023360   5.095   3.754   3.270 -0.3622  0.4080  0.0525
  106MOL    C5123361   5.093   3.892   3.258  0.4276  0.3852  0.0830
  106MOL    O5223362   5.173   3.953   3.163 -0.2278  0.4151 -0.2216
  106MOL    H5323363   4.989   4.069   3.315 -0.1978  0.3394  0.4812
  106MOL    H5423364   4.844   3.972   3.480  1.4180  2.5467 -1.9068
  106MOL    H5523365   5.016   3.583   3.384  2.5703 -0.1395 -1.3194
  106MOL    H5623366   5.173   3.703   3.217 -0.2619  2.4714 -1.8936
  106MOL    C5723367   5.140   4.328   3.141 -0.2611  0.1599  0.4422
  106MOL    C5823368   5.192   4.201   3.177 -1.3652  0.0832 -0.2626
  106MOL    C5923369   5.138   4.081   3.121 -0.5281 -0.8040 -0.6797
  106MOL    C6023370   5.035   4.098   3.026 -0.2915  0.1649 -0.0003
  106MOL    C6123371   4.981   4.221   2.988 -0.0412  0.5295  0.7099
  106MOL    C6223372   5.039   4.338   3.040  0.2462  0.0323  0.5070
  106MOL    O6323373   5.000   4.458   2.986 -0.2833  0.0664 -0.2781
  106MOL    H6423374   5.182   4.415   3.189  0.2905 -0.2396  0.6895
  106MOL    H6523375   5.270   4.193   3.251 -0.5687  1.0499 -0.9674
  106MOL    H6623376   4.993   4.016   2.969  1.4975 -0.3015 -0.6682
  106MOL    H6723377   4.908   4.231   2.909  0.7598  0.1491 -0.0909
  106MOL    C6823378   5.210   4.746   2.927 -0.6065 -0.7229 -0.1393
  106MOL    C6923379   5.150   4.620   2.912 -0.0124 -0.4698  0.1381
  106MOL    C7023380   5.074   4.571   3.013  0.1262  0.2353 -0.0256
  106MOL    C7123381   5.052   4.644   3.130 -0.2989 -1.0949  0.0079
  106MOL    C7223382   5.115   4.769   3.148  0.6474  0.4286  0.2136
  106MOL    C7323383   5.200   4.820   3.053 -0.1664  0.5385  0.4106
  106MOL    O7423384   5.277   4.930   3.061 -0.2718  0.5094  0.3575
  106MOL    H7523385   5.271   4.781   2.845  1.0457  3.0365  2.5488
  106MOL    H7623386   5.157   4.571   2.816  1.4961  3.1659 -1.6919
  106MOL    H7723387   4.968   4.612   3.190 -1.0682 -0.2252 -0.6086
  106MOL    H7823388   5.082   4.840   3.222 -0.1260  0.8580 -0.5341
  106MOL    C7923389   5.428   4.979   3.389 -0.1566  0.0784 -0.4542
  106MOL    C8023390   5.399   4.920   3.262 -0.0051 -0.2168  0.1081
  106MOL    C8123391   5.306   4.987   3.180  0.6815 -0.9844  0.2050
  106MOL    C8223392   5.242   5.109   3.225  0.4327  0.3750 -0.6167
  106MOL    C8323393   5.263   5.160   3.351  0.1882  0.1096  0.0278
  106MOL    C8423394   5.359   5.093   3.429 -0.0072  0.2677  0.1026
  106MOL    O8523395   5.379   5.143   3.552  0.9109  0.6976 -0.3303
  106MOL    H8623396   5.499   4.924   3.449 -0.7737 -0.0988  0.1238
  106MOL    H8723397   5.451   4.834   3.223 -0.3779 -0.9689  1.2245
  106MOL    H8823398   5.168   5.150   3.158  0.5949 -1.6904 -2.1227
  106MOL    H8923399   5.210   5.239   3.401 -1.5709 -1.3964  0.6080
  106MOL    C9023400   5.630   5.346   3.742 -0.1774 -0.5812  0.1204
  106MOL    C9123401   5.513   5.280   3.701  0.1137  0.2259  0.2618
  106MOL    C9223402   5.497   5.221   3.575 -0.0071  0.1085 -0.4022
  106MOL    C9323403   5.597   5.245   3.476  0.4349 -0.7711  0.1769
  106MOL    C9423404   5.713   5.318   3.513  0.5896  0.9765  0.0442
  106MOL    C9523405   5.728   5.372   3.642 -0.2294  0.9320  0.6025
  106MOL    O9623406   5.843   5.447   3.664 -0.2685 -0.2793  0.3266
  106MOL    H9723407   5.634   5.391   3.840  1.1220 -1.7562  0.6174
  106MOL    H9823408   5.437   5.273   3.777 -0.6914 -1.0117 -0.6262
  106MOL    H9923409   5.594   5.202   3.377  1.2743 -0.2023 -0.1094
  106MOL   H10023410   5.791   5.332   3.439  1.5703  0.7143  1.0081
  106MOL   C10123411   5.740   5.807   3.683 -0.3733  0.5293 -0.3494
  106MOL   C10223412   5.736   5.665   3.675  0.3405  0.4902  0.4051
  106MOL   C10323413   5.851   5.586   3.677  0.0105  0.5525 -0.3071
  106MOL   C10423414   5.975   5.652   3.694  0.8023 -0.0750 -0.2685
  106MOL   C10523415   5.984   5.790   3.701 -0.1096 -0.3052 -0.3797
  106MOL   C10623416   5.866   5.867   3.709  0.0875  0.2252  0.1456
  106MOL   O10723417   5.878   6.001   3.736 -0.2421  0.0944 -0.1338
  106MOL   H10823418   5.654   5.873   3.675  0.5479  2.0538  1.9768
  106MOL   H10923419   5.638   5.621   3.663  0.8990 -0.2896 -1.5020
  106MOL   H11023420   6.066   5.594   3.685  1.5176  1.0951 -0.6991
  106MOL   H11123421   6.078   5.843   3.697 -0.2017  0.0663  1.7947
  106MOL   C11223422   6.079   6.118   4.023  1.3292  0.2731 -0.5908
  106MOL   C11323423   6.048   6.077   3.891  0.2265 -0.2011 -0.4277
  106MOL   C11423424   5.914   6.040   3.863 -0.4129  0.4060  0.4090
  106MOL   C11523425   5.822   6.026   3.970 -0.0359 -0.1672  0.1481
  106MOL   C11623426   5.863   6.062   4.100  0.2345 -0.9283 -0.5193
  106MOL   C11723427   5.988   6.112   4.131 -0.1404  0.2069  0.0646
  106MOL   O11823428   6.031   6.140   4.259  0.5661  0.5579  0.7223
  106MOL   H11923429   6.182   6.143   4.047  0.6117 -0.2605  3.4251
  106MOL   H12023430   6.121   6.093   3.814  1.1584 -3.2015 -0.2536
  106MOL   H12123431   5.720   5.993   3.956  0.1427 -0.7811  0.2827
  106MOL   H12223432   5.798   6.050   4.186 -1.8764 -3.1571 -2.3660
  106MOL   C12323433   6.108   6.498   4.309 -0.1812  0.2270  0.3223
  106MOL   C12423434   6.033   6.379   4.286  0.8355  0.1335  0.0796
  106MOL   C12523435   6.101   6.254   4.275 -0.7596 -0.0802  0.5431
  106MOL   C12623436   6.236   6.244   4.304 -0.2487  0.1456 -0.5089
  106MOL   C12723437   6.307   6.360   4.331  0.1458 -0.5017 -0.2538
  106MOL   C12823438   6.244   6.485   4.331 -0.2125 -0.7246  0.0772
  106MOL   O12923439   6.312   6.601   4.349 -0.4786  0.3140 -0.2027
  106MOL   H13023440   6.064   6.595   4.326 -0.3962  0.1221  0.3746
  106MOL   H13123441   5.928   6.371   4.263  1.5127 -2.1848 -2.6142
  106MOL   H13223442   6.293   6.153   4.309  1.0670  0.9716 -0.1601
  106MOL   H13323443   6.414   6.348   4.339 -0.0937 -2.4572  0.3519
  106MOL   C13423444   6.341   6.676   4.707  0.4721  0.0637 -0.0980
  106MOL   C13523445   6.287   6.630   4.591  0.5255  0.2388 -0.4520
  106MOL   C13623446   6.365   6.630   4.471  0.2050  0.2100 -0.1267
  106MOL   C13723447   6.503   6.676   4.479 -0.1732  0.1438  0.4054
  106MOL   C13823448   6.554   6.710   4.605  0.4284 -0.2755 -0.2005
  106MOL   C13923449   6.473   6.715   4.724  0.4284 -0.5335  0.0865
  106MOL   O14023450   6.529   6.749   4.847  0.1481 -0.1164 -0.0038
  106MOL   H14123451   6.276   6.673   4.793  1.3645 -1.1449  0.5493
  106MOL   H14223452   6.183   6.598   4.595  0.2716  0.7775 -2.1743
  106MOL   H14323453   6.559   6.690   4.387 -0.3391 -0.3402  0.2274
  106MOL   H14423454   6.652   6.755   4.615 -0.4101  1.3621  0.8162
  106MOL   C14523455   6.466   7.025   5.089 -0.0942 -0.8364  0.3339
  106MOL   C14623456   6.505   6.962   4.968  0.5676 -0.2210  0.1686
  106MOL   C14723457   6.466   6.830   4.941  0.3302 -0.1214  0.0944
  106MOL   C14823458   6.377   6.764   5.030 -0.0276  0.1044  0.0954
  106MOL   C14923459   6.332   6.834   5.144 -0.0709  0.5876  0.0983
  106MOL   C15023460   6.374   6.959   5.173  0.8845 -0.4158 -0.6165
  106MOL   O15123461   6.325   7.024   5.284 -0.6850 -0.1111 -0.1700
  106MOL   H15223462   6.485   7.130   5.104 -0.3525 -0.3999 -2.0985
  106MOL   H15323463   6.559   7.009   4.887 -0.3198  1.9890  0.8320
  106MOL   H15423464   6.342   6.663   5.011  2.2835 -0.9958  1.4159
  106MOL   H15523465   6.257   6.783   5.203 -0.5479 -0.8016 -1.6337
  106MOL   C15623466   6.017   7.179   5.147 -0.2021  0.6621 -0.4189
  106MOL   C15723467   6.148   7.130   5.153  0.0491  0.2975 -0.0013
  106MOL   C15823468   6.200   7.082   5.276  1.0727  0.2215  0.7429
  106MOL   C15923469   6.118   7.087   5.388 -0.0039 -0.0390 -0.5589
  106MOL   C16023470   5.994   7.144   5.385  0.4072  0.5343  0.1876
  106MOL   C16123471   5.937   7.183   5.266 -0.0690 -0.5391 -0.6115
  106MOL   O16223472   5.811   7.237   5.262  0.1284  0.1093 -0.1739
  106MOL   H16323473   5.966   7.225   5.063 -0.9864  1.8553  0.6944
  106MOL   H16423474   6.203   7.127   5.060  0.6635  1.3354  0.3233
  106MOL   H16523475   6.157   7.058   5.485 -0.8135  2.5624  0.5862
  106MOL   H16623476   5.937   7.160   5.475 -1.0844  0.6438 -0.7507
  106MOL   C16723477   5.702   7.551   5.425 -0.3604  0.2825  0.2191
  106MOL   C16823478   5.704   7.416   5.377  0.1515  0.1576 -0.7989
  106MOL   C16923479   5.806   7.370   5.289 -0.5444 -0.6675  0.5009
  106MOL   C17023480   5.902   7.461   5.233 -0.2521  0.1120 -0.3583
  106MOL   C17123481   5.902   7.595   5.278  0.3409 -0.2948 -0.1044
  106MOL   C17223482   5.809   7.633   5.373 -0.4689  0.6380  0.3726
  106MOL   O17323483   5.816   7.765   5.411 -0.0615 -0.2919 -0.4637
  106MOL   H17423484   5.638   7.600   5.496  0.3202  0.9546  0.3729
  106MOL   H17523485   5.630   7.350   5.420  0.2502  1.5029  1.5214
  106MOL   H17623486   5.968   7.435   5.151  0.8128 -0.3307  0.6302
  106MOL   H17723487   5.964   7.669   5.230  0.4781  0.3902  1.1077
  106MOL   C17823488   5.974   7.971   5.666 -0.1193  0.0524  0.0749
  106MOL   C17923489   5.896   7.932   5.552 -0.6016  0.2475  0.3655
  106MOL   C18023490   5.869   7.796   5.533  0.7478  0.0348  0.8122
  106MOL   C18123491   5.915   7.703   5.628  0.7500 -0.6974  0.0584
  106MOL   C18223492   5.982   7.747   5.742 -0.0761 -0.2829  0.7894
  106MOL   C18323493   6.010   7.878   5.760  0.6659 -0.4436  0.4526
  106MOL   O18423494   6.080   7.916   5.871 -0.0082 -0.4858 -0.4367
  106MOL   H18523495   6.004   8.074   5.670 -0.0860  0.0247  0.6114
  106MOL   H18623496   5.859   7.999   5.476  0.1483 -0.0187 -0.2418
  106MOL   H18723497   5.890   7.598   5.634 -2.3251  0.0900  1.8533
  106MOL   H18823498   6.025   7.677   5.813  2.5988 -0.4177 -0.8924
  106MOL   C18923499   5.811   7.994   6.122  0.3682  0.5831  0.2479
  106MOL   C19023500   5.880   7.931   6.016 -0.1059  0.1268 -0.1915
  106MOL   C19123501   6.015   7.969   5.983 -0.5240 -0.4907  0.1715
  106MOL   C19223502   6.074   8.070   6.056 -0.2851  0.7594  0.9819
  106MOL   C19323503   6.017   8.124   6.170  0.0275  0.0681 -0.1392
  106MOL   C19423504   5.884   8.085   6.204 -0.2973 -0.1254  0.4151
  106MOL   O19523505   5.816   8.133   6.316  0.0219 -0.2619 -0.3372
  106MOL   H19623506   5.718   7.951   6.156  0.1540 -0.0045 -1.0617
  106MOL   H19723507   5.834   7.855   5.953  0.5203  0.6799 -1.3391
  106MOL   H19823508   6.176   8.104   6.041  0.1570 -1.4643 -1.5591
  106MOL   H19923509   6.067   8.197   6.232 -0.4359 -0.9409  1.4377
  106MOL   C20023510   5.753   0.252   6.320 -1.2319 -1.0667 -0.4568
  106MOL   C20123511   5.750   0.113   6.290 -0.7338  0.2011  0.2859
  106MOL   C20223512   5.836   0.015   6.348  0.5568 -0.5084 -0.2298
  106MOL   C20323513   5.934   0.062   6.437 -0.0667  0.0659 -0.0373
  106MOL   C20423514   5.945   0.200   6.461  0.2497  0.1134  0.1281
  106MOL   C20523515   5.857   0.295   6.410  0.1844 -1.0312 -0.0617
  106MOL   O20623516   5.867   0.431   6.442 -0.0692 -0.3795  0.3056
  106MOL   H20723517   5.677   0.321   6.286 -1.6910 -1.1955  0.3061
  106MOL   H20823518   5.671   0.083   6.222  0.9987  0.1272 -1.7398
  106MOL   H20923519   5.998   8.238   6.474  0.6735 -0.0040 -1.4237
  106MOL   H21023520   6.030   0.228   6.520  2.0642 -2.7712 -0.9764
  106MOL   C21123521   5.762   0.458   6.792 -0.5636  0.3678  0.3517
  106MOL   C21223522   5.750   0.446   6.651 -0.2585 -0.2633  0.7600
  106MOL   C21323523   5.869   0.455   6.572  0.3906  0.2887  0.3101
  106MOL   C21423524   5.989   0.498   6.634 -0.1536  0.0719 -0.2805
  106MOL   C21523525   5.991   0.533   6.773  0.4747  0.0204  0.1294
  106MOL   C21623526   5.880   0.508   6.852 -0.6985  0.1410 -0.1877
  106MOL   O21723527   5.881   0.538   6.981 -0.2358  0.2383  0.1884
  106MOL   H21823528   5.677   0.444   6.858 -0.9994  3.5747  0.5479
  106MOL   H21923529   5.657   0.415   6.606 -1.0880  1.2628  1.3788
  106MOL   H22023530   6.079   0.506   6.576  1.4806  0.6838  2.2426
  106MOL   H22123531   6.080   0.572   6.821  1.7071 -3.0790  0.4211
  106MOL   H22223532   5.974   0.545   6.999  0.5639 -1.4229 -2.8554
  107MOL     C123533   7.040   6.578   7.016  0.8304 -0.3849 -0.0211
  107MOL     C223534   7.089   6.467   7.092  0.4585  0.9255  0.7364
  107MOL     C323535   7.005   6.368   7.129  0.2177  0.4921  0.1452
  107MOL     C423536   6.874   6.352   7.087 -0.0413  0.0598  0.5411
  107MOL     C523537   6.828   6.459   7.014 -0.3604  1.2052  0.0559
  107MOL     C623538   6.905   6.576   6.978 -0.2606  0.4021 -0.7854
  107MOL     O723539   6.849   6.681   6.903  0.2276 -0.1718 -0.2469
  107MOL     H823540   7.101   6.663   6.987 -1.8626  0.5627 -3.1300
  107MOL     H923541   7.188   6.483   7.133  1.3331  2.5328 -1.9219
  107MOL    H1023542   6.810   6.270   7.118  0.1179 -0.1891  0.2121
  107MOL    H1123543   6.724   6.460   6.984  0.2035  1.0602 -1.9807
  107MOL    H1223544   7.031   6.300   7.209 -0.4004  0.2758  0.1649
  107MOL    C1323545   6.860   7.007   7.094  0.2950  0.3383 -0.5669
  107MOL    C1423546   6.820   6.876   7.059 -0.0784 -0.2038  0.3581
  107MOL    C1523547   6.873   6.811   6.944  0.9532  0.9135 -0.2105
  107MOL    C1623548   6.954   6.886   6.863  0.0354 -0.2334  0.0545
  107MOL    C1723549   6.994   7.018   6.887 -0.4648  0.3860 -0.1950
  107MOL    C1823550   6.943   7.074   7.007  0.2620 -0.4249  0.5103
  107MOL    O1923551   6.984   7.200   7.036 -0.2102  1.2216 -0.4333
  107MOL    H2023552   6.818   7.060   7.178  0.0340  0.4278 -0.7547
  107MOL    H2123553   6.748   6.834   7.129  0.8619 -0.2261  1.3195
  107MOL    H2223554   6.979   6.845   6.766 -1.8995  0.1928 -0.6415
  107MOL    H2323555   7.047   7.083   6.819  2.4490 -2.6016 -0.8673
  107MOL    C2423556   6.986   7.347   7.365  0.7407  0.4493 -0.1495
  107MOL    C2523557   6.948   7.314   7.236  0.2955  0.5144 -0.1575
  107MOL    C2623558   7.027   7.233   7.157  0.3141 -0.3979 -0.4346
  107MOL    C2723559   7.150   7.191   7.215 -0.1840  0.3124 -0.0563
  107MOL    C2823560   7.188   7.215   7.354  0.0676 -0.2092  0.1529
  107MOL    C2923561   7.110   7.312   7.422 -0.3240 -0.7675 -0.9066
  107MOL    O3023562   7.142   7.355   7.556 -0.0035  0.4838  0.2110
  107MOL    H3123563   6.908   7.395   7.423  0.5051 -0.2587  0.1251
  107MOL    H3223564   6.848   7.340   7.204 -0.0521  0.5381  0.9247
  107MOL    H3323565   7.192   7.111   7.156 -0.5538 -0.8261  1.1934
  107MOL    H3423566   7.268   7.166   7.407 -1.0374 -0.7680  1.3061
  107MOL    C3523567   7.168   7.693   7.673  0.3633 -0.8553  0.4779
  107MOL    C3623568   7.118   7.571   7.636  0.0912  0.4910  0.4341
  107MOL    C3723569   7.198   7.479   7.570  0.5893 -0.6061 -1.1236
  107MOL    C3823570   7.327   7.521   7.528  0.3790  0.1380 -0.5765
  107MOL    C3923571   7.378   7.647   7.561  0.4943 -0.5918 -0.2926
  107MOL    C4023572   7.294   7.737   7.634 -0.1654 -0.6652 -0.6165
  107MOL    O4123573   7.345   7.855   7.692 -0.2293  0.3192  0.0930
  107MOL    H4223574   7.103   7.748   7.740 -1.4428  0.5119 -2.2883
  107MOL    H4323575   7.018   7.540   7.664 -0.4293  0.9162 -0.9445
  107MOL    H4423576   7.398   7.458   7.476  1.6700 -0.0330  1.3643
  107MOL    H4523577   7.476   7.680   7.530  0.0036 -1.0861 -2.4197
  107MOL    C4623578   7.338   8.227   7.695 -0.2751 -0.0818  0.6019
  107MOL    C4723579   7.346   8.094   7.737  0.0080  0.0388  0.2492
  107MOL    C4823580   7.318   7.982   7.653  0.0077 -0.3293  0.1623
  107MOL    C4923581   7.284   8.008   7.519 -0.7366 -0.0570  0.3166
  107MOL    C5023582   7.288   8.139   7.470  0.2686 -0.3782  0.4244
  107MOL    C5123583   7.307   8.247   7.554 -0.3915  0.3700 -0.3034
  107MOL    O5223584   7.312   0.123   7.514 -0.3593  0.5848  0.8731
  107MOL    H5323585   7.377   0.046   7.765  0.6351 -1.6141  1.7262
  107MOL    H5423586   7.395   8.082   7.833 -2.3467  0.9613  1.6115
  107MOL    H5523587   7.278   7.925   7.451 -0.3279 -0.4844  0.7970
  107MOL    H5623588   7.281   8.167   7.366  0.7018  0.9134  0.7305
  107MOL    C5723589   7.009   0.297   7.661 -0.0169 -0.6084  0.5077
  107MOL    C5823590   7.117   0.202   7.653  0.4538 -0.5032  0.1405
  107MOL    C5923591   7.211   0.212   7.552 -0.1135 -0.1856 -0.6309
  107MOL    C6023592   7.211   0.333   7.486 -0.1465 -0.0977 -0.3901
  107MOL    C6123593   7.114   0.433   7.495  0.6425  1.0817 -0.4382
  107MOL    C6223594   7.005   0.417   7.581  0.1474  0.6256 -0.1999
  107MOL    O6323595   6.912   0.513   7.582  0.1010  0.1107 -0.0049
  107MOL    H6423596   6.931   0.268   7.730 -1.3556  0.1774 -0.6681
  107MOL    H6523597   7.106   0.122   7.725  0.7484 -0.5736  0.1056
  107MOL    H6623598   7.296   0.350   7.422  1.0077 -1.3921  0.7413
  107MOL    H6723599   7.121   0.522   7.434 -0.7012  1.0187 -0.6903
  107MOL    C6823600   6.629   0.372   7.379 -0.5854 -0.7470  0.5811
  107MOL    C6923601   6.768   0.400   7.415  0.0143 -0.7183 -0.2864
  107MOL    C7023602   6.790   0.475   7.539 -0.1443  0.0580  0.7812
  107MOL    C7123603   6.673   0.505   7.613 -0.0837 -0.0203  0.7360
  107MOL    C7223604   6.543   0.465   7.576  0.0811 -0.3018  0.1340
  107MOL    C7323605   6.517   0.408   7.451  0.2988  0.1361  0.5739
  107MOL    O7423606   6.398   0.362   7.415  0.4684 -0.7080 -0.1141
  107MOL    H7523607   6.610   0.321   7.285  1.9676 -1.0859  0.2056
  107MOL    H7623608   6.850   0.388   7.345  0.9663  0.1609  0.6630
  107MOL    H7723609   6.677   0.571   7.699  0.9493  0.3001  0.4466
  107MOL    H7823610   6.460   0.490   7.641  0.2154 -0.1710  0.2543
  107MOL    C7923611   6.077   0.541   7.490  0.0745  0.1790 -0.3279
  107MOL    C8023612   6.179   0.445   7.486 -0.4419  0.1275 -0.3282
  107MOL    C8123613   6.293   0.457   7.403  0.0882 -0.5071 -0.5289
  107MOL    C8223614   6.292   0.558   7.308 -0.4629  0.5155  0.4547
  107MOL    C8323615   6.186   0.652   7.306 -0.0455  0.0362 -1.1653
  107MOL    C8423616   6.079   0.644   7.399 -0.1985 -0.1330  0.8149
  107MOL    O8523617   5.977   0.733   7.393  0.1376 -0.1213  0.3971
  107MOL    H8623618   6.007   0.527   7.571 -0.4598  1.1319 -0.6177
  107MOL    H8723619   6.170   0.362   7.554  1.5644 -1.3247 -1.7712
  107MOL    H8823620   6.374   0.569   7.240 -0.2390 -0.8397  0.4935
  107MOL    H8923621   6.195   0.742   7.247 -0.2403  1.1588  0.4831
  107MOL    C9023622   5.949   1.090   7.292 -0.4020  0.0861  0.0181
  107MOL    C9123623   5.917   0.956   7.315  0.3081 -0.2656  0.1429
  107MOL    C9223624   6.008   0.869   7.384  0.4284 -0.1993  0.6426
  107MOL    C9323625   6.128   0.924   7.441 -0.1115 -0.5737 -0.1399
  107MOL    C9423626   6.158   1.060   7.416  0.1208 -0.4594 -1.1348
  107MOL    C9523627   6.069   1.141   7.348 -0.4105  0.3120 -0.3399
  107MOL    O9623628   6.107   1.272   7.323 -0.0037 -0.1192  0.0168
  107MOL    H9723629   5.880   1.155   7.240 -0.3549  0.3067  0.2260
  107MOL    H9823630   5.820   0.924   7.279 -1.0550  0.9694  2.5245
  107MOL    H9923631   6.197   0.864   7.498  0.1400  0.1345  0.2997
  107MOL   H10023632   6.254   1.094   7.452 -0.0149  0.0648 -1.2618
  107MOL   C10123633   6.262   1.477   7.597 -0.1289  0.0872  0.3166
  107MOL   C10223634   6.254   1.398   7.482 -0.7768  0.1933 -0.0586
  107MOL   C10323635   6.128   1.351   7.437 -0.4545 -0.4999  0.2306
  107MOL   C10423636   6.021   1.404   7.497  0.2951  0.3558 -0.2270
  107MOL   C10523637   6.025   1.485   7.614 -0.1086  0.9599  0.3820
  107MOL   C10623638   6.149   1.531   7.665  0.3210 -0.6589 -0.2805
  107MOL   O10723639   6.156   1.616   7.774 -0.8497 -0.3875  0.4753
  107MOL   H10823640   6.357   1.506   7.639 -0.4080  1.0013  0.3215
  107MOL   H10923641   6.344   1.369   7.430 -1.9865 -0.9978 -1.5721
  107MOL   H11023642   5.929   1.362   7.461  0.4794  0.3491 -0.6902
  107MOL   H11123643   5.933   1.509   7.664  0.4688  0.3620  1.7476
  107MOL   C11223644   6.016   1.950   7.820  0.1871  0.7581 -0.0632
  107MOL   C11323645   6.043   1.814   7.824  0.8838 -0.1756  0.6451
  107MOL   C11423646   6.134   1.749   7.741  0.4695  0.2710  0.1669
  107MOL   C11523647   6.194   1.819   7.638  0.8341 -0.5292  0.0449
  107MOL   C11623648   6.171   1.963   7.629 -0.4655 -0.5533 -1.1402
  107MOL   C11723649   6.081   2.026   7.720  0.7068  0.4788 -0.6319
  107MOL   O11823650   6.058   2.163   7.713  0.2934 -0.0022 -0.3522
  107MOL   H11923651   5.950   1.991   7.895  1.3331  2.0548  0.2567
  107MOL   H12023652   5.990   1.762   7.903 -0.5436  0.7587  0.3229
  107MOL   H12123653   6.264   1.768   7.573  0.8667  0.3430 -0.6263
  107MOL   H12223654   6.224   2.029   7.562 -0.2203  0.0680 -0.3443
  107MOL   C12323655   6.061   2.355   7.394  0.5027  0.1931  0.7455
  107MOL   C12423656   6.103   2.308   7.522  0.5714 -0.0012 -0.0822
  107MOL   C12523657   6.017   2.220   7.593  0.4856  0.5067 -0.6771
  107MOL   C12623658   5.888   2.196   7.538 -0.0909  0.6169 -0.1880
  107MOL   C12723659   5.852   2.238   7.411 -0.6228  0.9004 -0.7498
  107MOL   C12823660   5.937   2.319   7.337  0.3368  0.3582  0.4719
  107MOL   O12923661   5.895   2.369   7.217 -0.6610 -0.1973  0.5148
  107MOL   H13023662   6.122   2.425   7.339  2.6572 -1.0510  1.4807
  107MOL   H13123663   6.197   2.342   7.563  0.8422  0.3533 -0.9947
  107MOL   H13223664   5.812   2.139   7.589 -0.6589  1.6190  0.0957
  107MOL   H13323665   5.750   2.225   7.377 -1.0437  1.8119  0.1417
  107MOL   C13423666   6.047   2.387   6.888  0.0730 -1.1052  0.1002
  107MOL   C13523667   5.987   2.424   7.008 -0.3433  0.0639 -0.7109
  107MOL   C13623668   5.967   2.329   7.107 -0.4981  0.4596 -0.1860
  107MOL   C13723669   6.015   2.197   7.089 -0.4964  0.6064 -0.5714
  107MOL   C13823670   6.083   2.155   6.972  0.3264  0.2484  0.3995
  107MOL   C13923671   6.099   2.258   6.876  0.0484  1.0275  0.1964
  107MOL   O14023672   6.171   2.236   6.761 -0.3353 -0.0472 -0.1337
  107MOL   H14123673   6.065   2.458   6.809 -1.4673  1.3159  1.8674
  107MOL   H14223674   5.948   2.524   7.022 -1.2681 -0.3762 -0.0587
  107MOL   H14323675   5.999   2.138   7.178 -2.4040  2.5377  0.4096
  107MOL   H14423676   6.108   2.052   6.951 -0.8684 -0.1277  0.7731
  107MOL   C14523677   6.527   2.233   6.828 -0.1020  0.1573  0.3846
  107MOL   C14623678   6.392   2.197   6.824  0.5298  0.3708  0.2184
  107MOL   C14723679   6.302   2.271   6.754 -0.4260  0.3213  0.1476
  107MOL   C14823680   6.342   2.382   6.675 -0.5818 -0.1717 -0.1948
  107MOL   C14923681   6.479   2.427   6.694  0.1212  0.1604 -0.1859
  107MOL   C15023682   6.571   2.344   6.749  0.0160  0.4700  0.1807
  107MOL   O15123683   6.701   2.389   6.763  0.7381 -0.1373  0.1118
  107MOL   H15223684   6.592   2.164   6.879  0.9256  0.7346 -0.1185
  107MOL   H15323685   6.362   2.101   6.863 -0.6366  1.1606  1.2984
  107MOL   H15423686   6.282   2.450   6.617  0.3528  1.3844  0.6230
  107MOL   H15523687   6.500   2.527   6.658 -2.5859  0.6500 -0.5054
  107MOL   C15623688   6.797   2.668   6.543  0.6256 -0.4137  0.0624
  107MOL   C15723689   6.754   2.597   6.657 -0.0186  0.3511  0.2735
  107MOL   C15823690   6.752   2.454   6.656  0.0629  0.3007  0.8893
  107MOL   C15923691   6.806   2.383   6.546 -0.1273 -0.5095  0.1298
  107MOL   C16023692   6.855   2.456   6.436  0.5714 -0.4161  0.0428
  107MOL   C16123693   6.847   2.598   6.432  1.0508 -0.0578  0.5085
  107MOL   O16223694   6.883   2.666   6.311  0.2042 -0.2870 -0.1338
  107MOL   H16323695   6.798   2.776   6.539  1.3301 -0.4785 -2.0016
  107MOL   H16423696   6.715   2.643   6.746  0.2130  2.6279 -0.7482
  107MOL   H16523697   6.813   2.275   6.540  1.6715 -0.4275  0.4687
  107MOL   H16623698   6.880   2.412   6.341 -3.2885  0.4643 -1.4975
  107MOL   C16723699   6.579   2.821   6.162 -0.3488  0.0177 -0.0440
  107MOL   C16823700   6.692   2.794   6.244 -0.1494 -0.2891  0.1508
  107MOL   C16923701   6.782   2.689   6.220  0.3313 -0.1029 -0.8124
  107MOL   C17023702   6.770   2.609   6.099 -0.2098 -0.0166 -0.6100
  107MOL   C17123703   6.659   2.632   6.023  0.1850  0.0109  0.2301
  107MOL   C17223704   6.566   2.734   6.048  0.2360  0.0553  0.2823
  107MOL   O17323705   6.453   2.732   5.980 -0.4295  0.0263 -0.4019
  107MOL   H17423706   6.507   2.898   6.186 -0.0931 -0.0927  1.1093
  107MOL   H17523707   6.716   2.856   6.329 -1.3660 -2.4915  2.2078
  107MOL   H17623708   6.834   2.525   6.078 -0.6153 -0.3754 -0.4368
  107MOL   H17723709   6.652   2.574   5.933  1.0252  0.8644 -0.3977
  107MOL   C17823710   6.399   2.698   5.618 -0.8921  0.6291 -0.3792
  107MOL   C17923711   6.410   2.671   5.760 -0.5309  0.4008 -0.8581
  107MOL   C18023712   6.457   2.764   5.850 -0.3471 -0.7611 -0.1866
  107MOL   C18123713   6.502   2.887   5.810  1.2436 -0.5310  0.6474
  107MOL   C18223714   6.500   2.924   5.672  0.4323  0.0789  1.2707
  107MOL   C18323715   6.441   2.829   5.579  0.0021  0.0546  0.8254
  107MOL   O18423716   6.430   2.866   5.448  0.6141 -0.2034  1.2593
  107MOL   H18523717   6.357   2.625   5.549  0.2729  0.7456 -1.2376
  107MOL   H18623718   6.373   2.579   5.801 -1.2724  1.9112  2.0122
  107MOL   H18723719   6.535   2.959   5.883  0.1890 -2.2660  2.8974
  107MOL   H18823720   6.548   3.017   5.646 -0.7611  0.3529 -0.0460
  107MOL   C18923721   6.696   2.687   5.256  0.1882 -0.2086 -0.5902
  107MOL   C19023722   6.586   2.707   5.344 -0.1646 -0.5563 -0.1404
  107MOL   C19123723   6.548   2.843   5.371  0.3430 -0.1326 -0.2816
  107MOL   C19223724   6.623   2.956   5.323  0.4137 -0.3408  0.1846
  107MOL   C19323725   6.739   2.923   5.257 -0.6237 -0.4469 -0.1348
  107MOL   C19423726   6.781   2.795   5.224  0.5613 -0.1348 -0.1565
  107MOL   O19523727   6.891   2.779   5.152 -0.2059 -0.0704  0.1158
  107MOL   H19623728   6.719   2.588   5.218 -1.1535 -0.8984  0.3154
  107MOL   H19723729   6.530   2.624   5.384  0.3207  0.4298  2.7481
  107MOL   H19823730   6.598   3.059   5.344 -0.2140 -0.5190  0.3171
  107MOL   H19923731   6.807   3.005   5.235 -3.3509  2.0035  0.1890
  107MOL   C20023732   7.149   2.529   5.182 -0.0582  0.5184  0.2947
  107MOL   C20123733   7.031   2.592   5.147  0.1934 -0.4151 -0.3725
  107MOL   C20223734   6.995   2.707   5.211 -0.8208  0.1299  0.2059
  107MOL   C20323735   7.061   2.746   5.324  0.4902 -0.1476  0.1983
  107MOL   C20423736   7.165   2.668   5.376 -0.0285  0.5428  0.2150
  107MOL   C20523737   7.211   2.553   5.300  0.2588  0.0206 -0.6018
  107MOL   O20623738   7.322   2.485   5.334 -0.5921  0.0545 -0.2151
  107MOL   H20723739   7.181   2.444   5.125  0.7337  1.8027 -1.2258
  107MOL   H20823740   6.993   2.557   5.053  1.4507 -1.8451 -0.3564
  107MOL   H20923741   7.022   2.830   5.380 -0.1126  0.1851 -0.7126
  107MOL   H21023742   7.210   2.701   5.468 -0.7745  1.2531  0.3371
  107MOL   C21123743   7.423   2.511   5.697 -0.2721  0.2497  0.3768
  107MOL   C21223744   7.344   2.492   5.578  0.3316  0.3998  0.7572
  107MOL   C21323745   7.397   2.508   5.447 -0.3507  0.1408 -0.6687
  107MOL   C21423746   7.529   2.562   5.439  0.6222  0.5831 -0.1378
  107MOL   C21523747   7.598   2.596   5.549  0.4655 -0.2871 -0.5067
  107MOL   C21623748   7.549   2.574   5.680  0.1806 -1.1482 -0.7178
  107MOL   O21723749   7.617   2.604   5.789 -0.4154 -0.1163 -0.3274
  107MOL   H21823750   7.386   2.499   5.798  2.2508 -0.0878  1.2747
  107MOL   H21923751   7.243   2.454   5.590 -0.7072  2.2576 -1.7977
  107MOL   H22023752   7.583   2.593   5.351 -0.3482 -0.3541 -1.0790
  107MOL   H22123753   7.698   2.634   5.532  0.4204  0.1968  0.3122
  107MOL   H22223754   7.553   2.612   5.858 -1.4890  0.8523 -1.3963
  108MOL     C123755   1.742   3.406   2.435 -0.6987  0.2463 -0.3793
  108MOL     C223756   1.683   3.289   2.487 -0.5868  0.3756 -0.6505
  108MOL     C323757   1.603   3.294   2.601  0.1199  1.1130  0.0374
  108MOL     C423758   1.580   3.424   2.659  0.1134  0.5854 -0.5732
  108MOL     C523759   1.637   3.538   2.608 -0.4962  1.0008  0.3939
  108MOL     C623760   1.723   3.530   2.500  0.6983 -0.0918 -0.2016
  108MOL     O723761   1.772   3.646   2.444 -0.1507  0.5985 -0.4423
  108MOL     H823762   1.813   3.399   2.354  0.3993 -1.8232  0.7079
  108MOL     H923763   1.699   3.200   2.427 -0.7102 -0.1777  0.1276
  108MOL    H1023764   1.511   3.441   2.740  0.0372 -0.6996 -0.3718
  108MOL    H1123765   1.611   3.638   2.640 -0.2724  1.1925 -0.0192
  108MOL    H1223766   1.542   3.210   2.630 -2.6626  2.2827 -2.1471
  108MOL    C1323767   1.518   3.765   2.203 -0.1694  0.7258  0.2770
  108MOL    C1423768   1.579   3.724   2.323  0.4422  0.1965 -0.4888
  108MOL    C1523769   1.716   3.695   2.326 -0.2778 -0.3807  0.9350
  108MOL    C1623770   1.792   3.721   2.210 -0.2183  0.5447 -0.2647
  108MOL    C1723771   1.732   3.769   2.091 -0.6291 -0.3373 -0.6228
  108MOL    C1823772   1.594   3.779   2.084 -0.2929 -0.2226 -0.3836
  108MOL    O1923773   1.539   3.825   1.965 -0.1224 -0.3371 -0.7329
  108MOL    H2023774   1.411   3.781   2.200 -0.3386 -0.3959  0.1662
  108MOL    H2123775   1.525   3.703   2.414 -0.1543 -1.0068 -1.1063
  108MOL    H2223776   1.898   3.701   2.215 -0.5377 -0.8036  1.5178
  108MOL    H2323777   1.787   3.809   2.007 -2.1133  1.1337 -0.9135
  108MOL    C2423778   1.514   3.631   1.670  0.1340 -0.1873  0.1636
  108MOL    C2523779   1.564   3.725   1.758 -0.0414  0.3970 -0.1533
  108MOL    C2623780   1.499   3.729   1.882  0.0999  0.2419 -0.4853
  108MOL    C2723781   1.387   3.644   1.914  0.0189 -0.6936  0.0592
  108MOL    C2823782   1.349   3.544   1.827 -0.6449  0.8949 -0.2466
  108MOL    C2923783   1.411   3.542   1.704  1.2019 -0.2971  0.6209
  108MOL    O3023784   1.363   3.456   1.611 -0.1519 -0.2300 -0.0967
  108MOL    H3123785   1.557   3.621   1.571  0.6444 -1.9579  0.5493
  108MOL    H3223786   1.646   3.790   1.731 -0.7773  1.6054  0.4708
  108MOL    H3323787   1.338   3.655   2.010 -1.2223  0.3173 -0.6697
  108MOL    H3423788   1.267   3.478   1.848 -1.1290  0.2645 -3.7718
  108MOL    C3523789   1.087   3.427   1.368 -0.1409 -0.4530  0.2214
  108MOL    C3623790   1.197   3.397   1.448  0.2921 -0.0677  0.1437
  108MOL    C3723791   1.255   3.492   1.532 -0.2321  0.5135  0.0998
  108MOL    C3823792   1.193   3.623   1.544  0.4002  0.8519  0.4475
  108MOL    C3923793   1.082   3.654   1.463 -0.5318  0.2636 -0.4858
  108MOL    C4023794   1.026   3.551   1.382 -0.5897  0.3069 -0.3039
  108MOL    O4123795   0.926   3.590   1.295  0.5406 -0.0495 -0.3746
  108MOL    H4223796   1.058   3.350   1.297  0.3753  0.4633 -1.0029
  108MOL    H4323797   1.245   3.300   1.445  1.3263  0.2457  3.7000
  108MOL    H4423798   1.220   3.692   1.622 -1.6631  1.7358  0.4123
  108MOL    H4523799   1.046   3.756   1.460 -1.4716 -0.0514  0.0196
  108MOL    C4623800   0.616   3.431   1.447  0.2816 -0.2712  0.3047
  108MOL    C4723801   0.749   3.476   1.431 -0.2469 -0.0657  0.4653
  108MOL    C4823802   0.795   3.552   1.316  0.1654 -0.7355 -0.3938
  108MOL    C4923803   0.699   3.602   1.226  0.3377 -0.5209 -0.1142
  108MOL    C5023804   0.561   3.573   1.251 -1.1244 -0.3231  0.1893
  108MOL    C5123805   0.519   3.487   1.362  0.0370  0.2192  0.3353
  108MOL    O5223806   0.387   3.465   1.375 -0.2357 -0.4271 -0.1197
  108MOL    H5323807   0.594   3.350   1.514 -1.2025 -0.1421 -0.0109
  108MOL    H5423808   0.824   3.434   1.497 -2.1597 -1.9824  1.5225
  108MOL    H5523809   0.735   3.662   1.144 -0.9416 -1.3002 -1.2652
  108MOL    H5623810   0.487   3.611   1.182  1.1395 -0.5345 -2.4370
  108MOL    C5723811   0.203   3.751   1.507 -0.6216 -0.2398  0.4165
  108MOL    C5823812   0.299   3.648   1.494 -0.6491  0.0295  1.0835
  108MOL    C5923813   0.298   3.566   1.379  0.3016 -0.4283 -0.2366
  108MOL    C6023814   0.216   3.597   1.271  0.0900 -1.0864 -0.5049
  108MOL    C6123815   0.115   3.699   1.284  0.1345  1.1907 -0.2446
  108MOL    C6223816   0.110   3.778   1.401 -0.0446 -0.3932 -0.6932
  108MOL    O6323817   0.023   3.876   1.413  0.0930  0.0185 -0.2605
  108MOL    H6423818   0.212   3.805   1.600 -0.2805 -1.7752  1.2912
  108MOL    H6523819   0.368   3.630   1.575  1.9552  1.2625 -0.7566
  108MOL    H6623820   0.210   3.543   1.177  1.8367 -0.4964 -0.9819
  108MOL    H6723821   0.056   3.724   1.198 -0.7845  0.4045  0.1448
  108MOL    C6823822   0.127   4.214   1.336 -0.1796 -0.1498 -0.5144
  108MOL    C6923823   0.088   4.081   1.314 -0.3298  0.3968 -0.0852
  108MOL    C7023824   0.064   4.004   1.428  0.7000  0.2470  0.0481
  108MOL    C7123825   0.063   4.059   1.556  0.6091  0.2706  0.0374
  108MOL    C7223826   0.097   4.191   1.575  0.3087  0.0456  0.3561
  108MOL    C7323827   0.115   4.276   1.460  0.2357 -0.1255 -0.2118
  108MOL    O7423828   0.139   4.408   1.488 -0.5790 -0.0427  0.3853
  108MOL    H7523829   0.161   4.267   1.248  1.6908  0.2041  0.3982
  108MOL    H7623830   0.105   4.040   1.216  1.7748  0.6617  0.1489
  108MOL    H7723831   0.033   3.990   1.634 -0.4263 -0.8610 -1.3507
  108MOL    H7823832   0.113   4.241   1.670  2.0433  2.2599 -1.0302
  108MOL    C7923833   0.464   4.533   1.344 -0.0464  0.4729  0.1816
  108MOL    C8023834   0.328   4.492   1.353  0.4752 -0.1946 -0.0158
  108MOL    C8123835   0.272   4.452   1.474 -0.2344 -0.3261  0.1410
  108MOL    C8223836   0.354   4.454   1.590  0.0080  0.1805  0.5705
  108MOL    C8323837   0.484   4.511   1.584 -0.0958  0.1379 -0.3862
  108MOL    C8423838   0.540   4.553   1.459 -0.0959 -0.4893  0.1674
  108MOL    O8523839   0.670   4.591   1.457 -0.4872 -0.5308 -0.0199
  108MOL    H8623840   0.514   4.535   1.248  1.3138 -0.4557  0.8440
  108MOL    H8723841   0.272   4.478   1.262 -2.6855  0.0945  1.8072
  108MOL    H8823842   0.316   4.427   1.687 -1.3653 -0.0650 -0.0281
  108MOL    H8923843   0.542   4.508   1.675  2.2132 -0.1433 -1.8276
  108MOL    C9023844   0.663   4.947   1.557  0.0746 -0.1678 -0.1598
  108MOL    C9123845   0.617   4.819   1.514 -0.1975 -0.7457 -0.4797
  108MOL    C9223846   0.710   4.715   1.492  0.3303  0.1228  0.5234
  108MOL    C9323847   0.842   4.744   1.504 -0.9361  0.1980  0.0291
  108MOL    C9423848   0.886   4.872   1.545 -0.6320 -0.0699 -0.0402
  108MOL    C9523849   0.798   4.973   1.582 -0.1905 -0.3354 -0.5469
  108MOL    O9623850   0.845   5.099   1.616 -0.6086 -0.2877 -0.3113
  108MOL    H9723851   0.599   5.034   1.562 -1.4952 -1.3824  1.6259
  108MOL    H9823852   0.511   4.797   1.520 -0.6191  0.9618 -1.3554
  108MOL    H9923853   0.914   4.664   1.490 -0.3612  0.8150 -0.5438
  108MOL   H10023854   0.994   4.879   1.549 -0.8097  2.5853  0.7607
  108MOL   C10123855   0.862   5.311   1.319 -0.1496 -0.0729 -0.1151
  108MOL   C10223856   0.829   5.196   1.395  0.0025  0.4525 -0.1539
  108MOL   C10323857   0.877   5.200   1.525 -0.3731  0.2680 -0.7062
  108MOL   C10423858   0.957   5.307   1.574  0.6575 -0.3767  0.0316
  108MOL   C10523859   0.993   5.417   1.496 -0.1625  0.2440  0.3134
  108MOL   C10623860   0.950   5.413   1.360  1.0402  0.5814  0.2921
  108MOL   O10723861   0.964   5.525   1.279 -0.1710 -0.2738 -0.0860
  108MOL   H10823862   0.823   5.327   1.219 -1.3420  2.3300  0.7155
  108MOL   H10923863   0.767   5.112   1.370  1.2505  0.1833 -2.4455
  108MOL   H11023864   0.979   5.306   1.680  0.9651 -2.0973 -0.0453
  108MOL   H11123865   1.045   5.503   1.536  0.3396 -0.3190  0.8753
  108MOL   C11223866   1.333   5.515   1.238  0.5480  0.0660 -0.4846
  108MOL   C11323867   1.202   5.474   1.257  0.6397  0.5266  0.1775
  108MOL   C11423868   1.093   5.566   1.257 -0.3857  0.1151  0.5194
  108MOL   C11523869   1.118   5.699   1.227  0.3905 -0.3500 -0.0695
  108MOL   C11623870   1.253   5.740   1.206  0.1673  1.2769 -0.1153
  108MOL   C11723871   1.362   5.654   1.211  0.4845 -0.0371  0.2134
  108MOL   O11823872   1.487   5.708   1.216  0.3523 -0.2291  0.3489
  108MOL   H11923873   1.413   5.443   1.250  0.6026  0.6480  3.1582
  108MOL   H12023874   1.186   5.370   1.280 -3.3755  1.6383  2.7650
  108MOL   H12123875   1.038   5.769   1.206 -0.2077 -1.0432 -0.0966
  108MOL   H12223876   1.266   5.846   1.191  1.8935  1.0101 -0.6140
  108MOL   C12323877   1.659   5.915   0.958 -0.1434  0.0676  0.0380
  108MOL   C12423878   1.602   5.876   1.082 -0.3043  0.4157  0.4491
  108MOL   C12523879   1.548   5.744   1.097  1.3039  0.2688 -0.0608
  108MOL   C12623880   1.552   5.651   0.984 -0.1154  0.4087 -0.9636
  108MOL   C12723881   1.601   5.702   0.855 -0.0916  0.4014  0.1979
  108MOL   C12823882   1.651   5.831   0.844 -0.3689  0.8654  0.1770
  108MOL   O12923883   1.694   5.886   0.722 -0.0742  0.2913 -0.1078
  108MOL   H13023884   1.699   6.015   0.949 -0.5916  0.0823 -1.8594
  108MOL   H13123885   1.600   5.939   1.170 -0.7871 -0.3397  0.9824
  108MOL   H13223886   1.515   5.549   0.987 -0.0016  0.3778 -0.6673
  108MOL   H13323887   1.589   5.645   0.764  3.7731  0.7985 -0.6457
  108MOL   C13423888   1.458   6.049   0.491  0.0885  0.1990  0.4180
  108MOL   C13523889   1.551   6.036   0.593 -0.2345  0.1376 -0.1763
  108MOL   C13623890   1.597   5.909   0.629  0.3018 -0.3309  0.0347
  108MOL   C13723891   1.558   5.799   0.549 -0.1828 -0.1092  0.7367
  108MOL   C13823892   1.469   5.815   0.441  0.0566  0.2206 -0.0983
  108MOL   C13923893   1.408   5.938   0.419 -0.1041 -0.3916  0.1719
  108MOL   O14023894   1.313   5.950   0.332 -0.1142 -0.0210  0.2415
  108MOL   H14123895   1.416   6.147   0.477 -3.1272 -0.8794  2.0032
  108MOL   H14223896   1.581   6.121   0.652  0.5592 -1.3483  1.6171
  108MOL   H14323897   1.598   5.699   0.562 -2.4523 -0.9534  1.4375
  108MOL   H14423898   1.442   5.735   0.373  0.7001 -1.6227  1.7628
  108MOL   C14523899   1.031   6.108   0.512  0.1509 -0.1253 -0.3562
  108MOL   C14623900   1.131   6.016   0.471 -0.3689 -0.0653  0.3843
  108MOL   C14723901   1.212   6.038   0.358  0.0141 -0.2771 -0.2603
  108MOL   C14823902   1.199   6.162   0.286 -0.0019 -0.0883 -0.7664
  108MOL   C14923903   1.097   6.249   0.327 -0.5954  0.3074  0.3265
  108MOL   C15023904   1.020   6.230   0.442  0.6176 -0.0961 -0.1383
  108MOL   O15123905   0.936   6.323   0.488  0.1170  0.2037 -0.0496
  108MOL   H15223906   0.978   6.087   0.604  2.4298  0.2700  1.0902
  108MOL   H15323907   1.145   5.936   0.542 -0.8419  0.1450  0.7217
  108MOL   H15423908   1.264   6.182   0.203 -0.0348 -0.3929 -0.8641
  108MOL   H15523909   1.094   6.343   0.274 -0.4758  0.0206 -0.1887
  108MOL   C15623910   0.951   6.695   0.542  0.0378  0.0282 -0.5124
  108MOL   C15723911   0.908   6.567   0.502  0.3105  0.2148 -0.2027
  108MOL   C15823912   0.983   6.449   0.532 -0.1085  0.8326 -0.8408
  108MOL   C15923913   1.095   6.459   0.611 -0.2893  0.5133  0.3324
  108MOL   C16023914   1.155   6.588   0.635  0.0919  0.3735  0.2572
  108MOL   C16123915   1.077   6.703   0.608 -0.6286  0.1750  0.0601
  108MOL   O16223916   1.140   6.827   0.624 -0.1354 -0.4992  0.9150
  108MOL   H16323917   0.887   6.782   0.539 -2.5261 -1.8399 -2.7162
  108MOL   H16423918   0.815   6.554   0.450 -0.7249 -0.4739  1.7423
  108MOL   H16523919   1.148   6.368   0.636  0.3237  0.8011  0.0988
  108MOL   H16623920   1.251   6.600   0.683  0.2060 -1.4806  0.5074
  108MOL   C16723921   1.193   6.987   0.305 -0.2861 -0.0541 -0.2668
  108MOL   C16823922   1.134   6.952   0.425  0.1719  0.2137 -0.4900
  108MOL   C16923923   1.208   6.882   0.522  0.1665  0.0480  0.2761
  108MOL   C17023924   1.342   6.854   0.506 -0.0910  0.3261  0.4331
  108MOL   C17123925   1.399   6.902   0.388  0.8860 -0.5114 -0.1815
  108MOL   C17223926   1.330   6.961   0.287 -0.6295 -0.0073 -0.0507
  108MOL   O17323927   1.399   6.999   0.178 -0.4985  0.2412 -0.4812
  108MOL   H17423928   1.136   7.045   0.234  1.0578  0.4730 -0.9462
  108MOL   H17523929   1.029   6.972   0.441  0.3609  0.4905  0.3976
  108MOL   H17623930   1.399   6.796   0.577 -0.0924 -1.4126 -0.9552
  108MOL   H17723931   1.503   6.884   0.365  0.3839  0.8724 -3.8720
  108MOL   C17823932   1.358   6.753   8.160 -0.0959 -0.6012 -0.0979
  108MOL   C17923933   1.394   6.805   0.030 -0.0417  0.4863 -0.0001
  108MOL   C18023934   1.366   6.941   0.059 -0.0544  0.0152 -0.3088
  108MOL   C18123935   1.304   7.021   8.219 -0.0549  0.4490  0.3777
  108MOL   C18223936   1.284   6.969   8.090  0.4629 -0.3223  0.0082
  108MOL   C18323937   1.312   6.839   8.059  0.3312 -0.5638  0.1115
  108MOL   O18423938   1.291   6.788   7.937  0.2720  0.0003 -0.1467
  108MOL   H18523939   1.376   6.649   8.136 -0.2443 -0.7127  0.2798
  108MOL   H18623940   1.432   6.747   0.113 -0.1685  3.6710  2.3618
  108MOL   H18723941   1.289   7.124   8.248 -1.4422  0.3447  0.0876
  108MOL   H18823942   1.246   7.036   8.015 -0.4474  0.2761  0.9889
  108MOL   C18923943   0.999   6.849   7.708 -0.3634 -0.1047  0.0274
  108MOL   C19023944   1.133   6.835   7.756 -0.0147  0.4373 -0.6931
  108MOL   C19123945   1.156   6.786   7.887 -0.2618 -0.1772  0.0943
  108MOL   C19223946   1.053   6.725   7.963 -0.2001  0.6213 -0.5547
  108MOL   C19323947   0.922   6.731   7.909 -0.4621  0.4780 -0.7640
  108MOL   C19423948   0.893   6.795   7.788  0.7691 -0.7356  0.6862
  108MOL   O19523949   0.763   6.797   7.742  0.1060  0.5135  0.3949
  108MOL   H19623950   0.970   6.899   7.617 -0.7839  0.2651  0.3619
  108MOL   H19723951   1.214   6.874   7.696 -0.4033  0.9989 -0.8569
  108MOL   H19823952   1.063   6.682   8.061 -2.6717 -0.1528 -0.5983
  108MOL   H19923953   0.842   6.694   7.972  1.5348 -0.4025  1.3316
  108MOL   C20023954   0.631   7.119   7.634  0.7828 -0.0436 -0.2092
  108MOL   C20123955   0.700   6.999   7.632  0.2663  0.4925 -0.7520
  108MOL   C20223956   0.707   6.920   7.748  0.2120  0.0157  0.4682
  108MOL   C20323957   0.653   6.964   7.869  0.6661 -0.0559 -0.5845
  108MOL   C20423958   0.586   7.086   7.865  0.1975  0.1622  0.2944
  108MOL   C20523959   0.574   7.167   7.754 -0.0772  0.5567  0.2206
  108MOL   O20623960   0.506   7.285   7.752  0.2305  0.3289  0.7839
  108MOL   H20723961   0.632   7.186   7.549 -3.8391  0.3422 -0.0984
  108MOL   H20823962   0.751   6.961   7.545  0.7723 -0.1506 -0.1866
  108MOL   H20923963   0.643   6.902   7.958 -0.9518 -1.3525 -1.6355
  108MOL   H21023964   0.530   7.116   7.952 -0.5037  1.6662 -0.6643
  108MOL   C21123965   0.762   7.555   7.765 -0.1290  0.7880  0.0556
  108MOL   C21223966   0.706   7.428   7.784  0.2699 -0.3988  0.2505
  108MOL   C21323967   0.572   7.405   7.744  0.4320 -0.8884  0.4073
  108MOL   C21423968   0.497   7.517   7.701 -0.5162  0.6471 -0.6503
  108MOL   C21523969   0.550   7.646   7.687 -0.1528 -0.1587 -0.6598
  108MOL   C21623970   0.687   7.660   7.712  0.2863  0.2393 -0.2776
  108MOL   O21723971   0.749   7.772   7.680 -0.6900 -0.1427 -0.1444
  108MOL   H21823972   0.865   7.573   7.791  0.1010  0.8090 -0.8439
  108MOL   H21923973   0.771   7.351   7.825 -0.3005 -0.8985  0.2267
  108MOL   H22023974   0.393   7.511   7.675 -1.2169 -0.4099  2.2620
  108MOL   H22123975   0.486   7.729   7.658 -0.3729 -0.3414 -0.6954
  108MOL   H22223976   0.688   7.832   7.641  1.4938  0.1388 -3.2619
  109MOL     C123977   8.048   1.949   3.733  0.2503 -0.9019  0.7178
  109MOL     C223978   8.170   1.898   3.790 -0.4350  0.3973  0.0389
  109MOL     C323979   8.212   1.954   3.916  0.4435 -0.6160 -0.1934
  109MOL     C423980   8.133   2.056   3.978  0.3153  0.2345 -0.9877
  109MOL     C523981   8.011   2.098   3.919  0.5015 -0.4636 -0.4322
  109MOL     C623982   7.963   2.044   3.803 -0.2958 -0.7608  0.2701
  109MOL     O723983   7.848   2.100   3.762  0.6948 -0.4325  0.2141
  109MOL     H823984   8.010   1.908   3.640 -0.9466  1.6188  0.0564
  109MOL     H923985   8.231   1.822   3.744  0.2274  1.7097 -1.2831
  109MOL    H1023986   8.170   2.098   4.071  0.2598  1.3908 -1.4816
  109MOL    H1123987   7.947   2.170   3.968 -0.1844 -0.9336 -0.6353
  109MOL    H1223988   0.049   1.928   3.967  0.7932  1.7855  0.5076
  109MOL    C1323989   7.666   1.903   3.504  0.4096 -0.6366  0.0961
  109MOL    C1423990   7.711   1.949   3.630 -0.2659 -0.1653 -0.1360
  109MOL    C1523991   7.791   2.064   3.642 -0.5159 -0.4167 -0.1392
  109MOL    C1623992   7.804   2.151   3.529 -0.3645  0.0652  0.2262
  109MOL    C1723993   7.760   2.108   3.406  0.1273 -0.1748 -0.4965
  109MOL    C1823994   7.697   1.983   3.391 -0.4426 -0.0873 -0.2252
  109MOL    O1923995   7.651   1.938   3.270  0.1492 -0.6609 -0.3203
  109MOL    H2023996   7.611   1.811   3.491 -2.0717  0.9213 -0.7020
  109MOL    H2123997   7.689   1.895   3.721  0.2862 -0.3817 -0.1312
  109MOL    H2223998   7.863   2.240   3.542 -0.0022 -0.4551  2.3251
  109MOL    H2323999   7.774   2.174   3.322  2.5441  0.6554  0.5247
  109MOL    C2424000   7.939   1.791   3.093 -0.1242  1.0346  0.2013
  109MOL    C2524001   7.863   1.873   3.181  0.1547 -0.9503 -0.3408
  109MOL    C2624002   7.724   1.856   3.191 -0.1675  0.2717  0.2630
  109MOL    C2724003   7.656   1.776   3.097  0.1567 -0.5258  0.7965
  109MOL    C2824004   7.732   1.699   3.008 -0.1431  0.1343  0.3655
  109MOL    C2924005   7.875   1.706   2.999  0.3721 -0.0108 -0.7073
  109MOL    O3024006   7.951   1.629   2.913 -0.1271 -0.2323  0.3967
  109MOL    H3124007   8.046   1.803   3.094 -0.1521  1.4821  2.8975
  109MOL    H3224008   7.916   1.947   3.239 -1.8023  0.9894 -0.9588
  109MOL    H3324009   7.551   1.768   3.074  0.4687  0.4406 -0.9869
  109MOL    H3424010   7.673   1.644   2.937 -2.6276  2.1712  0.7623
  109MOL    C3524011   7.869   1.755   2.577 -0.8339  0.4323  0.1126
  109MOL    C3624012   7.896   1.750   2.711 -0.4591  0.4383  0.4589
  109MOL    C3724013   7.919   1.631   2.777  0.0421 -0.5356  0.1696
  109MOL    C3824014   7.913   1.505   2.708  0.2586 -0.6275 -0.4552
  109MOL    C3924015   7.884   1.512   2.569  0.0846  0.3742  0.4608
  109MOL    C4024016   7.874   1.634   2.506 -0.0408 -0.6992  1.0087
  109MOL    O4124017   7.871   1.638   2.370 -0.3039 -0.3323  0.4704
  109MOL    H4224018   7.864   1.848   2.523 -1.7387  0.5344  0.3652
  109MOL    H4324019   7.912   1.837   2.774  0.8590  0.8194 -0.3973
  109MOL    H4424020   7.931   1.408   2.751  2.9441 -0.1302 -0.3768
  109MOL    H4524021   7.882   1.419   2.513 -1.3017 -0.4469  1.8160
  109MOL    C4624022   7.519   1.546   2.278 -0.3796  0.0660 -0.1779
  109MOL    C4724023   7.626   1.603   2.348 -0.3919 -0.0092  0.0823
  109MOL    C4824024   7.758   1.594   2.297  0.0620  0.2330 -0.0526
  109MOL    C4924025   7.779   1.549   2.165  0.3586  0.4667  0.2243
  109MOL    C5024026   7.670   1.497   2.092 -0.4711  0.0556  0.4375
  109MOL    C5124027   7.542   1.489   2.153  0.1986  0.4839  0.3012
  109MOL    O5224028   7.431   1.430   2.089 -0.4055  0.0908 -0.4032
  109MOL    H5324029   7.423   1.536   2.324  0.3114  2.1966  1.8242
  109MOL    H5424030   7.609   1.651   2.443  1.3168  0.4404  0.1629
  109MOL    H5524031   7.870   1.551   2.107  0.2862 -1.6077  0.0014
  109MOL    H5624032   7.678   1.466   1.989  0.1981 -2.9959  1.3293
  109MOL    C5724033   7.437   1.142   1.863 -0.0509 -0.4882  0.8189
  109MOL    C5824034   7.427   1.278   1.908 -0.9923 -0.4756  0.4152
  109MOL    C5924035   7.447   1.303   2.045 -0.1816  0.0905 -0.7676
  109MOL    C6024036   7.489   1.202   2.132  0.5036 -0.1257 -0.1805
  109MOL    C6124037   7.513   1.071   2.082  0.2325 -0.4474  0.4544
  109MOL    C6224038   7.477   1.037   1.953  0.3743 -0.5020 -0.0664
  109MOL    O6324039   7.471   0.905   1.908  0.0462 -0.4596 -0.2579
  109MOL    H6424040   7.403   1.118   1.764 -0.6932  3.5581 -0.0295
  109MOL    H6524041   7.382   1.347   1.837 -0.7314 -0.0036  0.7056
  109MOL    H6624042   7.506   1.222   2.237 -1.1507  3.1578 -0.4594
  109MOL    H6724043   7.559   0.996   2.145  0.5487  0.4887  1.3594
  109MOL    C6824044   7.245   0.693   1.723  0.8865  0.3973  0.1493
  109MOL    C6924045   7.359   0.757   1.769  0.2659 -0.3633 -0.2242
  109MOL    C7024046   7.353   0.845   1.875 -0.3825 -0.1827  0.4145
  109MOL    C7124047   7.233   0.873   1.938  0.9683  0.2086 -0.2204
  109MOL    C7224048   7.117   0.810   1.889  0.6258  0.3732 -0.9269
  109MOL    C7324049   7.120   0.717   1.779  0.0968 -0.3892  0.2615
  109MOL    O7424050   7.009   0.650   1.741 -0.0136 -0.3540  0.0455
  109MOL    H7524051   7.244   0.619   1.645  0.8059  1.3614 -0.7791
  109MOL    H7624052   7.453   0.729   1.722  0.4383  1.3519 -0.9283
  109MOL    H7724053   7.210   0.947   2.014 -0.7901 -0.3313 -0.1923
  109MOL    H7824054   7.024   0.827   1.940  2.2517  1.6257  1.7062
  109MOL    C7924055   6.939   0.707   1.382  0.6605 -0.0874  0.3250
  109MOL    C8024056   6.960   0.735   1.521  0.1543 -0.7929 -0.5846
  109MOL    C8124057   6.979   0.628   1.608 -0.4145  0.2086  0.3713
  109MOL    C8224058   6.993   0.499   1.555 -0.1810  0.2635 -0.1540
  109MOL    C8324059   6.980   0.477   1.416 -0.0771 -1.1742  0.2355
  109MOL    C8424060   6.962   0.583   1.324 -0.2062 -0.3696 -0.5636
  109MOL    O8524061   6.944   0.566   1.191 -0.4778  0.3562 -0.0701
  109MOL    H8624062   6.922   0.793   1.319 -0.1860  1.1504  2.2016
  109MOL    H8724063   6.941   0.837   1.552 -2.2168 -0.7902 -1.9290
  109MOL    H8824064   7.013   0.413   1.617 -0.6684 -0.0869 -0.4714
  109MOL    H8924065   6.980   0.378   1.372  2.8487 -0.7979 -0.7292
  109MOL    C9024066   7.197   0.751   0.997  0.6550  0.1465 -0.8723
  109MOL    C9124067   7.093   0.728   1.088  0.1283  0.1827  0.3752
  109MOL    C9224068   7.038   0.595   1.105 -0.2277  0.1030  0.4245
  109MOL    C9324069   7.083   0.492   1.017  0.0102  0.3063 -0.1329
  109MOL    C9424070   7.184   0.519   0.918  0.4390  0.0501 -0.0042
  109MOL    C9524071   7.244   0.645   0.916  0.1772 -0.3243 -0.4623
  109MOL    O9624072   7.352   0.661   0.834  1.1236 -0.0967 -0.1035
  109MOL    H9724073   7.240   0.847   0.977  2.2814 -0.4304 -0.2042
  109MOL    H9824074   7.048   0.807   1.145 -0.4010 -1.1145  1.7740
  109MOL    H9924075   7.048   0.390   1.024 -0.6276  0.5964  0.9647
  109MOL   H10024076   7.210   0.438   0.851 -0.3534 -1.4897  1.4922
  109MOL   C10124077   7.280   0.604   0.473  0.0468  0.6746 -0.0222
  109MOL   C10224078   7.318   0.586   0.607 -0.0389  0.3311  0.6365
  109MOL   C10324079   7.320   0.686   0.703  0.1329 -0.4462  0.0409
  109MOL   C10424080   7.276   0.817   0.665 -0.3763  0.5517  0.1223
  109MOL   C10524081   7.244   0.835   0.532 -0.2154  0.6565  0.3859
  109MOL   C10624082   7.246   0.734   0.434 -0.1357 -0.3260  0.6599
  109MOL   O10724083   7.210   0.773   0.302 -0.0845 -0.2880  0.3731
  109MOL   H10824084   7.287   0.520   0.405  3.3759  0.0354  1.0154
  109MOL   H10924085   7.341   0.486   0.640  0.7565  0.8227  1.5770
  109MOL   H11024086   7.257   0.891   0.740 -1.2049  3.0546 -2.4688
  109MOL   H11124087   7.225   0.938   0.505 -0.3847  0.6218  0.3757
  109MOL   C11224088   7.426   0.743   8.252  0.9226 -0.2039 -0.4353
  109MOL   C11324089   7.314   0.738   0.084 -0.2691  0.7203  0.5631
  109MOL   C11424090   7.318   0.791   0.216 -0.1959  0.0370  0.3472
  109MOL   C11524091   7.436   0.860   0.261 -0.5394  0.0072 -0.6219
  109MOL   C11624092   7.547   0.856   0.172 -0.4341 -0.5326  0.3859
  109MOL   C11724093   7.544   0.796   0.045  0.0835  0.8191  0.0203
  109MOL   O11824094   7.655   0.787   8.214  0.2741  0.5970 -0.7369
  109MOL   H11924095   7.410   0.704   8.152 -0.8860 -2.8729  0.8398
  109MOL   H12024096   7.223   0.692   0.048  0.1152  1.0849 -0.9301
  109MOL   H12124097   7.437   0.918   0.352 -0.9494  1.5851 -1.6012
  109MOL   H12224098   7.635   0.906   0.208 -0.4311 -0.2894  0.0385
  109MOL   C12324099   7.940   0.996   0.041  0.2514  0.0235 -0.0324
  109MOL   C12424100   7.817   0.961   8.235 -0.3926  0.4384  0.2749
  109MOL   C12524101   7.772   0.828   0.003 -0.4666  0.0170  0.6527
  109MOL   C12624102   7.847   0.741   0.087 -1.0159  0.8690  0.4024
  109MOL   C12724103   7.971   0.778   0.142 -0.5966 -0.1390 -0.0599
  109MOL   C12824104   8.013   0.908   0.119  0.0311 -0.2108 -1.3316
  109MOL   O12924105   8.133   0.946   0.181  0.4545  0.1343 -0.5132
  109MOL   H13024106   7.978   1.098   0.040 -1.1257  0.5380 -1.0973
  109MOL   H13124107   7.757   1.021   8.168  1.5374 -0.0202 -1.9317
  109MOL   H13224108   7.804   0.643   0.097 -1.1475  0.8060 -0.8115
  109MOL   H13324109   8.028   0.707   0.199 -1.7287  0.0294  1.3073
  109MOL   C13424110   8.032   1.050   0.521  0.2167 -0.0154  0.5442
  109MOL   C13524111   8.039   0.978   0.401 -0.0872  1.0662 -0.8508
  109MOL   C13624112   8.126   1.020   0.296  0.3808 -0.4560  0.1927
  109MOL   C13724113   8.205   1.137   0.319  0.0029 -0.0059  0.6569
  109MOL   C13824114   8.196   1.211   0.436  0.1527 -0.7399  0.3049
  109MOL   C13924115   8.111   1.166   0.533  0.4760  0.1809 -0.7537
  109MOL   O14024116   8.111   1.225   0.660  0.1251  0.5151  0.4357
  109MOL   H14124117   7.965   1.024   0.602 -2.3170  0.5026 -1.3294
  109MOL   H14224118   7.982   0.887   0.390  2.6959 -0.6653 -1.3745
  109MOL   H14324119   0.019   1.176   0.246  0.8961  0.5517  1.7619
  109MOL   H14424120   0.007   1.297   0.441  0.2367 -0.6214 -1.9461
  109MOL   C14524121   7.789   1.409   0.703  0.8896  0.4750 -0.0830
  109MOL   C14624122   7.912   1.368   0.646 -0.4655  0.5530 -0.2421
  109MOL   C14724123   7.990   1.270   0.713 -0.1273 -0.3297  1.0018
  109MOL   C14824124   7.951   1.218   0.838  0.1759  0.1627  0.2368
  109MOL   C14924125   7.829   1.259   0.888  0.4123  0.6545  0.2140
  109MOL   C15024126   7.745   1.358   0.829 -0.2249  0.1750 -0.4655
  109MOL   O15124127   7.630   1.407   0.874 -0.5578 -0.7398 -0.2756
  109MOL   H15224128   7.717   1.478   0.660 -1.2766 -0.7714  1.4659
  109MOL   H15324129   7.949   1.416   0.557 -0.2872 -0.6925 -0.8365
  109MOL   H15424130   8.014   1.149   0.894  1.6791  1.2149 -0.1240
  109MOL   H15524131   7.793   1.228   0.985 -2.5806  1.0381 -0.7188
  109MOL   C15624132   7.472   1.139   1.084  0.5061 -1.1716  0.1932
  109MOL   C15724133   7.518   1.216   0.971  1.3273  0.0172  0.1682
  109MOL   C15824134   7.566   1.348   0.982 -0.0638  0.4973  0.0498
  109MOL   C15924135   7.556   1.414   1.108  0.5230  0.2191  0.0980
  109MOL   C16024136   7.503   1.338   1.217 -1.1178  0.2467  0.5670
  109MOL   C16124137   7.455   1.208   1.206  0.6856 -0.0855  0.5862
  109MOL   O16224138   7.400   1.153   1.314  0.0634  0.2945 -0.2032
  109MOL   H16324139   7.455   1.033   1.073 -0.5870 -1.2522  2.4097
  109MOL   H16424140   7.518   1.163   0.876  0.3929  0.1291  0.0998
  109MOL   H16524141   7.601   1.511   1.122  0.6609 -0.2430  3.3584
  109MOL   H16624142   7.475   1.384   1.311 -0.0422 -1.4945  1.7546
  109MOL   C16724143   7.558   0.828   1.385  0.1192 -1.1314  0.3008
  109MOL   C16824144   7.546   0.962   1.354 -0.1848 -0.5713  0.6766
  109MOL   C16924145   7.419   1.019   1.340 -0.3947 -0.2929  0.0732
  109MOL   C17024146   7.304   0.940   1.353  0.4049 -0.7621 -0.4142
  109MOL   C17124147   7.315   0.805   1.384 -1.0770  0.0423  0.6799
  109MOL   C17224148   7.440   0.751   1.399  0.3280 -0.4415 -0.8457
  109MOL   O17324149   7.455   0.619   1.433 -0.3739  0.2054 -0.1266
  109MOL   H17424150   7.652   0.778   1.405  0.8634  0.1213 -0.0372
  109MOL   H17524151   7.628   1.031   1.356 -1.3187  0.7525  1.8356
  109MOL   H17624152   7.204   0.979   1.341  0.5662  0.0884  0.8904
  109MOL   H17724153   7.227   0.743   1.375 -0.7834 -0.3277  0.3831
  109MOL   C17824154   7.438   0.389   1.145  0.7033 -0.0916  0.8620
  109MOL   C17924155   7.471   0.501   1.226  0.0605  0.7930 -0.3938
  109MOL   C18024156   7.407   0.521   1.350  0.4308 -0.3608  0.6353
  109MOL   C18124157   7.308   0.432   1.397  0.5265 -0.2158 -0.4979
  109MOL   C18224158   7.267   0.333   1.308 -0.0707  0.2230  0.1299
  109MOL   C18324159   7.336   0.307   1.187  0.5579  0.4429  0.2837
  109MOL   O18424160   7.292   0.216   1.099  0.1533 -0.3222  0.1073
  109MOL   H18524161   7.487   0.384   1.049  2.5549  0.0928  1.7629
  109MOL   H18624162   7.548   0.566   1.185 -1.4224  0.5874 -3.6921
  109MOL   H18724163   7.259   0.433   1.493  0.5363 -0.8066 -0.4829
  109MOL   H18824164   7.188   0.263   1.332  1.1603 -1.0216  0.6114
  109MOL   C18924165   7.373   8.139   1.235 -0.2525 -0.7035 -0.3429
  109MOL   C19024166   7.388   0.021   1.198 -0.3888  0.1619 -0.1010
  109MOL   C19124167   7.275   0.092   1.151  0.2738  0.0062  0.2298
  109MOL   C19224168   7.150   0.033   1.149 -0.0184 -0.9773  0.2110
  109MOL   C19324169   7.135   8.157   1.189  0.7492  0.3608  0.0688
  109MOL   C19424170   7.249   8.081   1.238 -0.6176 -0.3165 -0.6621
  109MOL   O19524171   7.231   7.956   1.288 -0.1478 -0.2774  0.5476
  109MOL   H19624172   7.459   8.082   1.267 -0.8006 -1.1768  0.3083
  109MOL   H19724173   7.483   0.072   1.200 -1.0157  1.3038  1.3470
  109MOL   H19824174   7.069   0.089   1.106  0.4067 -0.6226 -0.1284
  109MOL   H19924175   7.038   8.110   1.178  0.8335  0.1339  0.2644
  109MOL   C20024176   7.116   7.956   1.624  1.1539  0.3144  0.3209
  109MOL   C20124177   7.177   8.004   1.508 -0.0409  0.2025 -1.3575
  109MOL   C20224178   7.143   7.943   1.389  0.5542 -0.6960  0.2088
  109MOL   C20324179   7.034   7.860   1.374  0.2069 -0.7045  0.3321
  109MOL   C20424180   6.955   7.821   1.486 -0.2767 -1.3148 -0.8640
  109MOL   C20524181   7.009   7.858   1.612  0.4759  0.3961  1.1625
  109MOL   O20624182   6.941   7.812   1.721 -0.1107  0.2915  0.9249
  109MOL   H20724183   7.161   7.979   1.719 -0.2848  3.5539  0.2809
  109MOL   H20824184   7.260   8.073   1.511 -0.5617  0.7944 -0.1799
  109MOL   H20924185   7.004   7.826   1.276  1.2736  1.5457 -0.8120
  109MOL   H21024186   6.866   7.761   1.476  0.5657 -2.6737 -0.3355
  109MOL   C21124187   7.104   7.528   1.887  0.3345 -0.2925  1.2233
  109MOL   C21224188   7.038   7.604   1.789  0.6781 -0.6959  0.2176
  109MOL   C21324189   7.024   7.745   1.806  0.2469  0.0162 -0.0465
  109MOL   C21424190   7.084   7.807   1.918 -0.4191  0.0638 -0.3936
  109MOL   C21524191   7.150   7.731   2.019 -0.3062  0.7269 -0.0008
  109MOL   C21624192   7.152   7.589   1.998  0.3713  0.0735  0.6050
  109MOL   O21724193   7.213   7.514   2.094 -0.2063  0.3214 -0.1403
  109MOL   H21824194   7.124   7.424   1.863  1.9193  0.1327  0.6311
  109MOL   H21924195   6.988   7.557   1.706  2.1360 -1.0306 -0.4843
  109MOL   H22024196   7.069   7.914   1.926  0.8926  0.1928  0.5470
  109MOL   H22124197   7.183   7.761   2.117 -1.3550 -2.1899  1.3053
  109MOL   H22224198   7.250   7.567   2.163  0.7464 -0.5889  0.0557
  110MOL     C124199   2.760   5.603   2.728  0.2468 -0.3393 -0.0980
  110MOL     C224200   2.883   5.568   2.789 -0.2537  0.2417 -0.4865
  110MOL     C324201   2.952   5.457   2.737 -0.1581 -1.4692  0.1769
  110MOL     C424202   2.893   5.376   2.636 -0.9057 -0.1969 -0.2388
  110MOL     C524203   2.766   5.411   2.583 -0.3476 -0.4943 -0.1683
  110MOL     C624204   2.708   5.529   2.622 -0.2212  0.6412 -0.3007
  110MOL     O724205   2.591   5.569   2.562  0.0935 -0.0464  0.0495
  110MOL     H824206   2.711   5.693   2.761  2.8940  1.3879 -0.6736
  110MOL     H924207   2.922   5.600   2.884 -0.0552 -1.0265 -0.1237
  110MOL    H1024208   2.942   5.286   2.605  0.0352  0.0045  0.6558
  110MOL    H1124209   2.729   5.354   2.499 -0.7590 -0.1342 -0.2330
  110MOL    H1224210   3.039   5.417   2.787  1.0104 -0.8167 -1.2792
  110MOL    C1324211   2.293   5.480   2.760  0.2886 -0.1123 -0.2440
  110MOL    C1424212   2.409   5.467   2.682  0.0163  0.3967  0.0097
  110MOL    C1524213   2.480   5.581   2.640  0.1977 -0.8515  0.0674
  110MOL    C1624214   2.434   5.708   2.668 -0.3618  0.1696 -0.3151
  110MOL    C1724215   2.322   5.724   2.757 -0.4756  0.3876 -0.6424
  110MOL    C1824216   2.252   5.613   2.796  0.5425  0.3191  0.2941
  110MOL    O1924217   2.154   5.629   2.889  0.2244 -0.5793  0.0726
  110MOL    H2024218   2.236   5.394   2.793 -0.8316  0.3541 -0.9364
  110MOL    H2124219   2.436   5.366   2.653  2.9506  1.4600 -1.2117
  110MOL    H2224220   2.484   5.790   2.619 -1.4134  0.8841 -0.2206
  110MOL    H2324221   2.294   5.823   2.789  0.8321  0.2658  0.8946
  110MOL    C2424222   1.821   5.610   2.749  0.1259 -0.2437 -0.6604
  110MOL    C2524223   1.952   5.578   2.783  0.2632  0.8541 -0.7523
  110MOL    C2624224   2.031   5.670   2.850 -1.0427  0.0539  0.3300
  110MOL    C2724225   1.983   5.799   2.877  0.1492  0.5428 -0.2888
  110MOL    C2824226   1.851   5.835   2.849  0.7124 -0.3126  0.4338
  110MOL    C2924227   1.770   5.738   2.780 -0.1084 -0.1671  0.0745
  110MOL    O3024228   1.640   5.763   2.743 -0.5168  0.1587  0.3001
  110MOL    H3124229   1.764   5.531   2.702  0.4364 -0.7273 -0.2303
  110MOL    H3224230   1.982   5.477   2.760 -4.7673 -0.8935 -0.1943
  110MOL    H3324231   2.053   5.867   2.923 -0.7219  0.7052  0.8397
  110MOL    H3424232   1.811   5.933   2.873  0.1014 -0.1522 -1.2438
  110MOL    C3524233   1.458   5.909   3.028  0.5957 -0.1617  0.3352
  110MOL    C3624234   1.546   5.824   2.963 -0.1384  0.0496  0.1982
  110MOL    C3724235   1.569   5.841   2.825 -0.2482  1.1289 -0.5086
  110MOL    C3824236   1.502   5.937   2.758 -0.3798  0.1658  0.1557
  110MOL    C3924237   1.410   6.020   2.818  0.5301  1.0226 -0.6041
  110MOL    C4024238   1.380   6.001   2.956  0.2069  0.0899 -0.1200
  110MOL    O4124239   1.300   6.087   3.027 -0.4239  0.0134  0.6255
  110MOL    H4224240   1.441   5.903   3.135 -0.2779 -2.2251  0.1088
  110MOL    H4324241   1.598   5.743   3.011 -0.0076 -0.6811 -1.1533
  110MOL    H4424242   1.519   5.947   2.652 -0.0265 -3.6351 -0.1997
  110MOL    H4524243   1.353   6.087   2.755 -1.8439  0.4088  0.8137
  110MOL    C4624244   0.948   5.967   3.032 -0.7445  0.3260  0.2248
  110MOL    C4724245   1.090   5.975   3.038 -0.7807 -0.2852 -0.0234
  110MOL    C4824246   1.171   6.087   3.011  0.5731 -0.0495  0.0206
  110MOL    C4924247   1.098   6.201   2.960 -0.0219 -0.2845 -0.2042
  110MOL    C5024248   0.958   6.198   2.948 -0.4879 -0.2690  0.0116
  110MOL    C5124249   0.881   6.084   2.989  0.2276  0.1993  0.2855
  110MOL    O5224250   0.741   6.093   2.982 -0.2623 -0.4946 -0.9418
  110MOL    H5324251   0.897   5.874   3.054  0.9533 -0.7317 -0.2720
  110MOL    H5424252   1.140   5.887   3.073 -0.4669  0.5133  1.5769
  110MOL    H5524253   1.150   6.293   2.938  0.0021 -0.7629 -2.2385
  110MOL    H5624254   0.905   6.287   2.917 -0.6715 -0.8173 -1.2939
  110MOL    C5724255   0.581   5.782   3.086 -0.3581 -0.5411 -0.1488
  110MOL    C5824256   0.645   5.908   3.093  0.2610  0.4145 -0.6751
  110MOL    C5924257   0.668   5.982   2.977  0.3265  0.1942 -0.0651
  110MOL    C6024258   0.619   5.940   2.853  0.4828  0.1862 -0.2463
  110MOL    C6124259   0.549   5.822   2.846  0.3703  0.3301  0.2608
  110MOL    C6224260   0.536   5.734   2.961  0.1698 -0.3430 -0.1722
  110MOL    O6324261   0.468   5.615   2.949 -0.0643  0.0514 -0.9237
  110MOL    H6424262   0.572   5.735   3.183 -0.1592  0.6803  0.4885
  110MOL    H6524263   0.684   5.937   3.190  3.4109 -0.2922 -1.6909
  110MOL    H6624264   0.619   6.003   2.765 -0.4896  0.9232  0.2745
  110MOL    H6724265   0.496   5.796   2.755  1.7298 -1.2513 -0.1103
  110MOL    C6824266   0.706   5.324   2.983 -0.4056  0.2452  0.4258
  110MOL    C6924267   0.661   5.457   2.978  0.3112  0.5552 -0.2666
  110MOL    C7024268   0.531   5.491   2.930 -0.0528 -1.1775  0.3698
  110MOL    C7124269   0.452   5.390   2.872 -0.6149  0.0807  0.7749
  110MOL    C7224270   0.503   5.256   2.866  0.3209 -0.6365 -0.0126
  110MOL    C7324271   0.630   5.218   2.920  0.4887 -0.1410  0.0739
  110MOL    O7424272   0.682   5.092   2.914 -0.3862 -0.1426 -0.8473
  110MOL    H7524273   0.807   5.307   3.018 -0.0528  1.2467 -0.0891
  110MOL    H7624274   0.729   5.524   3.029 -0.0076 -0.3883  1.4193
  110MOL    H7724275   0.359   5.410   2.822 -0.3290  0.1676  0.2805
  110MOL    H7824276   0.447   5.177   2.817  0.1601  1.1496 -2.8459
  110MOL    C7924277   0.915   5.134   2.619  0.4809 -0.7934 -0.7333
  110MOL    C8024278   0.804   5.146   2.703 -0.0516 -0.0172  0.0321
  110MOL    C8124279   0.793   5.082   2.830  0.3684  0.1580  0.8279
  110MOL    C8224280   0.902   5.013   2.878  0.2594  0.9282  0.5398
  110MOL    C8324281   1.012   4.988   2.790 -0.1548  0.4825 -0.0015
  110MOL    C8424282   1.020   5.051   2.663 -0.2883  0.3001  0.0699
  110MOL    O8524283   1.121   5.032   2.576 -0.1315 -0.0927 -0.0924
  110MOL    H8624284   0.919   5.175   2.519  0.1265  1.1338  0.0220
  110MOL    H8724285   0.721   5.211   2.680 -0.0820 -0.2879 -0.6331
  110MOL    H8824286   0.899   4.977   2.980  0.8676 -0.5182  0.0643
  110MOL    H8924287   1.098   4.926   2.811 -1.3286  0.1589  4.3028
  110MOL    C9024288   1.380   5.249   2.749 -0.4360 -0.4177  0.8875
  110MOL    C9124289   1.253   5.191   2.717  0.3464  0.2534 -0.3526
  110MOL    C9224290   1.234   5.108   2.601  0.2083  0.1971  0.0613
  110MOL    C9324291   1.350   5.096   2.519  0.7641  0.1458 -0.1238
  110MOL    C9424292   1.472   5.155   2.548  0.4636 -0.3266  0.4389
  110MOL    C9524293   1.491   5.228   2.665  0.3733 -0.8637 -0.4348
  110MOL    O9624294   1.614   5.288   2.687  0.8374  0.4367  0.0526
  110MOL    H9724295   1.391   5.317   2.833 -0.2299  0.0183  0.5124
  110MOL    H9824296   1.169   5.205   2.783  1.5983 -2.5335  1.9336
  110MOL    H9924297   1.331   5.037   2.430  2.5024  0.2396 -0.5759
  110MOL   H10024298   1.546   5.134   2.472  0.4389 -2.1018  0.9001
  110MOL   C10124299   1.873   5.102   2.870  0.0031 -0.2372 -0.1058
  110MOL   C10224300   1.781   5.137   2.768 -0.8111  0.1951 -0.0332
  110MOL   C10324301   1.693   5.248   2.787  0.5030 -0.0437 -0.1340
  110MOL   C10424302   1.689   5.305   2.920  0.1539  0.6434 -0.4976
  110MOL   C10524303   1.766   5.257   3.026 -0.2095 -0.6372 -0.4251
  110MOL   C10624304   1.869   5.162   2.997 -0.2069  0.2174  0.1300
  110MOL   O10724305   1.947   5.114   3.097 -0.2300 -0.0881 -0.3554
  110MOL   H10824306   1.943   5.021   2.852  1.3236  1.1210 -1.2241
  110MOL   H10924307   1.780   5.081   2.676  0.2767 -0.3197  0.2555
  110MOL   H11024308   1.626   5.392   2.936  2.6153  2.6391 -1.3475
  110MOL   H11124309   1.752   5.314   3.117  1.2178 -0.2185 -0.4575
  110MOL   C11224310   2.303   5.211   3.011  1.2243 -0.0728 -0.2922
  110MOL   C11324311   2.161   5.222   3.024 -0.4203 -0.2551 -0.0142
  110MOL   C11424312   2.086   5.112   3.082 -0.1963 -0.1335 -0.0403
  110MOL   C11524313   2.155   4.997   3.122 -0.0945  0.7145 -0.4126
  110MOL   C11624314   2.292   4.986   3.098 -0.3306  0.0558  0.5298
  110MOL   C11724315   2.363   5.089   3.033  0.8511 -0.1793  0.0094
  110MOL   O11824316   2.497   5.082   3.016 -0.0611  0.0040  0.1247
  110MOL   H11924317   2.368   5.295   2.993 -1.1137  1.7301 -0.5560
  110MOL   H12024318   2.115   5.319   3.011 -0.5840 -0.3614 -0.2265
  110MOL   H12124319   2.106   4.906   3.154  1.8506  0.4194  1.8336
  110MOL   H12224320   2.336   4.891   3.125 -1.8936 -0.4119  1.4845
  110MOL   C12324321   2.810   5.232   3.131 -0.9652  0.0579 -0.4196
  110MOL   C12424322   2.714   5.175   3.048 -0.0470 -0.4091 -0.3645
  110MOL   C12524323   2.585   5.153   3.096 -0.1208  0.0757 -0.0042
  110MOL   C12624324   2.544   5.206   3.222  0.3991 -0.5725  0.0977
  110MOL   C12724325   2.643   5.262   3.309 -0.1420 -0.1047  0.2427
  110MOL   C12824326   2.779   5.272   3.263 -0.3700  0.2118 -0.8250
  110MOL   O12924327   2.874   5.325   3.350 -0.9270  0.7168  0.4632
  110MOL   H13024328   2.913   5.238   3.096 -0.9907  0.8720 -0.3806
  110MOL   H13124329   2.743   5.141   2.950  1.9742 -0.1419  0.1072
  110MOL   H13224330   2.441   5.190   3.252  0.6082  2.4058  2.6995
  110MOL   H13324331   2.615   5.289   3.410 -0.3758  2.2404 -0.4142
  110MOL   C13424332   3.110   5.613   3.345  0.0674 -0.3791  0.8789
  110MOL   C13524333   3.056   5.486   3.373 -0.3414  0.2971 -0.7034
  110MOL   C13624334   2.926   5.454   3.324 -0.2960  0.3210 -0.8147
  110MOL   C13724335   2.848   5.551   3.261 -0.1968  0.3652 -0.4632
  110MOL   C13824336   2.897   5.682   3.239  0.2959  0.1072 -0.5649
  110MOL   C13924337   3.028   5.710   3.279  0.1149 -0.0174 -0.0585
  110MOL   O14024338   3.079   5.834   3.248 -0.3830  0.0954  0.0485
  110MOL   H14124339   3.210   5.636   3.380  0.3155  1.9941 -1.3030
  110MOL   H14224340   3.118   5.414   3.425  0.0990  0.4470 -1.0222
  110MOL   H14324341   2.757   5.521   3.212  0.6835 -0.4423 -1.6476
  110MOL   H14424342   2.832   5.756   3.195  1.2331  1.3650  0.1063
  110MOL   C14524343   2.872   6.082   3.429 -0.8595 -0.2149  0.0425
  110MOL   C14624344   2.930   5.962   3.395 -0.2792  0.7343  0.5640
  110MOL   C14724345   3.013   5.951   3.278  0.2394  0.2661 -0.3781
  110MOL   C14824346   3.025   6.061   3.188  0.9359 -0.8109  0.2811
  110MOL   C14924347   2.959   6.183   3.229  0.2527 -0.1832 -0.2787
  110MOL   C15024348   2.894   6.193   3.351  0.2499 -0.1081 -0.7101
  110MOL   O15124349   2.849   6.308   3.405  0.1698  0.1153 -0.1865
  110MOL   H15224350   2.819   6.078   3.523 -1.9722 -1.6919 -0.6257
  110MOL   H15324351   2.921   5.874   3.457 -2.7466 -0.1757 -1.0001
  110MOL   H15424352   3.072   6.052   3.092 -0.7846  2.0614 -0.9073
  110MOL   H15524353   2.967   6.268   3.163  3.1942  0.7510  1.1853
  110MOL   C15624354   2.497   6.358   3.313 -0.5867  0.4628 -0.2211
  110MOL   C15724355   2.615   6.293   3.364 -0.7214  0.7041 -0.1832
  110MOL   C15824356   2.731   6.366   3.369  0.9091  0.0765 -0.2215
  110MOL   C15924357   2.733   6.499   3.323  0.9687  0.4184 -0.1770
  110MOL   C16024358   2.619   6.564   3.274 -0.4380 -0.1026  0.2027
  110MOL   C16124359   2.497   6.494   3.281  1.1658  0.5634  0.8837
  110MOL   O16224360   2.380   6.554   3.244 -0.2952 -0.5317 -0.0104
  110MOL   H16324361   2.408   6.298   3.305  0.5299 -1.2182 -0.2034
  110MOL   H16424362   2.622   6.195   3.408 -0.9351  0.1666 -1.3352
  110MOL   H16524363   2.824   6.556   3.317  1.1077  0.0217 -2.2008
  110MOL   H16624364   2.619   6.665   3.234 -0.6966 -0.1482  0.0842
  110MOL   C16724365   2.254   6.494   2.901 -0.6099  0.1676 -0.6275
  110MOL   C16824366   2.279   6.480   3.038  0.2187 -0.3260  0.3721
  110MOL   C16924367   2.358   6.571   3.115 -0.2732 -0.0468  0.0926
  110MOL   C17024368   2.410   6.683   3.042 -0.0387  0.1248  0.7486
  110MOL   C17124369   2.393   6.688   2.903 -0.1190 -0.1359  0.4464
  110MOL   C17224370   2.312   6.595   2.834 -1.3139  0.1443  0.5062
  110MOL   O17324371   2.296   6.619   2.701 -0.2979  0.3795 -0.2011
  110MOL   H17424372   2.199   6.417   2.849  0.9034 -1.0840 -0.3748
  110MOL   H17524373   2.223   6.404   3.089 -0.5383 -2.3231 -3.3005
  110MOL   H17624374   2.472   6.754   3.095 -0.5748  1.9465 -1.0164
  110MOL   H17724375   2.446   6.761   2.843  2.4110 -0.5433  2.1336
  110MOL   C17824376   2.384   6.303   2.530 -0.6392 -0.1489  0.1454
  110MOL   C17924377   2.385   6.410   2.622 -0.4426  0.4450 -0.4487
  110MOL   C18024378   2.290   6.515   2.612  0.4359  0.4038 -0.5047
  110MOL   C18124379   2.193   6.519   2.509 -0.5966 -0.0014 -0.1317
  110MOL   C18224380   2.186   6.413   2.416 -0.0051 -0.1833  0.1573
  110MOL   C18324381   2.279   6.304   2.436 -0.5456  0.6161 -0.5278
  110MOL   O18424382   2.252   6.189   2.374 -0.4976  0.0867  0.6136
  110MOL   H18524383   2.435   6.208   2.532 -0.3145  0.0242  0.1042
  110MOL   H18624384   2.455   6.409   2.704 -0.3479  0.1550 -0.5295
  110MOL   H18724385   2.138   6.610   2.491 -1.8903 -0.6811  0.3669
  110MOL   H18824386   2.115   6.404   2.335  0.4976  3.5978 -0.8239
  110MOL   C18924387   2.210   6.072   2.032  0.5689  0.0692 -0.3746
  110MOL   C19024388   2.200   6.087   2.174 -0.1110  0.4376  0.5789
  110MOL   C19124389   2.272   6.184   2.240  1.3089 -0.8398  0.4523
  110MOL   C19224390   2.358   6.271   2.163  0.0691 -0.5318 -0.2327
  110MOL   C19324391   2.381   6.243   2.022  0.3990 -0.2294 -0.1303
  110MOL   C19424392   2.298   6.149   1.952 -0.9426  0.2825 -0.0242
  110MOL   O19524393   2.322   6.124   1.821  0.3196  0.4347 -0.0336
  110MOL   H19624394   2.145   5.997   1.990  0.6041 -1.1075  1.5806
  110MOL   H19724395   2.130   6.023   2.226  0.1122 -0.8247 -0.6455
  110MOL   H19824396   2.415   6.344   2.219  0.2833 -1.9420  1.4185
  110MOL   H19924397   2.447   6.296   1.956  1.7043 -1.9054 -0.2240
  110MOL   C20024398   2.435   5.787   1.744  0.6244 -0.3911 -0.2636
  110MOL   C20124399   2.350   5.895   1.776  0.3702 -0.1672 -0.2509
  110MOL   C20224400   2.408   6.021   1.795 -0.4772 -0.3188  0.0043
  110MOL   C20324401   2.547   6.045   1.780  0.1674 -0.0948 -0.5344
  110MOL   C20424402   2.626   5.934   1.752 -0.1028 -1.0838 -0.1365
  110MOL   C20524403   2.572   5.805   1.729 -0.1026  1.1581  0.1996
  110MOL   O20624404   2.651   5.697   1.688  0.1028 -0.0209 -0.4187
  110MOL   H20724405   2.390   5.692   1.721 -1.7055  0.6118 -0.0566
  110MOL   H20824406   2.244   5.883   1.791  0.2467  0.4599 -0.5877
  110MOL   H20924407   2.582   6.143   1.809 -0.2568 -0.9141  2.9292
  110MOL   H21024408   2.733   5.938   1.739 -0.1333 -2.2841 -0.9308
  110MOL   C21124409   2.758   5.381   1.845  0.0466  0.8426  0.1404
  110MOL   C21224410   2.701   5.470   1.746 -0.2772  0.1574 -0.5889
  110MOL   C21324411   2.702   5.608   1.781  0.6259  0.4333  0.2660
  110MOL   C21424412   2.738   5.648   1.909  0.1006  0.5772 -0.3055
  110MOL   C21524413   2.772   5.561   2.011 -0.1902  1.2878 -0.1302
  110MOL   C21624414   2.784   5.421   1.983  0.2960 -0.9185 -0.2928
  110MOL   O21724415   2.810   5.330   2.073  0.5687 -0.4948 -0.3603
  110MOL   H21824416   2.764   5.276   1.820 -1.4061  1.0762 -1.2768
  110MOL   H21924417   2.661   5.445   1.649  1.3574  0.0221 -1.2379
  110MOL   H22024418   2.731   5.752   1.935  2.2120  0.7821 -0.4510
  110MOL   H22124419   2.798   5.593   2.111 -1.8598 -0.7405  0.9739
  110MOL   H22224420   2.891   5.352   2.117 -0.1555  1.6039 -0.0357
  111MOL     C124421   6.515   3.992   0.575  0.0889  0.0744 -0.5665
  111MOL     C224422   6.601   4.087   0.633 -0.1687  0.1183  1.0400
  111MOL     C324423   6.722   4.125   0.570  0.1768  0.2040 -0.5879
  111MOL     C424424   6.758   4.055   0.455  0.0725 -0.1482 -0.3964
  111MOL     C524425   6.667   3.968   0.396  0.0565  0.3920 -0.2254
  111MOL     C624426   6.547   3.930   0.454  0.7830 -0.5506 -0.0274
  111MOL     O724427   6.463   3.845   0.383 -0.1314  0.0133  0.3247
  111MOL     H824428   6.426   3.989   0.636  0.0784  0.8976 -0.5277
  111MOL     H924429   6.567   4.143   0.719 -1.8256  1.3307 -0.3651
  111MOL    H1024430   6.848   4.074   0.397 -0.0612  0.4094 -0.4255
  111MOL    H1124431   6.688   3.926   0.298  0.1524  0.5762 -0.2842
  111MOL    H1224432   6.797   4.193   0.608  0.3462 -0.7036  0.7203
  111MOL    C1324433   6.110   3.768   0.473  0.3385 -0.2172 -0.3408
  111MOL    C1424434   6.251   3.756   0.449  0.6086 -0.2510  0.8637
  111MOL    C1524435   6.329   3.863   0.395 -0.4786 -0.1079  0.1107
  111MOL    C1624436   6.256   3.967   0.341  0.0511 -0.6817  0.7017
  111MOL    C1724437   6.113   3.978   0.357 -0.1532  0.4376  0.4588
  111MOL    C1824438   6.038   3.875   0.424 -0.5657 -0.5567  0.0268
  111MOL    O1924439   5.900   3.891   0.439 -0.5182  0.1227 -0.1936
  111MOL    H2024440   6.081   3.678   0.527  2.8643 -0.2490  1.0581
  111MOL    H2124441   6.304   3.668   0.480  0.8482 -0.2667  0.3963
  111MOL    H2224442   6.304   4.056   0.302 -0.0434 -1.6243 -1.6028
  111MOL    H2324443   6.068   4.060   0.304  1.3012  0.5981 -0.5460
  111MOL    C2424444   5.754   3.687   0.176  0.3824  0.4114 -0.4156
  111MOL    C2524445   5.814   3.797   0.237  0.6099 -0.3245 -0.1971
  111MOL    C2624446   5.821   3.800   0.380 -0.0284  0.0207  0.3267
  111MOL    C2724447   5.759   3.703   0.464  0.0828  0.0044 -0.1046
  111MOL    C2824448   5.701   3.591   0.397 -0.4499 -0.0138 -0.5147
  111MOL    C2924449   5.710   3.579   0.257 -0.7408 -0.6460 -0.6676
  111MOL    O3024450   5.651   3.472   0.190  0.5723 -0.0509  0.1812
  111MOL    H3124451   5.755   3.692   0.068  0.1638  0.9529 -0.3928
  111MOL    H3224452   5.864   3.875   0.181  0.8282  0.9874  1.7817
  111MOL    H3324453   5.758   3.717   0.571 -0.9978 -0.2696 -0.0718
  111MOL    H3424454   5.669   3.505   0.455  0.2049 -1.0568 -1.6713
  111MOL    C3524455   5.822   3.151   0.221 -0.1036  0.1859 -0.0111
  111MOL    C3624456   5.749   3.267   0.258  0.1159  0.0606 -0.9679
  111MOL    C3724457   5.727   3.366   0.163 -0.5709  0.2197  0.9338
  111MOL    C3824458   5.783   3.355   0.037  0.4993 -0.3738  0.0329
  111MOL    C3924459   5.848   3.237   0.003  0.9112 -0.9019  1.1469
  111MOL    C4024460   5.875   3.135   0.095 -0.0792 -0.3068 -0.7521
  111MOL    O4124461   5.961   3.033   0.068 -0.7579 -0.4640  0.9070
  111MOL    H4224462   5.833   3.080   0.302  1.3679 -0.2388 -0.5656
  111MOL    H4324463   5.717   3.291   0.358  1.0568  1.6167 -1.0281
  111MOL    H4424464   5.760   3.431   8.218 -0.0845  0.8965  1.5259
  111MOL    H4524465   5.883   3.233   8.155 -3.9422 -2.6381 -0.5590
  111MOL    C4624466   5.948   2.694   0.225  0.3773 -0.7203 -0.3172
  111MOL    C4724467   5.960   2.834   0.220 -0.2990  0.5244 -0.1623
  111MOL    C4824468   5.939   2.902   0.102  0.4582  0.0225 -0.0852
  111MOL    C4924469   5.884   2.828   8.251 -0.6531  0.6877 -0.2307
  111MOL    C5024470   5.862   2.692   8.250  0.1963 -0.2909 -0.0287
  111MOL    C5124471   5.889   2.620   0.114 -0.3881 -0.7428  0.1330
  111MOL    O5224472   5.857   2.486   0.120 -0.1392 -0.2210  0.2652
  111MOL    H5324473   5.984   2.647   0.315  1.5904  1.9478  0.6531
  111MOL    H5424474   6.006   2.886   0.303 -0.3505 -0.6464  0.6158
  111MOL    H5524475   5.870   2.881   8.158 -1.3837  1.0385  0.0684
  111MOL    H5624476   5.837   2.631   8.164 -1.2137 -1.2043  0.9875
  111MOL    C5724477   6.046   2.271   0.352 -0.5084 -0.3707  0.0428
  111MOL    C5824478   5.937   2.333   0.289  0.0929 -0.6657 -0.4144
  111MOL    C5924479   5.958   2.403   0.167 -0.4789 -0.6394 -0.8645
  111MOL    C6024480   6.074   2.376   0.087 -0.3234 -0.3078  0.6563
  111MOL    C6124481   6.175   2.290   0.136 -0.5564 -0.2400 -0.3741
  111MOL    C6224482   6.159   2.243   0.273 -0.3091 -0.7653  0.3216
  111MOL    O6324483   6.264   2.170   0.319  0.4554 -0.9987 -0.1756
  111MOL    H6424484   6.045   2.249   0.458  0.9557  0.4054  0.2215
  111MOL    H6524485   5.850   2.357   0.349  0.2755  0.6345 -0.6566
  111MOL    H6624486   6.079   2.412   8.240  0.4755  0.9190  1.1281
  111MOL    H6724487   6.257   2.254   0.076 -0.9614 -2.9166  0.6055
  111MOL    C6824488   6.373   2.149   0.677 -0.3383  0.3217 -0.3360
  111MOL    C6924489   6.307   2.116   0.554 -0.0900 -0.9224  0.1094
  111MOL    C7024490   6.316   2.205   0.444  0.4956 -0.3063 -0.1906
  111MOL    C7124491   6.390   2.325   0.459  0.4219  0.4108  0.7573
  111MOL    C7224492   6.446   2.364   0.580 -0.4299  0.6267  0.1032
  111MOL    C7324493   6.427   2.280   0.694 -0.6410  0.5079 -0.0919
  111MOL    O7424494   6.485   2.317   0.817  0.2958 -0.6472 -0.5357
  111MOL    H7524495   6.356   2.093   0.768  0.9518  2.2198  1.0944
  111MOL    H7624496   6.259   2.020   0.545 -1.5861 -0.0075 -2.0590
  111MOL    H7724497   6.389   2.391   0.373 -1.6738  1.3143  1.4466
  111MOL    H7824498   6.495   2.460   0.591 -0.4516  0.7599 -0.8642
  111MOL    C7924499   6.361   2.649   0.920  0.1875  0.5888  0.3003
  111MOL    C8024500   6.361   2.520   0.874 -1.0123  0.1187 -0.6947
  111MOL    C8124501   6.483   2.444   0.862  0.3497 -0.6934 -0.0602
  111MOL    C8224502   6.607   2.507   0.901 -0.0512 -0.2350  0.6239
  111MOL    C8324503   6.602   2.638   0.939 -0.2568 -0.2048 -0.2006
  111MOL    C8424504   6.483   2.712   0.952  0.0247  0.9883 -0.2156
  111MOL    O8524505   6.481   2.837   1.008  0.4130 -0.1526  0.1760
  111MOL    H8624506   6.268   2.704   0.923 -2.6073 -3.9269  0.8467
  111MOL    H8724507   6.272   2.466   0.849 -0.5431 -1.9584  1.9204
  111MOL    H8824508   6.701   2.454   0.898  0.8481  1.3618 -0.0956
  111MOL    H8924509   6.695   2.683   0.971 -0.6815  0.6908 -0.2063
  111MOL    C9024510   6.350   3.171   0.938  0.6161  0.0340  0.8579
  111MOL    C9124511   6.373   3.049   1.005 -1.4292  0.6847  0.4902
  111MOL    C9224512   6.440   2.947   0.932  0.0330 -0.4372 -0.6778
  111MOL    C9324513   6.480   2.969   0.795  0.4556 -0.0496 -0.3011
  111MOL    C9424514   6.451   3.092   0.733 -0.1102 -0.1675  0.3377
  111MOL    C9524515   6.386   3.189   0.802 -0.4516  0.3492 -0.0310
  111MOL    O9624516   6.375   3.313   0.744 -0.3164  0.0097 -0.0447
  111MOL    H9724517   6.298   3.253   0.984 -1.3752 -0.2576 -0.8044
  111MOL    H9824518   6.341   3.032   1.107 -1.2255 -0.7320  0.3409
  111MOL    H9924519   6.543   2.895   0.748  0.5754  0.2252 -0.5784
  111MOL   H10024520   6.484   3.109   0.631 -1.3615  0.6006  0.0639
  111MOL   C10124521   6.716   3.431   0.689 -0.3455 -0.0563  0.2995
  111MOL   C10224522   6.609   3.378   0.756  0.1321 -1.1142 -0.6107
  111MOL   C10324523   6.485   3.374   0.697 -1.2139  0.2443 -0.0337
  111MOL   C10424524   6.471   3.434   0.570  0.7412 -0.2057 -0.1005
  111MOL   C10524525   6.580   3.494   0.497  0.0497 -0.7193  0.0559
  111MOL   C10624526   6.707   3.499   0.566  0.5569  1.0780  0.6177
  111MOL   O10724527   6.814   3.569   0.512 -0.2165  0.1501  0.8487
  111MOL   H10824528   6.818   3.420   0.721  0.0946 -0.3251 -1.1561
  111MOL   H10924529   6.629   3.330   0.851  0.6594 -0.2120 -0.2612
  111MOL   H11024530   6.376   3.440   0.519  1.3672  1.7289 -1.0706
  111MOL   H11124531   6.571   3.533   0.397 -2.0500  0.2407  0.5913
  111MOL   C11224532   6.954   3.847   0.718 -0.0606  0.3174  0.6819
  111MOL   C11324533   6.860   3.769   0.644  0.5748  0.2962 -0.8416
  111MOL   C11424534   6.896   3.643   0.591  0.0308 -0.7358  0.0383
  111MOL   C11524535   7.029   3.595   0.609 -0.5745  0.5719 -0.1846
  111MOL   C11624536   7.121   3.683   0.672  0.1114  0.1105 -0.3007
  111MOL   C11724537   7.085   3.809   0.724 -0.6826 -0.2869  0.5104
  111MOL   O11824538   7.168   3.885   0.798 -0.3987 -0.0965 -0.1203
  111MOL   H11924539   6.931   3.946   0.753  0.9699  1.3545 -1.4560
  111MOL   H12024540   6.760   3.809   0.638 -0.0044 -0.5723  2.2383
  111MOL   H12124541   7.063   3.497   0.580  0.1970  1.2288 -1.5508
  111MOL   H12224542   7.217   3.639   0.695  1.1658  0.7649 -3.1936
  111MOL   C12324543   7.522   3.782   0.820  0.4687 -0.4490 -0.1177
  111MOL   C12424544   7.407   3.839   0.768  0.0884  0.5207 -0.3334
  111MOL   C12524545   7.289   3.835   0.849 -0.3401  0.1882  0.0852
  111MOL   C12624546   7.296   3.782   0.977  0.0469  0.5813 -0.2318
  111MOL   C12724547   7.413   3.733   1.029 -0.0742  0.0444  0.1759
  111MOL   C12824548   7.526   3.737   0.951 -0.8493 -0.0075  0.9250
  111MOL   O12924549   7.646   3.698   1.006 -0.3604 -0.8098  0.0999
  111MOL   H13024550   7.614   3.768   0.766  0.4144 -2.8063  0.3579
  111MOL   H13124551   7.402   3.889   0.672  0.0634 -1.4784 -1.3967
  111MOL   H13224552   7.209   3.778   1.041  1.8826 -0.6978  2.2384
  111MOL   H13324553   7.423   3.687   1.126 -1.1673 -0.5584  0.0180
  111MOL   C13424554   7.778   3.970   1.242 -0.0480  0.5465  0.3252
  111MOL   C13524555   7.689   3.889   1.166 -0.0217 -0.3852  0.2343
  111MOL   C13624556   7.730   3.788   1.076  0.1964  0.0911  0.5006
  111MOL   C13724557   7.871   3.773   1.061  0.0589  0.3048  0.0075
  111MOL   C13824558   7.963   3.844   1.140  0.5245  0.4179 -0.3769
  111MOL   C13924559   7.913   3.945   1.226  0.2108  0.3054 -0.5250
  111MOL   O14024560   8.006   4.014   1.301 -0.1283 -0.4574  0.5870
  111MOL   H14124561   7.735   4.050   1.301 -1.5286 -0.9339  1.3022
  111MOL   H14224562   7.584   3.908   1.179  0.2703  0.8393  0.8615
  111MOL   H14324563   7.921   3.707   0.992  0.4011 -2.0286  2.4005
  111MOL   H14424564   8.069   3.823   1.141  0.5467  0.4488  3.1861
  111MOL   C14524565   7.907   4.357   1.367 -0.3446 -0.4804 -0.5353
  111MOL   C14624566   7.943   4.245   1.292  0.5180  0.1730 -0.0138
  111MOL   C14724567   7.979   4.128   1.362 -0.0066 -0.9929 -0.0049
  111MOL   C14824568   7.994   4.130   1.504 -0.6171 -0.5201  0.3691
  111MOL   C14924569   7.962   4.244   1.577  0.2358 -0.5975 -0.2241
  111MOL   C15024570   7.911   4.359   1.503  0.2198  0.0874 -0.2611
  111MOL   O15124571   7.870   4.470   1.568 -0.5269  0.2955 -0.8061
  111MOL   H15224572   7.861   4.440   1.314 -1.2230 -0.9286 -0.4761
  111MOL   H15324573   7.938   4.244   1.184  0.4297 -3.7281 -0.0328
  111MOL   H15424574   8.032   4.050   1.566 -1.5446 -0.1957  1.3639
  111MOL   H15524575   7.983   4.252   1.682  1.7551 -1.3985 -0.4590
  111MOL   C15624576   7.498   4.437   1.590  0.2926 -0.4893 -0.2359
  111MOL   C15724577   7.628   4.435   1.535  0.2857  0.1868  0.6606
  111MOL   C15824578   7.740   4.478   1.614 -0.4640 -0.0324  0.0065
  111MOL   C15924579   7.715   4.526   1.746 -0.7306  0.0703 -0.2362
  111MOL   C16024580   7.585   4.518   1.803 -0.7628 -0.2371 -0.0731
  111MOL   C16124581   7.471   4.481   1.719 -0.0475  0.0078  0.1477
  111MOL   O16224582   7.347   4.489   1.762 -0.6618  0.0355  0.0859
  111MOL   H16324583   7.424   4.421   1.514  0.9256 -0.0659 -0.9386
  111MOL   H16424584   7.647   4.402   1.434  0.6799 -2.2023  1.4729
  111MOL   H16524585   7.791   4.562   1.814 -1.5502 -2.1166  1.9220
  111MOL   H16624586   7.570   4.549   1.905  1.5092  0.7339 -0.0086
  111MOL   C16724587   7.087   4.296   1.936 -0.8157 -0.2344  0.1344
  111MOL   C16824588   7.170   4.404   1.893 -0.3606 -0.2362 -0.5410
  111MOL   C16924589   7.275   4.375   1.801  0.0826  0.1232  0.2622
  111MOL   C17024590   7.287   4.242   1.746  0.1004 -0.1812  0.2114
  111MOL   C17124591   7.203   4.143   1.787 -0.2050 -0.4795 -0.8067
  111MOL   C17224592   7.106   4.167   1.883  0.1468  0.9424  0.0164
  111MOL   O17324593   7.024   4.064   1.927  0.1660 -0.3722 -0.0184
  111MOL   H17424594   7.017   4.322   2.014 -1.0999  0.6246 -0.4103
  111MOL   H17524595   7.164   4.507   1.923 -2.1353  0.1805 -2.1919
  111MOL   H17624596   7.360   4.210   1.674  1.4697 -1.2658  2.0626
  111MOL   H17724597   7.202   4.041   1.752 -3.6117 -1.4515  1.7400
  111MOL   C17824598   6.749   4.019   1.680  0.5302  0.6040  0.1019
  111MOL   C17924599   6.874   4.010   1.745  0.0063  0.0295 -0.1205
  111MOL   C18024600   6.899   4.063   1.873 -0.0918  0.3513 -0.1096
  111MOL   C18124601   6.785   4.095   1.950  1.1484  0.7692  0.6786
  111MOL   C18224602   6.655   4.101   1.892 -0.8802  0.2580 -0.2989
  111MOL   C18324603   6.641   4.071   1.754 -0.2334  0.0645  0.6098
  111MOL   O18424604   6.526   4.094   1.687 -0.1095 -0.5040 -0.0481
  111MOL   H18524605   6.740   3.979   1.580  3.2146 -2.3091  0.8963
  111MOL   H18624606   6.954   3.954   1.697 -1.2239 -0.4474 -1.6933
  111MOL   H18724607   6.797   4.135   2.050  0.1446  0.1090  1.0654
  111MOL   H18824608   6.577   4.143   1.954 -0.5884  0.0433  0.2159
  111MOL   C18924609   6.269   3.895   1.509 -0.6205 -0.2004  0.5538
  111MOL   C19024610   6.356   4.001   1.535  0.2897 -0.4989  0.4380
  111MOL   C19124611   6.444   3.988   1.649 -0.3509 -0.1272  0.3079
  111MOL   C19224612   6.441   3.870   1.731 -0.0940 -0.3092 -0.1040
  111MOL   C19324613   6.341   3.771   1.713 -0.5470  0.5445 -0.0531
  111MOL   C19424614   6.262   3.784   1.598  0.0151 -0.4284  1.2337
  111MOL   O19524615   6.178   3.683   1.564 -0.5310 -0.6806 -0.3532
  111MOL   H19624616   6.207   3.896   1.421 -1.1334 -2.1537  0.8670
  111MOL   H19724617   6.365   4.086   1.469 -1.0096  0.8036  1.9027
  111MOL   H19824618   6.511   3.865   1.813  0.8684 -1.8249 -0.9935
  111MOL   H19924619   6.335   3.689   1.784 -0.1110  0.6322  0.0877
  111MOL   C20024620   5.882   3.734   1.787  0.3798 -0.0792 -0.2019
  111MOL   C20124621   6.015   3.740   1.734 -0.2251  0.1637  0.0081
  111MOL   C20224622   6.050   3.689   1.607  0.5009 -0.3038  0.1342
  111MOL   C20324623   5.947   3.627   1.529  0.3617 -0.6267  0.4695
  111MOL   C20424624   5.819   3.613   1.577  0.4594 -0.2834  0.0461
  111MOL   C20524625   5.783   3.675   1.703 -0.5105  0.0083  0.4659
  111MOL   O20624626   5.651   3.657   1.738  0.2873 -0.8869  0.0455
  111MOL   H20724627   5.863   3.783   1.881  0.2899 -0.2067 -0.1533
  111MOL   H20824628   6.099   3.772   1.795  1.5734 -0.5875 -2.0001
  111MOL   H20924629   5.973   3.600   1.427  0.5095  1.5032 -0.0707
  111MOL   H21024630   5.750   3.567   1.508  0.8495  0.9423 -1.1830
  111MOL   C21124631   5.370   3.851   1.583  0.5203  0.1423 -0.0400
  111MOL   C21224632   5.486   3.762   1.604  0.0765  0.1385  0.0473
  111MOL   C21324633   5.563   3.762   1.717 -0.2995 -0.5538 -0.4627
  111MOL   C21424634   5.528   3.858   1.820 -1.2525 -0.0313  0.2056
  111MOL   C21524635   5.428   3.953   1.799  0.1287  0.4382 -0.1804
  111MOL   C21624636   5.353   3.953   1.681 -0.4184  0.4352 -0.4254
  111MOL   O21724637   5.250   4.043   1.668 -0.5111  0.3343  0.1816
  111MOL   H21824638   5.294   3.848   1.506  0.0302 -0.4725  0.4648
  111MOL   H21924639   5.492   3.687   1.527 -0.5927 -1.6511  1.6807
  111MOL   H22024640   5.579   3.853   1.915 -2.0073  0.5065  0.6445
  111MOL   H22124641   5.409   4.024   1.879  0.7479  0.5906 -0.1636
  111MOL   H22224642   5.200   4.024   1.590 -0.2293  1.6794 -0.3315
  112MOL     C124643   4.854   1.967   2.675  0.2195  0.8412  0.6616
  112MOL     C224644   4.799   1.837   2.674 -0.0013  0.2422 -0.0671
  112MOL     C324645   4.845   1.735   2.761 -0.1372  0.6667 -0.1820
  112MOL     C424646   4.946   1.765   2.852  0.0173  0.6646 -0.1716
  112MOL     C524647   5.000   1.901   2.853 -0.4718  0.1107 -0.3955
  112MOL     C624648   4.945   2.000   2.772 -0.4381  0.2551  0.2204
  112MOL     O724649   4.983   2.130   2.796 -0.0705  0.0587 -0.2199
  112MOL     H824650   4.807   2.041   2.612 -0.5323 -0.1070  0.0850
  112MOL     H924651   4.719   1.815   2.605 -0.6643  1.2307  0.3561
  112MOL    H1024652   4.992   1.687   2.910  0.5800  0.7166 -0.5506
  112MOL    H1124653   5.076   1.934   2.922  1.2283 -0.8114 -1.8101
  112MOL    H1224654   4.804   1.635   2.763  2.0908 -0.2791  0.9928
  112MOL    C1324655   4.902   2.286   3.117 -0.6486 -0.0818 -0.5061
  112MOL    C1424656   4.976   2.216   3.020  0.0671 -0.1689 -0.8278
  112MOL    C1524657   4.913   2.194   2.897 -0.1690 -0.1231  0.6336
  112MOL    C1624658   4.795   2.254   2.866  0.8603  0.4435 -0.0156
  112MOL    C1724659   4.728   2.336   2.954 -0.8657  0.3115  0.2287
  112MOL    C1824660   4.781   2.355   3.085 -0.5480 -0.1181 -0.3505
  112MOL    O1924661   4.709   2.434   3.172 -0.7661  0.0628  0.3417
  112MOL    H2024662   4.937   2.305   3.218  1.0024  1.9860 -1.4338
  112MOL    H2124663   5.078   2.189   3.039  0.3687  1.5553  0.0850
  112MOL    H2224664   4.754   2.235   2.768 -0.7604 -1.3801  0.9854
  112MOL    H2324665   4.646   2.393   2.910  0.4419  0.8078 -1.6297
  112MOL    C2424666   4.733   2.801   3.129  0.1078 -0.7895  0.4538
  112MOL    C2524667   4.697   2.666   3.108 -0.2236 -0.0329 -0.1364
  112MOL    C2624668   4.748   2.570   3.188  0.2841  0.1105 -0.8218
  112MOL    C2724669   4.846   2.610   3.280  0.5894  0.7956  0.6760
  112MOL    C2824670   4.890   2.742   3.298 -0.3810  0.5647  0.0705
  112MOL    C2924671   4.830   2.842   3.222 -1.3706  0.4723 -0.9397
  112MOL    O3024672   4.874   2.976   3.232  0.1375  0.7287 -0.4311
  112MOL    H3124673   4.688   2.879   3.068  0.0517 -1.4168 -0.3127
  112MOL    H3224674   4.620   2.647   3.035  0.8201  0.1786 -1.3025
  112MOL    H3324675   4.880   2.533   3.348 -0.0835  0.3587  0.5178
  112MOL    H3424676   4.964   2.757   3.375  1.2472  0.4949 -1.4775
  112MOL    C3524677   5.145   3.061   3.467  0.2046  0.1837  0.2361
  112MOL    C3624678   5.080   3.029   3.344  0.6736  0.2028  0.3726
  112MOL    C3724679   4.941   3.011   3.347  0.0942  0.2781  0.1415
  112MOL    C3824680   4.872   3.011   3.472  0.3808  0.7309  0.7499
  112MOL    C3924681   4.936   3.034   3.588 -0.1006  0.4672 -0.5836
  112MOL    C4024682   5.069   3.065   3.584 -0.6419  0.3417 -0.1019
  112MOL    O4124683   5.141   3.089   3.698  0.4340 -0.0897 -0.0879
  112MOL    H4224684   5.253   3.070   3.473  0.5058 -2.8894  0.4140
  112MOL    H4324685   5.136   3.019   3.252  0.5771 -0.3658  0.3760
  112MOL    H4424686   4.766   2.987   3.475  0.7652 -0.7011  4.0666
  112MOL    H4524687   4.890   3.017   3.684 -0.7391 -0.3517 -1.0239
  112MOL    C4624688   5.263   2.780   3.863  0.7214  1.1299  0.3121
  112MOL    C4724689   5.175   2.871   3.804  0.0021  0.2317  0.1819
  112MOL    C4824690   5.224   2.992   3.743  0.0615 -0.8870 -0.6276
  112MOL    C4924691   5.362   3.013   3.728  0.0976  0.5062 -0.2602
  112MOL    C5024692   5.455   2.912   3.776 -0.0059  0.3040  0.1848
  112MOL    C5124693   5.403   2.804   3.851 -0.1055  0.1441  0.9666
  112MOL    O5224694   5.492   2.726   3.921 -0.5715  0.1249 -0.1256
  112MOL    H5324695   5.229   2.692   3.916 -0.1414  0.5889 -1.1135
  112MOL    H5424696   5.068   2.857   3.812 -0.1538  0.0645 -1.8906
  112MOL    H5524697   5.400   3.102   3.681  0.7781  0.4625  0.1966
  112MOL    H5624698   5.561   2.924   3.761  0.1192 -0.2693  0.5865
  112MOL    C5724699   5.783   2.805   4.135  0.0497 -0.5842  0.1286
  112MOL    C5824700   5.704   2.750   4.030 -0.0486  0.1201  0.3487
  112MOL    C5924701   5.568   2.778   4.016 -0.3787  0.5482  0.4897
  112MOL    C6024702   5.510   2.866   4.109 -0.0207  0.3583  0.2861
  112MOL    C6124703   5.584   2.924   4.210 -0.1941  0.0795 -0.2808
  112MOL    C6224704   5.721   2.894   4.229  0.1154  0.1826  0.9361
  112MOL    O6324705   5.795   2.936   4.334  0.3049 -0.0875 -0.7962
  112MOL    H6424706   5.887   2.779   4.150  0.5786  0.6596 -1.2279
  112MOL    H6524707   5.733   2.678   3.955  0.1138 -1.3476  1.7896
  112MOL    H6624708   5.404   2.888   4.109 -0.1565 -0.2055 -1.7207
  112MOL    H6724709   5.525   2.984   4.278  0.1393  0.2646 -0.1576
  112MOL    C6824710   5.765   3.247   4.521  0.0763  0.4411  0.5054
  112MOL    C6924711   5.752   3.113   4.481  0.8758 -0.4762 -0.5577
  112MOL    C7024712   5.801   3.067   4.359 -0.0317  0.3699  0.4008
  112MOL    C7124713   5.857   3.160   4.264  1.0379  0.6697 -0.9241
  112MOL    C7224714   5.864   3.298   4.295 -0.1933 -0.1073 -0.5235
  112MOL    C7324715   5.821   3.338   4.428  0.1616  0.3256  0.2336
  112MOL    O7424716   5.849   3.468   4.450  0.4909  0.2220  0.1756
  112MOL    H7524717   5.730   3.273   4.619  1.5993 -0.6132  1.3505
  112MOL    H7624718   5.706   3.047   4.553 -2.4822  0.7861 -1.4878
  112MOL    H7724719   5.886   3.122   4.167  1.2170  1.7341 -1.2947
  112MOL    H7824720   5.896   3.371   4.222  0.6578 -1.4819 -1.5495
  112MOL    C7924721   5.511   3.603   4.535  0.0319 -0.5969 -0.4558
  112MOL    C8024722   5.615   3.551   4.451 -0.2141 -0.4189  0.2402
  112MOL    C8124723   5.749   3.548   4.510  0.6913  0.4076 -0.3265
  112MOL    C8224724   5.779   3.631   4.626  0.5090  0.8217 -0.2707
  112MOL    C8324725   5.673   3.687   4.702 -0.0997  0.5072  0.6332
  112MOL    C8424726   5.541   3.665   4.657 -0.2536  0.2860 -0.2962
  112MOL    O8524727   5.440   3.705   4.741 -0.1573  0.3044 -0.0855
  112MOL    H8624728   5.406   3.589   4.516  0.4919 -2.0331 -2.0232
  112MOL    H8724729   5.587   3.509   4.356 -1.9190  0.1291  0.4888
  112MOL    H8824730   5.884   3.629   4.653  0.7655  1.6179 -1.1904
  112MOL    H8924731   5.686   3.744   4.793 -2.5578  1.2325  0.5829
  112MOL    C9024732   5.102   3.819   4.670  0.3406  0.5744  0.4695
  112MOL    C9124733   5.207   3.744   4.716 -0.3591  0.2043  0.4187
  112MOL    C9224734   5.337   3.776   4.681 -0.1640 -0.0409  0.0969
  112MOL    C9324735   5.355   3.881   4.587  0.4607  0.2736  0.3879
  112MOL    C9424736   5.244   3.951   4.534  0.5071  0.3327  0.4523
  112MOL    C9524737   5.117   3.922   4.579  0.4255  0.4456 -0.3849
  112MOL    O9624738   5.009   3.996   4.547  0.3313  0.3234 -0.0606
  112MOL    H9724739   5.003   3.791   4.702 -0.0896  0.5315 -0.8797
  112MOL    H9824740   5.185   3.663   4.784 -1.7057  0.4186  0.2537
  112MOL    H9924741   5.452   3.913   4.550  0.4163  0.7458  0.6750
  112MOL   H10024742   5.270   4.026   4.461  0.7203 -1.0289 -0.8987
  112MOL   C10124743   5.019   4.295   4.781 -0.9258  0.2863  0.2331
  112MOL   C10224744   5.062   4.182   4.700 -0.0765 -0.0509  0.4929
  112MOL   C10324745   4.971   4.104   4.631 -0.5276  0.0610  0.3230
  112MOL   C10424746   4.836   4.130   4.641 -0.1823  0.4771  0.0960
  112MOL   C10524747   4.795   4.237   4.717 -0.1318 -0.2513  0.2172
  112MOL   C10624748   4.882   4.324   4.788 -0.2252  0.5304  0.4946
  112MOL   O10724749   4.837   4.434   4.852  1.1389  0.3222 -0.6195
  112MOL   H10824750   5.088   4.355   4.838 -0.2021 -1.2500  1.0174
  112MOL   H10924751   5.165   4.149   4.709 -0.2043  0.0143  2.4476
  112MOL   H11024752   4.764   4.067   4.589 -0.3511  1.3586 -0.7556
  112MOL   H11124753   4.687   4.240   4.722 -0.0812 -1.1408  2.4079
  112MOL   C11224754   4.488   4.474   4.973  0.4168  0.5898  0.2333
  112MOL   C11324755   4.597   4.455   4.887  0.3126  0.6813 -0.0032
  112MOL   C11424756   4.728   4.427   4.934  0.0398  0.8540 -0.0595
  112MOL   C11524757   4.742   4.414   5.079 -0.2399 -0.0289 -0.2193
  112MOL   C11624758   4.630   4.414   5.162  1.1990  0.3207 -0.1088
  112MOL   C11724759   4.501   4.439   5.104  0.3854  0.1970  0.3995
  112MOL   O11824760   4.384   4.443   5.174 -0.0140  0.1077  0.2611
  112MOL   H11924761   4.389   4.488   4.933  0.2480 -3.2368 -0.9461
  112MOL   H12024762   4.581   4.467   4.781  2.7680 -0.0486 -0.4974
  112MOL   H12124763   4.838   4.401   5.127  0.0939 -2.9708 -1.6150
  112MOL   H12224764   4.650   4.394   5.267  0.2174 -1.5944 -0.2564
  112MOL   C12324765   4.412   4.253   5.495 -0.0935  0.4044 -0.2697
  112MOL   C12424766   4.411   4.361   5.401  0.4344 -0.5327  0.0530
  112MOL   C12524767   4.361   4.346   5.269 -0.1459  0.1644  0.1171
  112MOL   C12624768   4.280   4.234   5.238  0.4293  1.0940 -0.2370
  112MOL   C12724769   4.272   4.128   5.338  0.0533  1.0314 -0.0403
  112MOL   C12824770   4.342   4.137   5.459 -0.0057  0.1924  0.0047
  112MOL   O12924771   4.339   4.028   5.540 -0.6604 -0.4540 -0.6422
  112MOL   H13024772   4.451   4.263   5.595  1.2982 -1.4165 -0.6088
  112MOL   H13124773   4.456   4.455   5.427 -0.2759 -0.0997 -0.2752
  112MOL   H13224774   4.235   4.224   5.141 -1.4906  2.2925  0.5060
  112MOL   H13324775   4.217   4.040   5.310  3.8218 -2.0064  1.6154
  112MOL   C13424776   4.683   3.891   5.591  0.1311  0.4439  0.3142
  112MOL   C13524777   4.571   3.977   5.591  1.1479  0.2520 -0.6101
  112MOL   C13624778   4.451   3.947   5.528  0.8950 -0.0096 -0.3393
  112MOL   C13724779   4.448   3.840   5.442 -0.0429  0.2363 -0.0626
  112MOL   C13824780   4.554   3.752   5.436  0.0289 -0.2967 -0.5061
  112MOL   C13924781   4.670   3.774   5.513  0.2920 -0.0081 -0.2658
  112MOL   O14024782   4.772   3.682   5.511  0.3719  0.1778  0.7688
  112MOL   H14124783   4.770   3.919   5.650  0.0637  0.4075  0.4309
  112MOL   H14224784   4.574   4.075   5.637 -0.4199 -0.6420  1.4481
  112MOL   H14324785   4.363   3.810   5.383 -0.1370  1.4026 -0.5436
  112MOL   H14424786   4.543   3.656   5.388 -0.7970  0.3810 -1.6960
  112MOL   C14524787   5.030   3.786   5.264  0.3727 -0.2295  0.4806
  112MOL   C14624788   4.953   3.781   5.380  0.7513  0.2263  0.3875
  112MOL   C14724789   4.855   3.682   5.404 -0.7169 -0.6079 -0.1033
  112MOL   C14824790   4.855   3.575   5.322  0.8142  0.5957  0.6054
  112MOL   C14924791   4.928   3.572   5.202 -0.1320 -0.7752 -0.1308
  112MOL   C15024792   5.025   3.675   5.178 -0.2073  0.0336  0.2212
  112MOL   O15124793   5.089   3.684   5.056  0.3955 -0.0365  0.2297
  112MOL   H15224794   5.099   3.866   5.246  1.6673 -1.4154  0.0637
  112MOL   H15324795   4.969   3.867   5.443  1.4757  1.4126 -1.3623
  112MOL   H15424796   4.785   3.498   5.351  1.2901  0.0409  0.2792
  112MOL   H15524797   4.914   3.492   5.132 -1.0972 -1.0900  0.4162
  112MOL   C15624798   5.442   3.599   5.106 -0.2205  0.5145  0.1020
  112MOL   C15724799   5.302   3.591   5.098  0.3454  0.1952  1.0434
  112MOL   C15824800   5.226   3.699   5.062  0.0957 -0.3186  0.8090
  112MOL   C15924801   5.289   3.823   5.034 -0.5542 -0.0480  0.0713
  112MOL   C16024802   5.429   3.828   5.030 -0.0879  0.0787 -0.4694
  112MOL   C16124803   5.510   3.718   5.074 -0.6467 -0.0814  0.0038
  112MOL   O16224804   5.649   3.732   5.071  0.2177 -0.3288  0.8620
  112MOL   H16324805   5.492   3.510   5.143  0.4822  0.7209 -0.3345
  112MOL   H16424806   5.251   3.499   5.123  0.3368 -0.6462 -1.9141
  112MOL   H16524807   5.234   3.901   4.983 -0.2838  0.2946  0.2953
  112MOL   H16624808   5.469   3.918   4.987 -1.4236  1.0944  0.3945
  112MOL   C16724809   5.784   3.568   5.377  0.1308 -0.1513  0.2074
  112MOL   C16824810   5.705   3.655   5.296  0.0069  0.1727 -0.5323
  112MOL   C16924811   5.730   3.659   5.155  0.5687 -0.1397 -0.3167
  112MOL   C17024812   5.833   3.581   5.104 -0.7365 -0.3468 -0.0293
  112MOL   C17124813   5.918   3.502   5.179 -0.1934 -0.2030 -0.0829
  112MOL   C17224814   5.888   3.496   5.315  0.2096  0.1579  0.3219
  112MOL   O17324815   5.955   3.408   5.397 -0.1691  0.2661 -0.0273
  112MOL   H17424816   5.767   3.579   5.484  0.6557  0.2609  0.2486
  112MOL   H17524817   5.636   3.720   5.347  2.0258 -0.6129  3.3593
  112MOL   H17624818   5.848   3.602   4.999 -1.2011 -1.3318 -0.3011
  112MOL   H17724819   6.004   3.452   5.136  0.1349  0.6234 -0.3837
  112MOL   C17824820   5.929   3.056   5.278  0.3732 -0.4303 -0.1452
  112MOL   C17924821   5.889   3.184   5.332 -0.4842 -0.1723  0.1033
  112MOL   C18024822   5.987   3.279   5.356 -0.2184 -0.2036  0.8654
  112MOL   C18124823   6.122   3.237   5.339 -0.0780 -1.2819 -0.0121
  112MOL   C18224824   6.159   3.111   5.287 -0.5442  0.2758  0.3702
  112MOL   C18324825   6.060   3.020   5.258 -0.2926  0.5295  0.6458
  112MOL   O18424826   6.091   2.897   5.211 -0.1218 -0.1799  0.8677
  112MOL   H18524827   5.854   2.983   5.249  0.5147 -0.3319 -0.7819
  112MOL   H18624828   5.786   3.208   5.355 -0.2579  1.6710 -0.7273
  112MOL   H18724829   6.190   3.312   5.375 -0.7262 -0.3642 -0.6714
  112MOL   H18824830   6.265   3.098   5.270 -0.9017  0.0827 -1.8407
  112MOL   C18924831   5.921   2.582   5.219 -0.0817 -0.6249 -0.4180
  112MOL   C19024832   5.981   2.696   5.179 -0.4170  0.3961  0.0177
  112MOL   C19124833   6.041   2.784   5.266  0.6436  0.1049 -0.7974
  112MOL   C19224834   6.047   2.754   5.403  0.5422  0.1393 -0.4371
  112MOL   C19324835   5.978   2.640   5.455  0.4530 -0.1057 -0.3244
  112MOL   C19424836   5.922   2.545   5.360 -0.6972 -0.2880  0.4508
  112MOL   O19524837   5.862   2.433   5.400  0.3337  0.1331  0.0821
  112MOL   H19624838   5.864   2.521   5.150 -0.3237 -0.7473 -0.1130
  112MOL   H19724839   5.976   2.712   5.072  0.9051 -1.0949 -0.2884
  112MOL   H19824840   6.078   2.830   5.473 -0.9244 -0.4040  0.8395
  112MOL   H19924841   5.965   2.628   5.561 -0.0210 -0.6589 -0.4402
  112MOL   C20024842   6.041   2.109   5.458  0.0334 -0.1208  0.5536
  112MOL   C20124843   5.987   2.235   5.477  0.5379 -1.3668  0.2240
  112MOL   C20224844   5.929   2.313   5.374 -0.2728 -0.6432 -0.4074
  112MOL   C20324845   5.921   2.260   5.246 -0.1344  0.3082 -0.8552
  112MOL   C20424846   5.984   2.136   5.222  0.5613 -0.7735  0.5797
  112MOL   C20524847   6.038   2.057   5.325 -0.6853  0.2666 -0.8368
  112MOL   O20624848   6.069   1.928   5.295 -0.3028 -0.2109  0.2371
  112MOL   H20724849   6.072   2.043   5.538 -0.3164 -0.7830  0.1549
  112MOL   H20824850   5.978   2.284   5.573 -0.3967 -2.4261  0.6885
  112MOL   H20924851   5.868   2.309   5.166  1.9824 -0.0383 -2.5186
  112MOL   H21024852   5.988   2.090   5.124 -0.2886 -0.8621  0.5802
  112MOL   C21124853   6.328   1.788   5.078 -0.0469 -0.1598  0.2853
  112MOL   C21224854   6.202   1.836   5.119 -0.3560  0.2007 -0.6527
  112MOL   C21324855   6.194   1.902   5.243  0.8707  0.2214 -0.1116
  112MOL   C21424856   6.314   1.928   5.318 -0.2752 -0.4017 -0.3198
  112MOL   C21524857   6.440   1.892   5.268  0.0402 -0.7150  0.4070
  112MOL   C21624858   6.442   1.813   5.153  0.0852 -0.7095 -0.1527
  112MOL   O21724859   6.558   1.751   5.121 -0.4237 -0.4603 -0.3710
  112MOL   H21824860   6.336   1.723   4.991  2.9026  1.6120 -0.8511
  112MOL   H21924861   6.111   1.818   5.064  0.1702 -0.4708 -1.3116
  112MOL   H22024862   6.315   1.989   5.407  0.2952  2.3002 -2.1086
  112MOL   H22124863   6.531   1.928   5.314 -0.7396 -0.8559  2.1104
  112MOL   H22224864   6.627   1.766   5.183  0.9115 -0.4985 -1.8053
  113MOL     C124865   4.000   4.781   3.539 -0.4813  0.5261 -0.4470
  113MOL     C224866   3.995   4.853   3.414 -0.1573 -0.1492 -0.5047
  113MOL     C324867   4.105   4.920   3.361  0.3027  0.2439  0.0531
  113MOL     C424868   4.229   4.905   3.431  0.3456  0.3700  0.5018
  113MOL     C524869   4.239   4.812   3.539 -0.4012 -0.3070  0.5104
  113MOL     C624870   4.124   4.753   3.594  0.1271 -0.0076  0.0915
  113MOL     O724871   4.132   4.666   3.703 -0.1462  0.1927 -0.3582
  113MOL     H824872   3.916   4.734   3.586  0.7379 -1.2187  0.0175
  113MOL     H924873   3.900   4.876   3.368  0.3687  1.9458 -0.5831
  113MOL    H1024874   4.318   4.957   3.398  0.4286  1.3495  2.2379
  113MOL    H1124875   4.333   4.811   3.594 -1.5081 -1.3239  2.4508
  113MOL    H1224876   4.103   4.975   3.268  1.5533  1.5898  0.8004
  113MOL    C1324877   4.337   4.764   3.990  0.0414 -0.0667  0.0596
  113MOL    C1424878   4.252   4.775   3.881  0.2917  0.1837 -0.3103
  113MOL    C1524879   4.240   4.669   3.787  0.4447  0.3376 -0.4507
  113MOL    C1624880   4.329   4.561   3.793 -0.1539 -0.2670  0.4093
  113MOL    C1724881   4.411   4.548   3.910 -0.4785 -0.2032 -0.5272
  113MOL    C1824882   4.421   4.646   4.007  0.9693  0.0480 -0.1735
  113MOL    O1924883   4.504   4.641   4.115 -0.1872  0.2448  0.8880
  113MOL    H2024884   4.336   4.840   4.067 -2.3391 -0.5483  0.5417
  113MOL    H2124885   4.177   4.852   3.888  0.2860  0.0420  1.3866
  113MOL    H2224886   4.295   4.472   3.741 -2.5911  0.6738  0.3256
  113MOL    H2324887   4.466   4.461   3.941 -0.3606 -0.2957 -0.9972
  113MOL    C2424888   4.671   4.902   4.306 -0.2707 -0.8379 -0.1674
  113MOL    C2524889   4.593   4.793   4.273  0.4527  0.2247 -0.3035
  113MOL    C2624890   4.586   4.743   4.140  0.4575  0.4839 -0.0910
  113MOL    C2724891   4.660   4.813   4.034  0.4604  0.7041 -0.4609
  113MOL    C2824892   4.754   4.915   4.066 -0.4599 -0.5055  0.5136
  113MOL    C2924893   4.748   4.958   4.202  0.4483  0.1975 -0.5778
  113MOL    O3024894   4.833   5.064   4.231 -0.4117 -0.0151 -0.1888
  113MOL    H3124895   4.672   4.946   4.404  0.0384  1.3357 -1.1061
  113MOL    H3224896   4.529   4.752   4.350  2.8218  0.5782  1.9115
  113MOL    H3324897   4.654   4.774   3.934 -0.1110 -0.9310  0.1877
  113MOL    H3424898   4.807   4.962   3.984 -0.2900 -1.2441  0.1924
  113MOL    C3524899   4.777   5.374   4.034 -0.2960  0.6461  0.1890
  113MOL    C3624900   4.820   5.245   4.072  0.8277  0.1527  0.2487
  113MOL    C3724901   4.787   5.191   4.198 -0.0960  0.3358 -0.3979
  113MOL    C3824902   4.713   5.262   4.291  0.1991 -0.2672  0.3637
  113MOL    C3924903   4.666   5.392   4.260 -0.0445  0.1176  0.2914
  113MOL    C4024904   4.697   5.445   4.132 -0.1436 -0.7196 -0.4986
  113MOL    O4124905   4.651   5.574   4.106  0.2272 -0.1925  0.1078
  113MOL    H4224906   4.794   5.418   3.937  0.7032 -1.2415 -0.5329
  113MOL    H4324907   4.869   5.195   3.990 -2.8541 -1.8473 -0.8719
  113MOL    H4424908   4.686   5.210   4.382 -1.5118 -0.5113 -0.2734
  113MOL    H4524909   4.605   5.443   4.333  2.5527  1.7476  1.3942
  113MOL    C4624910   4.310   5.703   4.054  0.4022  0.7146  0.2691
  113MOL    C4724911   4.444   5.699   4.091  0.0704 -0.9836  0.5189
  113MOL    C4824912   4.522   5.587   4.060  0.6411 -0.2397 -0.3265
  113MOL    C4924913   4.476   5.483   3.969  0.0732  0.1382 -0.9900
  113MOL    C5024914   4.346   5.503   3.916 -0.0032  0.6101 -0.1624
  113MOL    C5124915   4.263   5.611   3.955  0.6070 -0.5533  0.2398
  113MOL    O5224916   4.141   5.620   3.904  0.0241 -0.4613  0.4944
  113MOL    H5324917   4.249   5.787   4.083  0.5841  0.6068  0.9787
  113MOL    H5424918   4.481   5.766   4.167 -0.5924 -0.8498  0.7204
  113MOL    H5524919   4.536   5.398   3.942 -0.1620 -0.4528  0.3041
  113MOL    H5624920   4.306   5.422   3.857  1.9787 -0.9980  0.6533
  113MOL    C5724921   3.934   5.920   3.916  0.4338 -0.7058 -0.2317
  113MOL    C5824922   3.976   5.784   3.933  0.2577  0.1840 -0.6959
  113MOL    C5924923   4.095   5.741   3.871  0.1850 -0.2686  0.2708
  113MOL    C6024924   4.163   5.819   3.774 -0.4802  0.0591  0.6409
  113MOL    C6124925   4.116   5.952   3.757 -0.1934 -0.3444  0.1404
  113MOL    C6224926   4.003   6.005   3.827 -0.5206  0.4904 -0.2291
  113MOL    O6324927   3.949   6.125   3.796  0.1773  0.3156  0.0725
  113MOL    H6424928   3.839   5.951   3.957  0.5919 -1.1851  0.5135
  113MOL    H6524929   3.922   5.713   3.993  1.8398  0.7989  1.4942
  113MOL    H6624930   4.251   5.787   3.721  0.2198 -1.2197  2.5483
  113MOL    H6724931   4.168   6.022   3.691 -0.9897  0.0901 -0.0319
  113MOL    C6824932   3.862   6.169   3.435 -0.4543 -0.3833 -0.2106
  113MOL    C6924933   3.942   6.171   3.552 -0.3651  1.0669  0.0265
  113MOL    C7024934   3.883   6.144   3.674 -0.2529 -0.6080 -0.0150
  113MOL    C7124935   3.747   6.110   3.673  0.5087  0.2793 -0.2040
  113MOL    C7224936   3.665   6.109   3.561  0.6555  1.0388 -0.3946
  113MOL    C7324937   3.720   6.146   3.436  0.0965  0.8490 -0.9014
  113MOL    O7424938   3.647   6.130   3.320  0.1301 -0.3215 -0.4696
  113MOL    H7524939   3.900   6.185   3.335  2.6571  1.2472  1.1633
  113MOL    H7624940   4.049   6.188   3.551 -0.4079  1.3195 -0.3948
  113MOL    H7724941   3.699   6.079   3.765 -1.1987 -1.7510 -1.7516
  113MOL    H7824942   3.562   6.085   3.583  1.7091 -0.9252  2.6512
  113MOL    C7924943   3.321   6.279   3.273  0.4767 -0.3621 -0.9784
  113MOL    C8024944   3.422   6.186   3.308 -0.0939  0.1704 -0.7002
  113MOL    C8124945   3.553   6.226   3.291  0.0782  0.6634  0.2465
  113MOL    C8224946   3.587   6.346   3.228 -0.0232 -0.6837 -0.3862
  113MOL    C8324947   3.485   6.434   3.194 -0.2125  0.4094  0.3021
  113MOL    C8424948   3.352   6.401   3.218  0.9078  0.3999 -0.4037
  113MOL    O8524949   3.254   6.485   3.170  0.1177  0.4898 -0.4294
  113MOL    H8624950   3.219   6.246   3.283  0.3987  0.0835 -0.2534
  113MOL    H8724951   3.401   6.085   3.337  0.5352  0.2750  0.1506
  113MOL    H8824952   3.691   6.377   3.223 -0.2671 -0.0933 -2.1583
  113MOL    H8924953   3.508   6.528   3.146 -1.3970  0.3728 -0.3544
  113MOL    C9024954   3.213   6.614   2.823 -0.0768 -0.6853  0.6215
  113MOL    C9124955   3.242   6.610   2.962  0.4523 -0.5834  0.1114
  113MOL    C9224956   3.228   6.487   3.034  0.3063 -0.9494  0.3847
  113MOL    C9324957   3.181   6.370   2.972  0.2494  0.4452 -0.7693
  113MOL    C9424958   3.151   6.383   2.832  0.3251 -0.5934  0.2574
  113MOL    C9524959   3.163   6.502   2.761  0.7125 -0.6637  0.3007
  113MOL    O9624960   3.133   6.515   2.628 -0.6492 -0.0015 -0.3568
  113MOL    H9724961   3.222   6.702   2.762 -1.5318  0.5401  2.1312
  113MOL    H9824962   3.291   6.691   3.014  1.1857 -1.9227  1.5847
  113MOL    H9924963   3.162   6.275   3.020  1.2107 -0.0937 -1.4145
  113MOL   H10024964   3.114   6.295   2.781  0.6309 -1.7508  1.9944
  113MOL   C10124965   2.777   6.427   2.573  0.2480  0.2955 -0.2851
  113MOL   C10224966   2.894   6.482   2.629  0.1809 -0.8348 -0.0328
  113MOL   C10324967   3.025   6.447   2.579 -0.1043  0.8583  0.0745
  113MOL   C10424968   3.031   6.364   2.470 -0.6001 -0.5449 -0.0133
  113MOL   C10524969   2.916   6.305   2.414 -0.1272  0.4644 -0.1147
  113MOL   C10624970   2.784   6.335   2.467  0.1804  0.0239 -0.3184
  113MOL   O10724971   2.670   6.291   2.408 -0.7845 -0.0425  0.0264
  113MOL   H10824972   2.682   6.453   2.618 -1.5773  0.4467 -4.0573
  113MOL   H10924973   2.886   6.542   2.718 -0.6499  0.2658 -0.8430
  113MOL   H11024974   3.127   6.338   2.427 -0.8084 -0.4911 -0.5235
  113MOL   H11124975   2.926   6.237   2.330  1.0422 -1.0166  1.1770
  113MOL   C11224976   2.634   6.025   2.155  0.2663  0.2691  0.1881
  113MOL   C11324977   2.659   6.150   2.215  0.1894  0.1662 -0.2115
  113MOL   C11424978   2.669   6.162   2.354 -0.2837  0.6037 -0.4529
  113MOL   C11524979   2.665   6.051   2.437  0.0296  0.1336 -0.0045
  113MOL   C11624980   2.661   5.929   2.372 -0.5939  0.0718  0.9453
  113MOL   C11724981   2.645   5.915   2.233 -0.0224 -0.5301  0.5694
  113MOL   O11824982   2.651   5.789   2.179 -0.0112 -0.4353 -0.0204
  113MOL   H11924983   2.616   5.996   2.052 -0.4464 -1.1189  0.6881
  113MOL   H12024984   2.653   6.231   2.143 -2.7553  0.1513 -0.0151
  113MOL   H12124985   2.671   6.063   2.544  0.1627 -0.6809  0.0828
  113MOL   H12224986   2.659   5.845   2.440  1.1233  0.4267  1.4490
  113MOL   C12324987   2.461   5.484   2.261 -0.2572 -0.4258  0.1733
  113MOL   C12424988   2.570   5.582   2.254  0.2791 -0.2608 -0.3297
  113MOL   C12524989   2.542   5.705   2.195 -0.5877  0.3164 -0.0484
  113MOL   C12624990   2.414   5.739   2.153  0.0138 -0.7272  0.7384
  113MOL   C12724991   2.307   5.660   2.184  0.1984  0.3744  0.5530
  113MOL   C12824992   2.333   5.521   2.222 -1.2494 -0.4511  0.7668
  113MOL   O12924993   2.233   5.426   2.222 -0.2426 -0.0231  0.5972
  113MOL   H13024994   2.480   5.387   2.305  1.7079  0.7491  2.0105
  113MOL   H13124995   2.672   5.552   2.274  0.0297 -0.8541  0.0572
  113MOL   H13224996   2.393   5.832   2.102 -0.5147 -3.1725 -3.6724
  113MOL   H13324997   2.207   5.686   2.153  0.2578 -0.1834 -0.1345
  113MOL   C13424998   2.165   5.252   2.544 -0.0390  0.5249 -0.5840
  113MOL   C13524999   2.167   5.351   2.443 -0.1772  0.1174  0.2591
  113MOL   C13625000   2.229   5.326   2.317 -0.2496  0.3417 -0.1513
  113MOL   C13725001   2.286   5.199   2.291  1.4389  0.8719 -0.1065
  113MOL   C13825002   2.288   5.100   2.395  0.4609  0.5540 -0.7354
  113MOL   C13925003   2.232   5.126   2.521  0.0130  0.3692 -0.7794
  113MOL   O14025004   2.233   5.035   2.627  0.3899  0.1567  1.0473
  113MOL   H14125005   2.123   5.268   2.643  1.6037 -2.5211  0.6625
  113MOL   H14225006   2.116   5.446   2.448 -0.3194 -0.0023  1.0429
  113MOL   H14325007   2.339   5.190   2.197  1.7679  3.1740 -0.1673
  113MOL   H14425008   2.332   5.002   2.384  0.1418  0.4075 -0.7013
  113MOL   C14525009   2.596   4.961   2.669  0.1402 -0.0556  0.1911
  113MOL   C14625010   2.476   5.033   2.642  0.1336  0.7844  0.3804
  113MOL   C14725011   2.350   4.967   2.652  0.5756 -0.4331  0.4061
  113MOL   C14825012   2.344   4.832   2.687  0.2248  0.0756  0.3469
  113MOL   C14925013   2.465   4.765   2.722  0.3898 -0.1368 -0.3893
  113MOL   C15025014   2.592   4.827   2.719  0.4719 -0.8074 -0.0320
  113MOL   O15125015   2.702   4.767   2.757 -0.2783  0.3539 -0.1683
  113MOL   H15225016   2.690   5.013   2.653 -0.8162  0.8678 -2.5848
  113MOL   H15325017   2.484   5.136   2.609 -1.3902  0.3032 -1.6169
  113MOL   H15425018   2.251   4.779   2.703 -1.3899  3.2923  2.0295
  113MOL   H15525019   2.469   4.665   2.762 -1.0399  0.0771  0.3373
  113MOL   C15625020   2.737   4.706   3.122 -0.6013 -0.0348 -0.1577
  113MOL   C15725021   2.701   4.769   3.000 -0.1099  0.1148  0.0473
  113MOL   C15825022   2.715   4.703   2.877  0.4105  0.8035  0.3919
  113MOL   C15925023   2.743   4.566   2.884  0.1604  0.4069  0.1189
  113MOL   C16025024   2.771   4.504   3.003 -0.3024  0.2749  0.8355
  113MOL   C16125025   2.782   4.576   3.126  0.5498  0.0797  0.4039
  113MOL   O16225026   2.812   4.523   3.250 -0.6493 -0.0846 -0.1074
  113MOL   H16325027   2.729   4.766   3.211 -1.1818 -1.1603  0.5582
  113MOL   H16425028   2.672   4.872   3.007 -0.2612  0.0692  0.0942
  113MOL   H16525029   2.765   4.507   2.796  2.3117  0.4759  0.5835
  113MOL   H16625030   2.800   4.400   3.001  5.0028  1.6380 -0.7879
  113MOL   C16725031   2.979   4.194   3.278  1.1479 -1.0791 -0.0639
  113MOL   C16825032   2.879   4.291   3.281 -0.0138 -0.8214  0.2843
  113MOL   C16925033   2.909   4.424   3.249  0.2407  0.5659  0.0576
  113MOL   C17025034   3.040   4.458   3.225 -0.2465  1.0098 -0.4349
  113MOL   C17125035   3.137   4.355   3.205  0.9536 -0.0370 -0.6068
  113MOL   C17225036   3.105   4.221   3.232 -0.3951  0.6544  0.0918
  113MOL   O17325037   3.190   4.114   3.212  0.2812 -0.0718  0.9785
  113MOL   H17425038   2.954   4.094   3.309  0.3754 -1.4045 -1.7451
  113MOL   H17525039   2.776   4.269   3.305 -0.3591  1.7113  1.2902
  113MOL   H17625040   3.067   4.560   3.203  0.0447  0.5690 -2.2695
  113MOL   H17725041   3.234   4.385   3.168  1.9115 -0.0074  1.8547
  113MOL   C17825042   3.180   4.057   2.847 -0.3817 -0.2751 -0.3459
  113MOL   C17925043   3.141   4.072   2.978  0.2465 -0.4133 -0.2064
  113MOL   C18025044   3.231   4.103   3.081 -0.0281  0.2498 -0.4054
  113MOL   C18125045   3.375   4.113   3.049  0.1054 -0.3312 -0.1001
  113MOL   C18225046   3.408   4.101   2.916 -0.5827 -0.0387 -0.1029
  113MOL   C18325047   3.316   4.074   2.811 -0.2682 -0.4224 -0.4366
  113MOL   O18425048   3.344   4.065   2.677 -0.2719 -0.4866  0.3939
  113MOL   H18525049   3.110   4.017   2.775 -0.7397 -2.2610  1.0649
  113MOL   H18625050   3.039   4.062   3.011  0.5651  1.5281  1.4530
  113MOL   H18725051   3.452   4.113   3.125  0.5711 -3.4580 -0.5103
  113MOL   H18825052   3.515   4.098   2.898 -0.2399  1.7086  1.4459
  113MOL   C18925053   3.659   4.025   2.507 -0.8287 -0.0752  0.4785
  113MOL   C19025054   3.547   4.087   2.557 -0.0201  0.1710 -0.4571
  113MOL   C19125055   3.462   4.006   2.633 -0.2392 -0.3395 -0.5714
  113MOL   C19225056   3.490   3.866   2.660 -0.3784 -0.0856 -0.5109
  113MOL   C19325057   3.608   3.812   2.602  0.3171 -0.3896 -0.3687
  113MOL   C19425058   3.694   3.889   2.528  0.4443 -0.5686  0.0309
  113MOL   O19525059   3.806   3.830   2.480 -0.6134  0.0629 -0.4553
  113MOL   H19625060   3.722   4.085   2.444 -0.3254 -2.2026 -1.1387
  113MOL   H19725061   3.524   4.189   2.532 -0.6494  1.1103  3.6328
  113MOL   H19825062   3.431   3.798   2.719 -1.7044  1.5168  0.0408
  113MOL   H19925063   3.640   3.709   2.608  0.8311 -0.2094 -0.0154
  113MOL   C20025064   4.084   4.004   2.317 -0.2728 -0.1208  0.5312
  113MOL   C20125065   4.012   3.927   2.409 -0.6875  0.1449  0.5153
  113MOL   C20225066   3.880   3.888   2.380 -0.1977  0.4429 -0.0751
  113MOL   C20325067   3.825   3.904   2.254 -0.5376 -0.9692 -0.1107
  113MOL   C20425068   3.904   3.968   2.153  0.0595 -0.1545 -0.5602
  113MOL   C20525069   4.029   4.024   2.187 -0.3292  0.1120 -0.8189
  113MOL   O20625070   4.100   4.100   2.097  0.3045 -0.2499 -0.4398
  113MOL   H20725071   4.181   4.044   2.344  0.0137 -1.0638  0.9075
  113MOL   H20825072   4.046   3.919   2.510 -0.9328  3.2416  0.8939
  113MOL   H20925073   3.722   3.877   2.236 -1.3822  1.6560  0.5533
  113MOL   H21025074   3.869   3.990   2.054 -0.0862 -2.0563 -0.9423
  113MOL   C21125075   4.050   4.259   1.761 -0.4263  0.4607  0.0039
  113MOL   C21225076   4.105   4.184   1.871  0.6164 -0.0158 -0.2599
  113MOL   C21325077   4.038   4.176   1.997  0.5198  0.4916  0.5734
  113MOL   C21425078   3.922   4.251   2.013 -0.6204 -0.1503 -0.0027
  113MOL   C21525079   3.870   4.330   1.910 -0.2951 -1.3485 -0.3212
  113MOL   C21625080   3.935   4.338   1.786  0.2847  0.4911  0.1668
  113MOL   O21725081   3.895   4.422   1.690 -0.1203 -0.3277  0.2414
  113MOL   H21825082   4.113   4.258   1.673 -0.9907 -1.2782 -0.3927
  113MOL   H21925083   4.198   4.133   1.850  0.3196 -0.6243 -0.0934
  113MOL   H22025084   3.860   4.248   2.101 -0.4968 -1.1621  0.0568
  113MOL   H22125085   3.783   4.390   1.930 -1.5031 -2.8845 -0.8363
  113MOL   H22225086   3.856   4.496   1.734 -0.2084 -0.8059  0.9829
  114MOL     C125087   7.816   5.691   0.247 -0.0647 -1.0548 -0.3065
  114MOL     C225088   7.779   5.620   0.128 -0.1763 -0.1579  0.5075
  114MOL     C325089   7.869   5.533   0.063 -0.1919  0.5712 -0.1205
  114MOL     C425090   8.000   5.514   0.115 -0.3978  0.1977 -0.2542
  114MOL     C525091   8.029   5.572   0.238 -1.3990 -0.5471 -0.9207
  114MOL     C625092   7.945   5.666   0.299 -0.7994  0.1372  0.2122
  114MOL     O725093   7.970   5.731   0.415 -0.4797  0.0945 -0.3685
  114MOL     H825094   7.747   5.747   0.309  0.7781 -1.0134  0.6051
  114MOL     H925095   7.680   5.640   0.089  0.3076  0.4024 -0.4387
  114MOL    H1025096   8.069   5.445   0.069  3.1830  2.9780  0.6995
  114MOL    H1125097   8.125   5.553   0.284 -1.5296 -0.4279 -0.5997
  114MOL    H1225098   7.842   5.496   8.220  0.8551  0.2626 -0.3071
  114MOL    C1325099   7.852   5.748   0.757 -0.4304 -0.5655  0.2728
  114MOL    C1425100   7.898   5.784   0.631  0.1986  0.1119 -0.3441
  114MOL    C1525101   7.922   5.681   0.533 -0.7219  0.2098  0.4700
  114MOL    C1625102   7.898   5.549   0.561 -0.1342  0.3622 -0.1307
  114MOL    C1725103   7.856   5.515   0.690  0.2516  0.0354 -0.1207
  114MOL    C1825104   7.831   5.614   0.785  0.8565  0.4739 -0.5620
  114MOL    O1925105   7.778   5.577   0.906  0.3111 -0.2060 -0.5057
  114MOL    H2025106   7.828   5.819   0.835 -1.7757 -0.8496  0.1453
  114MOL    H2125107   7.908   5.889   0.608 -0.2560  0.1631 -0.3073
  114MOL    H2225108   7.912   5.471   0.488 -0.9469 -1.8707  2.0388
  114MOL    H2325109   7.830   5.413   0.711  2.5903 -0.3904  0.8512
  114MOL    C2425110   8.057   5.445   1.119  0.3985  0.7946 -0.1640
  114MOL    C2525111   7.983   5.525   1.027 -0.1777  0.0329 -0.1042
  114MOL    C2625112   7.854   5.489   0.981 -0.4201 -0.9194  0.3916
  114MOL    C2725113   7.798   5.373   1.035 -0.0367 -0.4966  0.2823
  114MOL    C2825114   7.866   5.293   1.130 -0.1703  0.4042 -0.3407
  114MOL    C2925115   7.995   5.328   1.174 -0.2234  0.2091 -0.4569
  114MOL    O3025116   8.053   5.253   1.266 -0.7080  0.1776  0.4445
  114MOL    H3125117   8.162   5.465   1.134  0.5414  0.2494 -0.4267
  114MOL    H3225118   8.029   5.614   0.986  0.7348 -0.0891  0.6542
  114MOL    H3325119   7.694   5.352   1.011 -0.6714  0.2067  2.3500
  114MOL    H3425120   7.818   5.206   1.172 -2.9847  2.0818  0.0932
  114MOL    C3525121   8.034   5.446   1.577 -0.0446 -0.1627 -0.1372
  114MOL    C3625122   8.001   5.390   1.449  0.3298 -0.4295  0.1488
  114MOL    C3725123   8.094   5.304   1.387 -0.3579 -0.5618 -0.4404
  114MOL    C3825124   8.214   5.265   1.448 -0.5964 -0.2577 -0.6702
  114MOL    C3925125   8.238   5.317   1.584 -0.2688 -0.5061 -0.3493
  114MOL    C4025126   8.147   5.404   1.650  0.5905  0.4398 -0.5729
  114MOL    O4125127   8.168   5.444   1.779  0.2371  0.3854 -0.5359
  114MOL    H4225128   7.967   5.512   1.630 -0.0407 -0.1778 -0.1147
  114MOL    H4325129   7.905   5.416   1.406  1.2492  0.7492 -1.2674
  114MOL    H4425130   0.027   5.203   1.390  0.7514  0.5453 -0.0091
  114MOL    H4525131   0.073   5.294   1.641 -0.7580  0.5540  0.8854
  114MOL    C4625132   0.114   5.752   1.787 -1.0874  0.0075 -0.0742
  114MOL    C4725133   0.070   5.616   1.777 -1.1174 -0.3252 -0.1681
  114MOL    C4825134   8.199   5.573   1.810  0.2384  0.0861  0.6752
  114MOL    C4925135   8.104   5.668   1.854  0.7449 -0.0018  0.0694
  114MOL    C5025136   8.138   5.800   1.864  0.1752  0.0630  0.2511
  114MOL    C5125137   0.017   5.844   1.833  0.1208  0.2967  0.2148
  114MOL    O5225138   0.050   5.978   1.831 -0.5362  0.4506 -0.0422
  114MOL    H5325139   0.219   5.768   1.768 -1.3155  1.2446 -0.3265
  114MOL    H5425140   0.138   5.540   1.741  0.0199  0.0667  1.1102
  114MOL    H5525141   8.000   5.643   1.871  1.2552 -2.6991 -0.6341
  114MOL    H5625142   8.062   5.865   1.905 -0.5650 -0.3215 -0.4795
  114MOL    C5725143   8.242   6.135   2.149  0.3690 -0.8308 -0.1370
  114MOL    C5825144   0.042   6.061   2.048 -0.5280  0.0904 -0.0076
  114MOL    C5925145   8.244   6.061   1.920  0.5326 -0.0428 -0.3628
  114MOL    C6025146   8.126   6.135   1.890  0.1515 -0.2441  0.0857
  114MOL    C6125147   8.079   6.223   1.993  0.8774  0.3948  0.4043
  114MOL    C6225148   8.131   6.216   2.125 -1.0197  0.5702  0.1329
  114MOL    O6325149   8.097   6.301   2.230 -0.5586 -0.2675  0.1585
  114MOL    H6425150   0.024   6.129   2.250 -1.3425  3.0811  0.7783
  114MOL    H6525151   0.121   5.990   2.068  0.0277  1.2031  1.8466
  114MOL    H6625152   8.078   6.124   1.794 -3.4555  0.2244  1.7398
  114MOL    H6725153   7.996   6.289   1.974  0.3471 -0.3432  0.1146
  114MOL    C6825154   7.728   6.340   2.270  0.1494 -0.6905 -0.1499
  114MOL    C6925155   7.856   6.283   2.264 -0.0548 -0.0493 -0.6708
  114MOL    C7025156   7.972   6.361   2.235  0.0018  0.5912 -0.1926
  114MOL    C7125157   7.961   6.503   2.216 -0.0446 -0.0598 -0.4290
  114MOL    C7225158   7.832   6.560   2.227  0.0444  0.7532 -0.3482
  114MOL    C7325159   7.715   6.479   2.254 -0.2177 -0.1167 -0.2809
  114MOL    O7425160   7.594   6.536   2.253  0.8558  0.0255 -0.0287
  114MOL    H7525161   7.643   6.273   2.272 -0.3615 -0.0509 -0.4339
  114MOL    H7625162   7.870   6.177   2.276  0.9049  0.1284 -0.1071
  114MOL    H7725163   8.051   6.560   2.203 -0.2086 -0.3675 -3.3676
  114MOL    H7825164   7.825   6.665   2.200  0.7561  1.1974  1.1439
  114MOL    C7925165   7.306   6.514   2.480 -0.0146 -0.1637  0.0938
  114MOL    C8025166   7.393   6.491   2.370 -0.7237  0.1357  0.0326
  114MOL    C8125167   7.525   6.545   2.372  0.5776  0.2951 -0.2417
  114MOL    C8225168   7.573   6.614   2.484 -0.2384  0.3516  0.0997
  114MOL    C8325169   7.492   6.631   2.600 -0.6763  0.3947  0.2379
  114MOL    C8425170   7.358   6.587   2.592 -0.2094  0.2740 -0.0793
  114MOL    O8525171   7.263   6.611   2.691 -0.0450 -0.4454 -0.2301
  114MOL    H8625172   7.206   6.474   2.481  0.9877 -2.8458 -0.2352
  114MOL    H8725173   7.362   6.442   2.279  0.2365  0.3465 -0.4117
  114MOL    H8825174   7.672   6.657   2.475 -0.6016  1.3574  0.8126
  114MOL    H8925175   7.531   6.676   2.690  1.5166 -1.0423  0.0318
  114MOL    C9025176   7.410   6.478   3.009  0.8670 -0.3600 -0.8672
  114MOL    C9125177   7.399   6.526   2.877 -0.2318  0.0784 -0.5512
  114MOL    C9225178   7.274   6.563   2.818 -0.0451 -0.1587  0.1556
  114MOL    C9325179   7.159   6.549   2.900 -0.0813 -0.0775 -0.1995
  114MOL    C9425180   7.170   6.510   3.036 -0.0504  0.2550  0.3065
  114MOL    C9525181   7.297   6.475   3.092  0.3212  0.1148 -0.0724
  114MOL    O9625182   7.317   6.433   3.220 -0.0552  0.1518  0.2533
  114MOL    H9725183   7.500   6.447   3.060  1.2106  1.6135 -0.2227
  114MOL    H9825184   7.489   6.516   2.819  0.1147 -0.6492  0.1048
  114MOL    H9925185   7.059   6.568   2.863  0.2959 -0.3763 -1.3706
  114MOL   H10025186   7.082   6.507   3.099 -0.7137  0.0335 -0.6278
  114MOL   C10125187   7.324   6.061   3.227 -0.0830 -0.6966 -0.1321
  114MOL   C10225188   7.332   6.194   3.179  0.0364 -0.0527  0.1820
  114MOL   C10325189   7.305   6.304   3.261  0.4388  0.5482 -0.1662
  114MOL   C10425190   7.257   6.274   3.393  0.0391 -0.1371  0.0115
  114MOL   C10525191   7.255   6.141   3.442  0.1227  0.0862  0.1226
  114MOL   C10625192   7.294   6.028   3.359 -0.2475  0.1402  0.4235
  114MOL   O10725193   7.304   5.905   3.411 -0.3000 -0.2830 -0.3335
  114MOL   H10825194   7.338   5.989   3.148 -0.2359  0.2656 -1.0517
  114MOL   H10925195   7.347   6.216   3.074  1.4179 -1.2449  0.1036
  114MOL   H11025196   7.217   6.357   3.449 -0.3947  0.6321 -1.3936
  114MOL   H11125197   7.224   6.124   3.544  4.0668 -0.6490  1.2807
  114MOL   C11225198   7.637   5.897   3.572 -0.5848  0.6076 -0.0992
  114MOL   C11325199   7.502   5.919   3.551  0.3235 -0.0990 -0.9139
  114MOL   C11425200   7.433   5.869   3.440 -0.1154 -0.2212 -0.1813
  114MOL   C11525201   7.514   5.786   3.351 -0.0744 -0.0926 -0.4463
  114MOL   C11625202   7.654   5.764   3.375 -0.1822 -0.1388  0.5048
  114MOL   C11725203   7.715   5.821   3.487  0.3696  0.3624  0.2263
  114MOL   O11825204   7.851   5.814   3.509 -0.1212  0.4245  0.3382
  114MOL   H11925205   7.686   5.930   3.663 -0.8621 -0.6247  0.5045
  114MOL   H12025206   7.450   5.978   3.625  0.2784 -0.6702 -0.4844
  114MOL   H12125207   7.475   5.746   3.258  0.5652  0.8403 -1.1365
  114MOL   H12225208   7.714   5.710   3.303 -1.8461 -1.3355 -0.0095
  114MOL   C12325209   8.073   5.781   3.800 -0.4389 -0.0572  0.2346
  114MOL   C12425210   8.024   5.813   3.673 -0.5078  0.4585  0.2639
  114MOL   C12525211   7.895   5.777   3.633 -0.7137  0.1776  0.0126
  114MOL   C12625212   7.814   5.708   3.726  0.7389  0.1876  0.1523
  114MOL   C12725213   7.858   5.678   3.855 -0.4707  0.0391  0.5379
  114MOL   C12825214   7.987   5.710   3.892  0.2467 -0.8754  0.0133
  114MOL   O12925215   8.031   5.691   4.015 -0.0936 -0.2938 -0.2868
  114MOL   H13025216   8.166   5.815   3.844 -0.0686 -1.4712  0.5467
  114MOL   H13125217   8.089   5.866   3.605  0.0344 -0.0667  0.3677
  114MOL   H13225218   7.713   5.681   3.698  1.2546 -1.2524 -0.3521
  114MOL   H13325219   7.789   5.628   3.921 -1.4739  0.0935 -0.4553
  114MOL   C13425220   8.058   5.337   4.120 -0.7652  0.4602 -0.4754
  114MOL   C13525221   8.002   5.462   4.079 -0.7065  0.5587 -0.0023
  114MOL   C13625222   8.082   5.565   4.029  0.2525  0.4379  0.3443
  114MOL   C13725223   8.220   5.535   4.002  0.3650  0.5451 -0.2097
  114MOL   C13825224   0.020   5.409   4.029  0.3528  0.0921  0.6401
  114MOL   C13925225   8.197   5.315   4.107 -0.1837 -0.1761 -0.3101
  114MOL   O14025226   0.027   5.216   4.153 -0.1673 -0.4978 -0.3463
  114MOL   H14125227   7.994   5.265   4.168 -0.2457  0.3103 -0.0033
  114MOL   H14225228   7.896   5.480   4.091 -0.5756  1.2726  0.0483
  114MOL   H14325229   0.043   5.604   3.971 -0.8625  2.5024  0.9965
  114MOL   H14425230   0.120   5.371   4.011  0.1915 -1.3537  2.6162
  114MOL   C14525231   8.156   4.906   4.271  0.0153 -0.3223  0.3211
  114MOL   C14625232   8.184   5.016   4.191 -0.7119 -0.0888  0.3303
  114MOL   C14725233   8.240   5.128   4.249  0.1301  0.0012  0.1635
  114MOL   C14825234   0.010   5.140   4.386  0.1956  0.8199  0.5652
  114MOL   C14925235   8.232   5.032   4.469  1.3044 -0.5492 -0.6205
  114MOL   C15025236   8.173   4.915   4.414  0.0797 -0.6283 -0.2907
  114MOL   O15125237   8.130   4.811   4.494 -0.0038 -0.3914  0.1515
  114MOL   H15225238   8.116   4.814   4.230 -0.6085  0.3732 -0.6505
  114MOL   H15325239   8.191   4.997   4.085  0.8201 -1.2077  0.6204
  114MOL   H15425240   0.065   5.227   4.417  0.6936  0.4174  0.8286
  114MOL   H15525241   8.244   5.041   4.576 -0.7100 -3.6432 -0.0721
  114MOL   C15625242   7.761   4.870   4.510 -0.0575  0.3962  0.3851
  114MOL   C15725243   7.904   4.897   4.510 -0.4914 -0.3641  0.2353
  114MOL   C15825244   7.995   4.791   4.513 -0.2923  0.6333  0.2329
  114MOL   C15925245   7.948   4.654   4.511 -0.3506  0.0706  0.9854
  114MOL   C16025246   7.810   4.626   4.503  0.5251  0.4042 -0.1440
  114MOL   C16125247   7.719   4.731   4.497 -0.2446  0.3433 -0.2791
  114MOL   O16225248   7.583   4.705   4.501  0.0832 -0.5714  0.9915
  114MOL   H16325249   7.688   4.949   4.496  1.1767  1.7083  1.2254
  114MOL   H16425250   7.943   4.997   4.513 -0.6407 -0.2467 -1.3082
  114MOL   H16525251   8.022   4.575   4.503  1.9869  2.1896  1.1149
  114MOL   H16625252   7.780   4.523   4.487  0.0848  0.5909 -0.5331
  114MOL   C16725253   7.511   4.576   4.163 -0.9668  0.8675 -0.4371
  114MOL   C16825254   7.565   4.585   4.291  0.7038  0.2495 -0.1951
  114MOL   C16925255   7.520   4.687   4.380  0.7171 -0.6370 -0.3955
  114MOL   C17025256   7.419   4.778   4.335  0.6973 -0.7933 -0.0851
  114MOL   C17125257   7.374   4.772   4.208  0.0975  0.4902 -0.4903
  114MOL   C17225258   7.418   4.670   4.119  0.0454 -0.7257 -0.4074
  114MOL   O17325259   7.359   4.664   3.993 -0.2855  0.5351 -0.0725
  114MOL   H17425260   7.546   4.498   4.098 -0.4739 -1.2160  2.2146
  114MOL   H17525261   7.620   4.496   4.316 -3.3781 -3.0118 -2.2161
  114MOL   H17625262   7.382   4.855   4.401  2.2232 -0.5159  0.4758
  114MOL   H17725263   7.310   4.857   4.188 -0.0016  0.6596  0.4860
  114MOL   C17825264   7.384   4.418   3.726 -0.2859  0.2386 -0.0252
  114MOL   C17925265   7.336   4.488   3.833 -0.8403 -0.3386  0.3343
  114MOL   C18025266   7.411   4.594   3.887  0.2403  0.5179 -1.0327
  114MOL   C18125267   7.537   4.634   3.828 -0.3598  0.1706 -0.2789
  114MOL   C18225268   7.569   4.572   3.705 -0.0147  0.1336 -0.3015
  114MOL   C18325269   7.494   4.466   3.652 -0.5305 -1.8951  0.4694
  114MOL   O18425270   7.542   4.411   3.540 -0.3646  0.4285 -0.0800
  114MOL   H18525271   7.322   4.333   3.702  1.9359 -1.9017  1.5792
  114MOL   H18625272   7.242   4.455   3.875  0.8336 -1.9021  3.0132
  114MOL   H18725273   7.605   4.710   3.863  2.7132 -3.1930  1.3523
  114MOL   H18825274   7.653   4.601   3.643  0.1075 -0.3517 -0.3682
  114MOL   C18925275   7.712   4.089   3.582  0.1088  0.3754  0.2140
  114MOL   C19025276   7.615   4.187   3.566 -0.3739 -0.7111  0.0085
  114MOL   C19125277   7.647   4.323   3.556  0.1203 -0.5675 -0.6034
  114MOL   C19225278   7.778   4.363   3.546  0.5251 -0.2964 -0.3179
  114MOL   C19325279   7.881   4.268   3.561 -0.1353  0.0992  0.3757
  114MOL   C19425280   7.852   4.131   3.579  0.2025 -0.5909 -0.1724
  114MOL   O19525281   7.947   4.031   3.605  0.5887  0.6894 -0.2391
  114MOL   H19625282   7.689   3.984   3.583 -1.8318  0.7897  0.9272
  114MOL   H19725283   7.513   4.155   3.557  0.2001 -2.4128 -0.6706
  114MOL   H19825284   7.804   4.466   3.523  1.7173 -0.1887  1.3651
  114MOL   H19925285   7.985   4.296   3.555  0.9745 -3.9658 -0.4809
  114MOL   C20025286   8.087   4.096   3.941  0.0808 -0.1332 -0.1966
  114MOL   C20125287   7.995   4.076   3.835  0.0452 -0.2463  0.2139
  114MOL   C20225288   8.040   4.045   3.707  0.1286  0.1320 -0.3995
  114MOL   C20325289   8.178   4.026   3.686  0.2191  1.0334  0.2221
  114MOL   C20425290   0.015   4.050   3.796  0.1629  0.9727  0.5824
  114MOL   C20525291   8.224   4.088   3.920 -0.6649  0.2241  0.1038
  114MOL   O20625292   0.063   4.106   4.015 -0.3225 -0.3941  0.6778
  114MOL   H20725293   8.057   4.114   4.043  1.1266 -1.6333  0.3893
  114MOL   H20825294   7.892   4.095   3.861  0.6350  0.3553  2.2404
  114MOL   H20925295   8.213   3.999   3.588  0.0949  0.6242  0.2911
  114MOL   H21025296   0.122   4.043   3.780 -0.2255  0.5074 -2.0175
  114MOL   C21125297   0.073   4.417   4.221  0.1359  0.1624  0.2615
  114MOL   C21225298   0.054   4.279   4.187 -0.8005  0.1545  0.2017
  114MOL   C21325299   0.086   4.243   4.052 -0.4752 -0.1036  0.0847
  114MOL   C21425300   0.139   4.336   3.959 -0.0856  0.4477 -0.2416
  114MOL   C21525301   0.166   4.467   4.001 -0.5907  0.5544  0.3274
  114MOL   C21625302   0.126   4.506   4.129 -0.1499 -0.6737 -0.2219
  114MOL   O21725303   0.134   4.632   4.175 -0.6366  0.1742  0.0884
  114MOL   H21825304   0.033   4.454   4.315  0.8950 -0.6442  0.9200
  114MOL   H21925305   0.007   4.206   4.250 -0.1042  0.3944  1.0142
  114MOL   H22025306   0.161   4.298   3.861 -1.9469 -3.0521  0.6270
  114MOL   H22125307   0.198   4.532   3.921 -0.3700 -0.4582 -0.4098
  114MOL   H22225308   0.173   4.692   4.113 -0.6741 -0.7452 -0.8427
  115MOL     C125309   5.661   6.316   0.698 -0.3041 -0.1650  0.4979
  115MOL     C225310   5.643   6.290   0.833 -0.3856  0.1355 -0.6331
  115MOL     C325311   5.749   6.312   0.923 -0.6298  0.1211 -0.1986
  115MOL     C425312   5.873   6.345   0.880 -0.3270  0.1318  0.7145
  115MOL     C525313   5.896   6.367   0.743 -0.9329 -1.2948 -0.0200
  115MOL     C625314   5.787   6.348   0.646  0.5574  0.7350 -0.6751
  115MOL     O725315   5.812   6.343   0.513  0.1143 -0.5965  0.0309
  115MOL     H825316   5.573   6.293   0.639 -0.6705  2.3672  0.0138
  115MOL     H925317   5.542   6.266   0.860 -0.1715 -2.0383 -1.6747
  115MOL    H1025318   5.959   6.350   0.945  0.5302 -1.7627 -0.2299
  115MOL    H1125319   5.996   6.384   0.708 -0.8818  0.6956  1.0079
  115MOL    H1225320   5.749   6.288   1.029  1.9225 -0.7950 -0.3596
  115MOL    C1325321   5.651   6.646   0.353 -0.0222  0.0151 -0.1605
  115MOL    C1425322   5.728   6.571   0.452 -0.3644  0.2177 -0.0171
  115MOL    C1525323   5.751   6.428   0.423  0.1470 -0.2041 -0.1389
  115MOL    C1625324   5.702   6.369   0.309  0.7489  0.4979  0.2610
  115MOL    C1725325   5.622   6.442   0.219  0.4572 -0.0292  0.5835
  115MOL    C1825326   5.592   6.575   0.247 -0.2878 -0.1448 -0.0833
  115MOL    O1925327   5.507   6.639   0.161 -0.8856 -0.5925  0.0600
  115MOL    H2025328   5.626   6.751   0.354 -3.2508 -0.6387 -1.9103
  115MOL    H2125329   5.772   6.610   0.543  0.2878 -1.1371  0.2620
  115MOL    H2225330   5.716   6.263   0.292  0.5974  0.4094  0.6916
  115MOL    H2325331   5.585   6.394   0.129  1.8038  0.2693 -0.1375
  115MOL    C2425332   5.165   6.494   0.210 -1.0296 -0.1469  0.0666
  115MOL    C2525333   5.297   6.534   0.240  0.3417  0.6145 -0.1232
  115MOL    C2625334   5.368   6.609   0.144  0.7509 -0.0040  0.3397
  115MOL    C2725335   5.309   6.635   0.016 -0.3640 -0.1793 -0.1771
  115MOL    C2825336   5.177   6.598   8.240 -0.5071  0.1022 -0.7623
  115MOL    C2925337   5.110   6.518   0.080  0.1090  0.6738  0.3311
  115MOL    O3025338   4.989   6.470   0.045  0.0218 -0.0791 -0.3135
  115MOL    H3125339   5.119   6.425   0.280 -2.8202  0.3339 -0.6124
  115MOL    H3225340   5.346   6.502   0.331  1.2389  0.4886 -0.6443
  115MOL    H3325341   5.365   6.690   8.195  0.0391 -0.1510  0.1423
  115MOL    H3425342   5.124   6.620   8.148  0.5188  0.1335 -1.3530
  115MOL    C3525343   4.933   6.120   0.094 -0.4381 -0.0974 -0.3551
  115MOL    C3625344   4.959   6.253   0.119  0.0315  0.1413 -1.0568
  115MOL    C3725345   4.985   6.336   0.014 -0.1458 -0.6347  0.5732
  115MOL    C3825346   4.994   6.291   8.134  0.0815  0.4918 -0.1672
  115MOL    C3925347   4.988   6.153   8.111  0.7738 -0.2487 -0.3848
  115MOL    C4025348   4.949   6.063   8.219 -0.1481  0.1044  0.0377
  115MOL    O4125349   4.946   5.929   8.202  0.5609 -0.3624  0.2254
  115MOL    H4225350   4.903   6.057   0.177  0.1836 -1.4692 -1.1466
  115MOL    H4325351   4.943   6.285   0.220  1.8650  0.2551 -0.7923
  115MOL    H4425352   5.020   6.365   8.059 -1.3283 -0.0052 -1.1750
  115MOL    H4525353   4.994   6.116   8.009 -1.4589  0.2019 -0.7157
  115MOL    C4625354   5.259   5.738   8.197  0.0684 -0.1540 -0.1911
  115MOL    C4725355   5.144   5.807   8.157 -0.1863  0.3593  0.2131
  115MOL    C4825356   5.048   5.851   8.247  0.4503 -0.9255  0.0985
  115MOL    C4925357   5.070   5.826   0.134 -0.2571  0.3266  0.2446
  115MOL    C5025358   5.176   5.742   0.172  0.2813 -0.4455  0.2832
  115MOL    C5125359   5.268   5.702   0.076  0.4257  0.8785  0.4395
  115MOL    O5225360   5.374   5.618   0.108  0.2100 -0.1639  0.3086
  115MOL    H5325361   5.324   5.704   8.118  0.1084 -0.9594  0.1843
  115MOL    H5425362   5.140   5.834   8.052 -0.7009  2.7629  0.8250
  115MOL    H5525363   5.005   5.864   0.212 -0.1806 -2.9429  1.9698
  115MOL    H5625364   5.188   5.720   0.277  1.9015  1.7281  0.5849
  115MOL    C5725365   5.516   5.709   0.435  0.4480 -1.1118  0.1260
  115MOL    C5825366   5.483   5.715   0.297 -0.3869 -0.4892  0.4540
  115MOL    C5925367   5.424   5.602   0.238 -0.5711 -0.2064 -0.2242
  115MOL    C6025368   5.406   5.479   0.310  0.3337 -0.1693 -0.5203
  115MOL    C6125369   5.443   5.476   0.447 -0.0706 -0.2027 -0.1707
  115MOL    C6225370   5.494   5.591   0.509  0.1374 -0.2100  0.3850
  115MOL    O6325371   5.518   5.581   0.642 -0.9529  0.3043 -0.6168
  115MOL    H6425372   5.542   5.802   0.484  0.3088 -0.3033 -1.3118
  115MOL    H6525373   5.492   5.809   0.243 -1.9894 -2.1586 -2.9166
  115MOL    H6625374   5.380   5.391   0.254  0.6439 -1.3122  1.0917
  115MOL    H6725375   5.430   5.381   0.495  1.3483  0.3325  1.3258
  115MOL    C6825376   5.851   5.614   0.805 -0.0183  0.6609  0.2737
  115MOL    C6925377   5.719   5.635   0.760 -0.2798  1.2194  0.7270
  115MOL    C7025378   5.647   5.544   0.679  0.4046 -0.0054  0.1426
  115MOL    C7125379   5.708   5.423   0.647  0.5184  0.0781 -0.2765
  115MOL    C7225380   5.846   5.408   0.677 -0.2470 -0.0240  0.2631
  115MOL    C7325381   5.920   5.501   0.749 -0.1336 -0.3907 -0.7538
  115MOL    O7425382   6.057   5.486   0.780  0.1439  0.1154 -1.0669
  115MOL    H7525383   5.893   5.694   0.864 -0.1378  1.8309 -1.1918
  115MOL    H7625384   5.658   5.721   0.783 -2.3430  0.7955 -2.9021
  115MOL    H7725385   5.643   5.351   0.599 -0.3072  0.6575 -0.0268
  115MOL    H7825386   5.892   5.313   0.651  1.4920  1.0753 -0.7424
  115MOL    C7925387   6.256   5.374   0.498 -0.3224  0.4097  0.9010
  115MOL    C8025388   6.205   5.377   0.629 -0.3953  0.1150  0.2316
  115MOL    C8125389   6.136   5.492   0.669  0.4772 -0.4915  0.0236
  115MOL    C8225390   6.140   5.607   0.587 -0.1063 -0.8623 -0.4585
  115MOL    C8325391   6.207   5.607   0.464  0.4374  0.0188  0.0388
  115MOL    C8425392   6.263   5.484   0.416  0.2535 -0.0911 -0.9423
  115MOL    O8525393   6.311   5.482   0.288  0.3137 -0.4223 -0.2638
  115MOL    H8625394   6.298   5.279   0.467  0.3011  0.9654  0.0054
  115MOL    H8725395   6.181   5.284   0.679 -2.1110  0.4189  0.0158
  115MOL    H8825396   6.096   5.696   0.630 -0.6618 -1.6082  0.5307
  115MOL    H8925397   6.180   5.689   0.399 -4.4171 -1.2535  0.2560
  115MOL    C9025398   6.188   5.241   0.029  0.4400 -0.1874  0.1884
  115MOL    C9125399   6.253   5.296   0.141  0.0845 -0.0409 -0.2274
  115MOL    C9225400   6.241   5.425   0.186  0.2672  0.2370  0.5642
  115MOL    C9325401   6.134   5.504   0.126 -0.4167  0.7890 -0.1792
  115MOL    C9425402   6.073   5.462   0.005 -0.5838  0.5299  0.2050
  115MOL    C9525403   6.100   5.328   8.214  0.2657  0.2237 -1.3918
  115MOL    O9625404   6.047   5.283   8.098 -0.5195  0.2659  0.2175
  115MOL    H9725405   6.200   5.140   8.245 -0.4474  0.3571 -1.5913
  115MOL    H9825406   6.336   5.243   0.186  0.4575  0.0423 -0.8097
  115MOL    H9925407   6.113   5.598   0.176 -0.8114  0.7721 -0.3131
  115MOL   H10025408   6.003   5.519   8.200 -0.6928  0.1640 -0.0213
  115MOL   C10125409   5.763   5.124   7.933 -0.0807 -0.3716  0.7740
  115MOL   C10225410   5.885   5.183   7.958 -0.0724 -0.5262 -0.9156
  115MOL   C10325411   5.922   5.228   8.087 -0.9555 -0.4071  0.1792
  115MOL   C10425412   5.833   5.209   8.193  0.1831 -0.1574 -0.3699
  115MOL   C10525413   5.707   5.150   8.169  0.0885 -0.2523 -0.1130
  115MOL   C10625414   5.673   5.109   8.036 -0.8343  1.1196  0.0952
  115MOL   O10725415   5.544   5.062   8.006 -0.2420  0.4033 -0.1729
  115MOL   H10825416   5.735   5.085   7.836 -1.3957  0.1960  0.9048
  115MOL   H10925417   5.949   5.193   7.872 -0.7410  2.5603 -1.1247
  115MOL   H11025418   5.859   5.241   0.039  1.5800 -1.6646 -0.2128
  115MOL   H11125419   5.632   5.138   8.245 -1.5683 -0.6383 -1.7619
  115MOL   C11225420   5.331   5.299   7.840  0.5586  0.7000  0.0242
  115MOL   C11325421   5.424   5.250   7.928 -0.3274  0.9159  0.0876
  115MOL   C11425422   5.473   5.118   7.904 -0.1411 -0.0137 -0.4701
  115MOL   C11525423   5.427   5.044   7.795 -0.4143  0.4309  0.3846
  115MOL   C11625424   5.335   5.094   7.702  0.1816  0.3586  0.2100
  115MOL   C11725425   5.277   5.227   7.734  0.0054 -0.5369 -0.5450
  115MOL   O11825426   5.176   5.291   7.661 -0.3084 -0.3003  0.1853
  115MOL   H11925427   5.285   5.395   7.861  0.7599  1.0305 -1.0029
  115MOL   H12025428   5.443   5.315   8.011 -2.2593  2.4851 -0.6667
  115MOL   H12125429   5.455   4.940   7.783  2.0819  0.8974  1.6779
  115MOL   H12225430   5.289   5.025   7.633  0.3653 -0.3160  0.7601
  115MOL   C12325431   5.050   5.074   7.386  0.0124  0.6120 -0.4330
  115MOL   C12425432   5.136   5.155   7.462  0.1340  0.3405 -0.4539
  115MOL   C12525433   5.094   5.210   7.584 -0.0501 -0.9279  0.1059
  115MOL   C12625434   4.960   5.194   7.618  0.4761  1.0299 -0.2024
  115MOL   C12725435   4.868   5.111   7.543 -0.4477  0.2620 -0.1815
  115MOL   C12825436   4.922   5.042   7.429  0.3696  0.3932  0.0829
  115MOL   O12925437   4.838   4.953   7.358  0.3703  0.0230  0.1873
  115MOL   H13025438   5.101   5.028   7.302 -1.1607 -1.6815  0.0592
  115MOL   H13125439   5.232   5.180   7.419  0.7664  0.3937  0.9539
  115MOL   H13225440   4.930   5.243   7.710 -1.3958 -2.1418  0.9592
  115MOL   H13325441   4.770   5.092   7.584 -0.1782  1.5633  1.0827
  115MOL   C13425442   4.942   4.607   7.382  0.4602  0.3563 -0.1167
  115MOL   C13525443   4.951   4.744   7.358 -0.1085 -0.7426 -0.0413
  115MOL   C13625444   4.842   4.820   7.397 -0.1936  0.5588  0.3438
  115MOL   C13725445   4.732   4.768   7.463  0.2885 -0.4182  0.0153
  115MOL   C13825446   4.727   4.629   7.492  0.0762  0.2990 -0.3749
  115MOL   C13925447   4.833   4.547   7.446  0.1328 -0.0701  0.4217
  115MOL   O14025448   4.843   4.411   7.467  0.0100  0.3559 -0.4045
  115MOL   H14125449   5.012   4.537   7.338  0.1206 -0.5415  0.7497
  115MOL   H14225450   5.027   4.788   7.295 -0.3202  0.8679  0.8125
  115MOL   H14325451   4.654   4.836   7.492  1.2458  1.8120 -2.4631
  115MOL   H14425452   4.647   4.588   7.551  2.4061 -1.4213  1.6973
  115MOL   C14525453   4.694   4.250   7.177 -0.1244  0.4497 -0.0944
  115MOL   C14625454   4.702   4.324   7.291 -0.0583 -0.7041 -0.2413
  115MOL   C14725455   4.828   4.337   7.356  0.0693 -0.0197 -0.6115
  115MOL   C14825456   4.938   4.271   7.305  0.3012  0.1998  0.3320
  115MOL   C14925457   4.935   4.194   7.185  0.9329 -0.6744 -0.1179
  115MOL   C15025458   4.810   4.185   7.121  0.4971 -0.4842  0.6282
  115MOL   O15125459   4.804   4.107   7.008  0.3119 -0.3156  0.1195
  115MOL   H15225460   4.610   4.247   7.110 -1.9320 -0.1263  2.1348
  115MOL   H15325461   4.623   4.394   7.315 -0.5278 -0.8198 -1.3917
  115MOL   H15425462   5.030   4.289   7.357  0.3779  0.0667  0.2432
  115MOL   H15525463   5.031   4.156   7.153  0.4712 -2.1263  0.1722
  115MOL   C15625464   4.773   4.373   6.751 -0.7954  0.3904  0.5633
  115MOL   C15725465   4.786   4.311   6.873 -0.6415  0.0975 -0.3072
  115MOL   C15825466   4.782   4.168   6.889 -0.5806 -0.1780 -0.3674
  115MOL   C15925467   4.763   4.090   6.776 -0.5800 -0.7877 -0.4278
  115MOL   C16025468   4.753   4.150   6.650  0.7868 -0.2257 -0.3284
  115MOL   C16125469   4.756   4.291   6.635  0.5018 -0.0322  0.4709
  115MOL   O16225470   4.736   4.353   6.512 -0.2741  0.2787  0.3267
  115MOL   H16325471   4.775   4.480   6.736 -0.2414  0.7215  2.8612
  115MOL   H16425472   4.791   4.378   6.957 -4.3241 -2.1196  1.8267
  115MOL   H16525473   4.758   3.982   6.773  1.3881 -0.9414  1.0626
  115MOL   H16625474   4.733   4.085   6.566  2.0754 -2.1050  0.7935
  115MOL   C16725475   5.054   4.544   6.490 -0.0577 -0.2358 -0.2575
  115MOL   C16825476   4.962   4.436   6.511  0.3405 -0.7958  0.0941
  115MOL   C16925477   4.828   4.451   6.490  0.6301 -0.4962  0.0448
  115MOL   C17025478   4.782   4.583   6.452 -0.1289  0.5794  0.7220
  115MOL   C17125479   4.871   4.685   6.426  0.3210  0.4037  0.0106
  115MOL   C17225480   5.009   4.667   6.437  0.0599  0.1092 -0.1024
  115MOL   O17325481   5.096   4.770   6.415  0.2821 -0.2245 -1.0432
  115MOL   H17425482   5.161   4.535   6.507 -0.0910 -1.0245 -0.4420
  115MOL   H17525483   5.007   4.347   6.551 -0.5521 -1.0492  0.5498
  115MOL   H17625484   4.676   4.604   6.440 -0.2858 -0.4859  0.2133
  115MOL   H17725485   4.846   4.784   6.390  0.1458  0.2156 -0.3890
  115MOL   C17825486   5.003   5.126   6.441  0.1847 -0.5394 -0.3363
  115MOL   C17925487   5.055   4.998   6.392 -0.2560  0.1386  0.3126
  115MOL   C18025488   5.068   4.888   6.476 -0.2166 -1.0040 -0.7670
  115MOL   C18125489   5.039   4.910   6.616 -0.3884 -0.4049  0.2018
  115MOL   C18225490   4.999   5.035   6.668  0.3431  0.0139  0.4029
  115MOL   C18325491   4.983   5.140   6.578  0.4933 -1.0029  0.5912
  115MOL   O18425492   4.945   5.271   6.619  0.0056  0.0824 -0.0109
  115MOL   H18525493   4.997   5.214   6.379  0.2724 -1.3201 -1.4916
  115MOL   H18625494   5.085   4.983   6.290 -2.0037 -1.1756 -0.0339
  115MOL   H18725495   5.054   4.833   6.690 -2.1432 -1.5786 -0.6162
  115MOL   H18825496   4.983   5.044   6.774  1.1507  0.5641  0.4766
  115MOL   C18925497   5.228   5.461   6.736  0.7098  0.0122  0.0773
  115MOL   C19025498   5.139   5.398   6.651  0.1016 -0.1124  0.0547
  115MOL   C19125499   5.032   5.329   6.703 -0.4412  0.1082 -1.1396
  115MOL   C19225500   5.014   5.315   6.848  0.4470 -0.0924 -0.0483
  115MOL   C19325501   5.105   5.381   6.928  0.0339 -0.4159 -0.8157
  115MOL   C19425502   5.215   5.452   6.874 -0.1981  0.2201 -0.0965
  115MOL   O19525503   5.307   5.511   6.961  0.0204 -0.2859  0.2609
  115MOL   H19625504   5.316   5.513   6.700 -0.3874  2.4404  0.8702
  115MOL   H19725505   5.163   5.404   6.546  0.8219  0.6703  0.2614
  115MOL   H19825506   4.925   5.263   6.881  1.4616 -1.5568  0.4362
  115MOL   H19925507   5.094   5.368   7.035  0.4503  1.9863 -0.4511
  115MOL   C20025508   5.590   5.688   6.810 -0.4447  0.8083 -0.2167
  115MOL   C20125509   5.507   5.585   6.858 -0.0304 -0.0895  0.8544
  115MOL   C20225510   5.381   5.618   6.909 -0.5883  0.2522  0.1158
  115MOL   C20325511   5.336   5.751   6.915  0.7306  0.5732 -0.7612
  115MOL   C20425512   5.423   5.850   6.873 -0.3657 -0.1474  0.5284
  115MOL   C20525513   5.554   5.823   6.827 -0.3982 -0.4472  0.4739
  115MOL   O20625514   5.632   5.925   6.780  0.3226 -0.2171  0.4950
  115MOL   H20725515   5.680   5.664   6.756  1.2532 -0.1814  2.9173
  115MOL   H20825516   5.536   5.481   6.857 -1.3562 -0.4630 -0.2623
  115MOL   H20925517   5.242   5.766   6.966  0.9455 -0.6319  0.0172
  115MOL   H21025518   5.392   5.954   6.877 -0.9398 -0.2173 -1.4384
  115MOL   C21125519   5.874   6.032   7.036 -0.6577 -0.3761  0.4278
  115MOL   C21225520   5.804   5.943   6.949  0.8479 -0.2088  0.6609
  115MOL   C21325521   5.704   6.006   6.868  0.4695 -0.1040  0.1556
  115MOL   C21425522   5.679   6.149   6.871  0.5923 -0.3685  0.3745
  115MOL   C21525523   5.755   6.228   6.958  0.3715 -0.1061  0.1024
  115MOL   C21625524   5.852   6.169   7.048  0.2052 -0.1240  0.4638
  115MOL   O21725525   5.926   6.240   7.140  0.4275  0.0983 -0.2420
  115MOL   H21825526   5.956   5.990   7.093 -0.9337 -2.3278 -0.5599
  115MOL   H21925527   5.826   5.838   6.937 -0.1760 -0.4320  0.7282
  115MOL   H22025528   5.605   6.201   6.812 -0.6842 -1.7141  0.7432
  115MOL   H22125529   5.730   6.333   6.953 -2.2176 -0.6967  0.0223
  115MOL   H22225530   5.926   6.332   7.120 -0.7936  0.2852  0.5769
  116MOL     C125531   7.945   7.058   7.508  0.4908 -0.4183  0.1100
  116MOL     C225532   8.063   6.985   7.525  0.5672  0.8047  0.0498
  116MOL     C325533   8.057   6.846   7.499  0.1251 -0.6980 -0.0800
  116MOL     C425534   7.935   6.785   7.451  0.5851  0.3709 -0.1435
  116MOL     C525535   7.821   6.863   7.424 -0.4096 -0.1790  0.0205
  116MOL     C625536   7.831   6.999   7.453  0.3420 -0.4436 -0.3569
  116MOL     O725537   7.715   7.072   7.455 -0.2918  0.5378 -0.1058
  116MOL     H825538   7.940   7.161   7.538  2.2371  0.5589 -2.7768
  116MOL     H925539   8.142   7.022   7.589  0.9758 -0.5428  0.3531
  116MOL    H1025540   7.944   6.679   7.430  0.6600 -0.3866  3.3312
  116MOL    H1125541   7.729   6.824   7.382 -0.5233  0.2624 -0.1526
  116MOL    H1225542   8.134   6.773   7.519 -0.9000 -2.0954 -1.1379
  116MOL    C1325543   7.657   7.370   7.253  0.1166 -0.5861 -0.7116
  116MOL    C1425544   7.699   7.285   7.355 -0.1004 -0.2939 -0.0898
  116MOL    C1525545   7.676   7.149   7.348  0.1264 -0.2713  0.6815
  116MOL    C1625546   7.630   7.091   7.230 -0.2140  0.0914  0.8187
  116MOL    C1725547   7.593   7.172   7.120 -0.0377  0.1551 -0.1265
  116MOL    C1825548   7.604   7.314   7.129 -0.2128 -0.2938  0.3017
  116MOL    O1925549   7.562   7.394   7.031 -0.3185 -0.3135 -0.1016
  116MOL    H2025550   7.646   7.475   7.275  0.3699 -0.6584 -0.2306
  116MOL    H2125551   7.745   7.318   7.447 -0.5449 -1.0494  0.4137
  116MOL    H2225552   7.619   6.984   7.218 -0.8331  0.4047 -1.5062
  116MOL    H2325553   7.538   7.132   7.036  0.7224 -0.3807 -0.3694
  116MOL    C2425554   7.252   7.576   7.105  0.4560 -0.0610  0.5715
  116MOL    C2525555   7.358   7.480   7.126 -0.1200 -0.0041  0.3030
  116MOL    C2625556   7.477   7.497   7.058  0.1232  0.0297  0.0831
  116MOL    C2725557   7.501   7.618   6.984  0.2494 -0.0394 -0.4129
  116MOL    C2825558   7.403   7.718   6.978 -0.2845  0.5975 -0.2454
  116MOL    C2925559   7.274   7.692   7.035  0.0162 -0.5982  0.6076
  116MOL    O3025560   7.182   7.792   7.015 -0.1447  0.0344  0.4071
  116MOL    H3125561   7.154   7.563   7.149  0.0328  0.2146 -0.2704
  116MOL    H3225562   7.350   7.392   7.189  0.2163  0.7735  1.4508
  116MOL    H3325563   7.594   7.634   6.932  0.1474 -0.8079 -0.8388
  116MOL    H3425564   7.425   7.811   6.927 -0.0547  1.6123  1.6648
  116MOL    C3525565   6.872   7.709   6.835  0.1868  0.1931 -1.0213
  116MOL    C3625566   6.963   7.723   6.939 -0.0841 -0.0494  0.7667
  116MOL    C3725567   7.095   7.768   6.912  0.6105  0.8953 -0.3880
  116MOL    C3825568   7.144   7.766   6.777  0.4080 -0.5341 -0.5721
  116MOL    C3925569   7.049   7.743   6.668  0.1599  0.1910  0.6409
  116MOL    C4025570   6.914   7.716   6.699  0.4710 -0.6931 -0.3682
  116MOL    O4125571   6.826   7.682   6.596  0.1463  0.5865  0.2266
  116MOL    H4225572   6.772   7.672   6.853  0.9244 -0.5816  1.6587
  116MOL    H4325573   6.932   7.722   7.042  2.3052 -2.3307  1.4971
  116MOL    H4425574   7.247   7.796   6.768 -0.2949  1.2200 -3.2025
  116MOL    H4525575   7.073   7.734   6.563 -0.0502 -0.5789  0.6514
  116MOL    C4625576   6.905   7.440   6.334 -0.0319  0.5637 -0.9576
  116MOL    C4725577   6.872   7.564   6.396  0.2400  1.0950 -0.0639
  116MOL    C4825578   6.850   7.564   6.535 -1.2252 -0.4284  0.7087
  116MOL    C4925579   6.875   7.446   6.608 -0.0639 -0.1038  0.8318
  116MOL    C5025580   6.921   7.326   6.552 -0.2382 -0.2583 -0.3640
  116MOL    C5125581   6.935   7.324   6.408  0.1047  0.4335  0.4169
  116MOL    O5225582   6.983   7.210   6.342  0.0868  0.3413 -0.2480
  116MOL    H5325583   6.913   7.424   6.227 -1.0227 -0.6287 -0.8724
  116MOL    H5425584   6.842   7.644   6.330 -3.0023 -0.1166 -0.1522
  116MOL    H5525585   6.861   7.440   6.715 -1.1465 -1.4667  0.6174
  116MOL    H5625586   6.929   7.230   6.601 -1.3504 -0.4934 -0.6234
  116MOL    C5725587   6.755   6.918   6.338  0.0215 -0.6633 -0.1132
  116MOL    C5825588   6.844   7.016   6.384  0.6612 -0.1156  0.0122
  116MOL    C5925589   6.889   7.118   6.297  0.4597 -0.4068 -1.0920
  116MOL    C6025590   6.844   7.114   6.162  0.2979  0.4052  0.4348
  116MOL    C6125591   6.763   7.007   6.116  0.0913  0.5173 -0.3120
  116MOL    C6225592   6.708   6.908   6.204  0.2937 -0.6931 -0.1182
  116MOL    O6325593   6.627   6.810   6.152 -0.0289  0.9503  0.2624
  116MOL    H6425594   6.728   6.840   6.408 -0.4051 -0.0445  0.4176
  116MOL    H6525595   6.881   7.001   6.484  1.0237 -1.1454 -0.2640
  116MOL    H6625596   6.882   7.190   6.096  2.0693  0.7064  1.7529
  116MOL    H6725597   6.732   7.008   6.012  0.2061 -2.9426 -0.4347
  116MOL    C6825598   6.286   6.878   6.263 -0.0478  0.0632 -0.2154
  116MOL    C6925599   6.401   6.890   6.190  0.4176 -0.9540 -0.7182
  116MOL    C7025600   6.505   6.795   6.207  0.3086  0.1789  0.0184
  116MOL    C7125601   6.485   6.683   6.294 -0.0750 -0.3762  0.2121
  116MOL    C7225602   6.366   6.675   6.367  0.7965 -0.3205 -0.5997
  116MOL    C7325603   6.267   6.774   6.358  0.0465 -0.6056 -0.2080
  116MOL    O7425604   6.148   6.763   6.427  0.5328 -0.3101  0.4490
  116MOL    H7525605   6.210   6.955   6.253 -0.3830  0.0407  1.9101
  116MOL    H7625606   6.423   6.977   6.130  2.2288 -1.1905 -0.4046
  116MOL    H7725607   6.555   6.602   6.304 -0.4345 -1.1349 -2.8801
  116MOL    H7825608   6.352   6.588   6.429 -0.6371  0.1417 -0.2727
  116MOL    C7925609   6.150   6.990   6.718 -0.0790  0.2571  0.1674
  116MOL    C8025610   6.186   6.885   6.637  0.8112  0.5806  1.4144
  116MOL    C8125611   6.107   6.857   6.519  0.2562 -0.7192 -0.1944
  116MOL    C8225612   5.997   6.941   6.489  0.2731  0.2529 -0.4009
  116MOL    C8325613   5.960   7.041   6.583 -0.3373  0.2381 -0.3254
  116MOL    C8425614   6.043   7.077   6.690  0.3200 -0.0742 -0.5663
  116MOL    O8525615   6.020   7.187   6.765 -0.6877  0.2509  0.0598
  116MOL    H8625616   6.216   7.008   6.801  0.7152  0.9980 -0.6182
  116MOL    H8725617   6.283   6.840   6.647  1.0888  1.0235  0.7391
  116MOL    H8825618   5.924   6.915   6.413  1.7219 -1.2731 -1.3031
  116MOL    H8925619   5.869   7.093   6.559 -1.8496 -3.6173 -3.6184
  116MOL    C9025620   6.075   7.517   6.608  0.2634 -0.1472  0.7193
  116MOL    C9125621   6.014   7.398   6.650 -0.7480 -0.4888  0.1779
  116MOL    C9225622   6.082   7.308   6.735  0.1505  0.1162 -0.7292
  116MOL    C9325623   6.210   7.339   6.784 -0.1578  0.3044 -0.3291
  116MOL    C9425624   6.266   7.460   6.749 -0.4321 -0.3724  0.6903
  116MOL    C9525625   6.208   7.550   6.647 -0.9645  0.4303  0.5148
  116MOL    O9625626   6.271   7.668   6.609  0.2105 -0.5748 -0.6193
  116MOL    H9725627   6.020   7.584   6.543  0.2040 -2.0965 -1.2829
  116MOL    H9825628   5.918   7.367   6.610 -0.8950 -0.5558  0.5876
  116MOL    H9925629   6.264   7.276   6.853 -1.0305  0.5658  0.5977
  116MOL   H10025630   6.364   7.483   6.789  0.0317 -0.5226 -0.3207
  116MOL   C10125631   6.367   7.882   6.893  0.0329 -0.6935  0.1219
  116MOL   C10225632   6.283   7.814   6.802  0.0787  0.5608 -0.3703
  116MOL   C10325633   6.343   7.743   6.696 -0.3891  0.1732  0.4267
  116MOL   C10425634   6.484   7.744   6.680 -0.1102  0.1219 -0.1761
  116MOL   C10525635   6.567   7.831   6.766  0.3842  0.5446 -0.3471
  116MOL   C10625636   6.506   7.891   6.875  0.7664  0.3927  0.4995
  116MOL   O10725637   6.582   7.957   6.970  0.3113  0.2842  0.4032
  116MOL   H10825638   6.314   7.925   6.977 -1.5369  0.0945 -1.2531
  116MOL   H10925639   6.177   7.796   6.807  0.2996 -0.4955  0.6944
  116MOL   H11025640   6.529   7.693   6.596  1.2550 -1.4325  1.4487
  116MOL   H11125641   6.669   7.841   6.732  1.1063  1.8052  2.1039
  116MOL   C11225642   6.658   0.033   6.833  0.0301  0.1574  0.7628
  116MOL   C11325643   6.586   8.182   6.888 -0.1045 -0.0375 -0.5813
  116MOL   C11425644   6.649   8.066   6.923 -0.2028 -0.6734  0.7913
  116MOL   C11525645   6.786   8.056   6.905 -0.7081 -0.2805 -0.3161
  116MOL   C11625646   6.859   8.157   6.837 -0.5556  0.0232 -0.1232
  116MOL   C11725647   6.793   0.020   6.808 -0.7238  0.7553 -0.1565
  116MOL   O11825648   6.870   0.114   6.752  0.4645  0.2208  0.5805
  116MOL   H11925649   6.608   0.128   6.822 -1.2355 -0.6148 -0.3300
  116MOL   H12025650   6.479   8.195   6.900 -0.0480  0.4314 -0.5687
  116MOL   H12125651   6.834   7.975   6.958 -2.2679 -1.2464 -0.3553
  116MOL   H12225652   6.964   8.139   6.826 -0.1847  0.4708  2.5019
  116MOL   C12325653   6.953   0.460   6.838 -0.3047 -0.7579  0.1882
  116MOL   C12425654   6.908   0.349   6.762 -0.0083 -0.5751  0.7835
  116MOL   C12525655   6.898   0.221   6.824 -0.2621 -0.5837  1.1989
  116MOL   C12625656   6.910   0.212   6.968 -1.1296 -0.3561  0.9096
  116MOL   C12725657   6.942   0.326   7.042  0.3291 -0.3942  0.0380
  116MOL   C12825658   6.970   0.448   6.979 -0.5801  0.2938 -1.1858
  116MOL   O12925659   7.012   0.556   7.042 -0.2088 -0.1596 -0.6424
  116MOL   H13025660   6.977   0.551   6.785  0.4516 -0.3777  1.1842
  116MOL   H13125661   6.878   0.354   6.658 -1.0529 -0.3785  1.0825
  116MOL   H13225662   6.911   0.117   7.019  2.2544  1.6471  4.8648
  116MOL   H13325663   6.968   0.315   7.147  1.3314 -0.1828 -0.1868
  116MOL   C13425664   7.353   0.517   7.163  0.3364  0.0929  0.2381
  116MOL   C13525665   7.216   0.496   7.142  0.1007  1.3699 -0.2322
  116MOL   C13625666   7.146   0.574   7.058  0.4291  0.3297 -0.1747
  116MOL   C13725667   7.211   0.669   6.977  0.1394  0.0956  0.3847
  116MOL   C13825668   7.351   0.683   6.987  0.1702  0.1906  0.3235
  116MOL   C13925669   7.420   0.610   7.083  0.9762 -0.1021 -0.1867
  116MOL   O14025670   7.556   0.626   7.097  0.2289 -0.0881 -1.0534
  116MOL   H14125671   7.414   0.452   7.224 -0.6324 -1.4140 -0.3622
  116MOL   H14225672   7.173   0.411   7.192  0.4078  0.0594 -2.1736
  116MOL   H14325673   7.140   0.712   6.908 -0.5430  1.3913  1.8807
  116MOL   H14425674   7.406   0.742   6.915 -1.1436  1.9525  0.7329
  116MOL   C14525675   7.634   0.977   7.191  0.3055 -0.1836  0.2100
  116MOL   C14625676   7.576   0.849   7.190  0.0767  0.3826 -0.8600
  116MOL   C14725677   7.619   0.751   7.094  0.2700  0.3032  0.1007
  116MOL   C14825678   7.697   0.788   6.981  0.2121 -0.1515 -0.2113
  116MOL   C14925679   7.750   0.920   6.979  0.4897  0.2598 -0.1423
  116MOL   C15025680   7.718   1.012   7.081 -0.0165  0.7733 -0.0547
  116MOL   O15125681   7.781   1.131   7.064 -0.0585  0.3658 -0.5512
  116MOL   H15225682   7.620   1.045   7.274  0.8836 -1.3720  1.2938
  116MOL   H15325683   7.508   0.815   7.267  1.1466  2.3503  1.0207
  116MOL   H15425684   7.718   0.723   6.897 -2.0132  0.2998 -1.1540
  116MOL   H15525685   7.810   0.950   6.894  2.7601 -0.9769  1.0090
  116MOL   C15625686   7.634   1.452   7.133  0.5120  0.1390 -0.3633
  116MOL   C15725687   7.695   1.330   7.153 -0.4539  0.0172  0.5930
  116MOL   C15825688   7.707   1.237   7.045  0.4281  0.1994  0.5077
  116MOL   C15925689   7.667   1.277   6.914 -0.1992  0.7315  0.5457
  116MOL   C16025690   7.609   1.404   6.899  0.5976 -0.3927  0.1712
  116MOL   C16125691   7.591   1.490   7.004  0.6199  0.5002 -0.3874
  116MOL   O16225692   7.530   1.613   6.988 -0.1567 -0.4153 -0.1591
  116MOL   H16325693   7.618   1.526   7.210 -0.0854  1.2791 -1.5732
  116MOL   H16425694   7.748   1.317   7.246 -2.1557 -3.2022  1.1746
  116MOL   H16525695   7.688   1.217   6.827  2.5306 -1.6454  2.7302
  116MOL   H16625696   7.572   1.430   6.801 -1.3800 -1.6200  0.5699
  116MOL   C16725697   7.784   1.863   6.867 -0.6059  0.1077  0.2795
  116MOL   C16825698   7.712   1.775   6.955 -0.2083 -0.0367 -0.1570
  116MOL   C16925699   7.589   1.713   6.910 -1.0886  0.5507  0.0069
  116MOL   C17025700   7.545   1.739   6.780 -0.0772  0.3175 -1.0003
  116MOL   C17125701   7.629   1.819   6.699  0.4574 -0.3704  0.1414
  116MOL   C17225702   7.748   1.876   6.734 -0.1121 -0.6217 -0.2075
  116MOL   O17325703   7.814   1.951   6.647 -0.1745 -1.0940  0.1950
  116MOL   H17425704   7.887   1.885   6.892 -0.8310  0.8564  0.5441
  116MOL   H17525705   7.751   1.747   7.051  0.5943 -0.4907 -0.6132
  116MOL   H17625706   7.446   1.704   6.756 -0.2226 -1.9868  2.6632
  116MOL   H17725707   7.599   1.846   6.598  2.6452  0.4924 -0.3139
  116MOL   C17825708   8.163   1.858   6.597  0.2887  0.0223 -0.3894
  116MOL   C17925709   8.025   1.844   6.613 -0.2460 -0.6793 -0.6917
  116MOL   C18025710   7.947   1.954   6.651 -0.2286 -0.5520  0.8764
  116MOL   C18125711   8.008   2.071   6.696 -0.1286 -0.4396  0.3904
  116MOL   C18225712   8.151   2.083   6.686  0.4995  0.2172  0.0731
  116MOL   C18325713   8.224   1.971   6.644 -0.1397 -0.4689 -0.1506
  116MOL   O18425714   0.110   1.962   6.658 -0.2773 -0.2183 -0.8649
  116MOL   H18525715   8.222   1.771   6.573 -1.6221 -1.6851  0.9437
  116MOL   H18625716   7.967   1.758   6.584 -0.2137 -0.4481 -1.4494
  116MOL   H18725717   7.951   2.151   6.739  0.3474  0.9083 -1.4451
  116MOL   H18825718   8.203   2.173   6.715  3.7199 -1.7589  0.7294
  116MOL   C18925719   0.359   1.924   6.402  0.1748  0.0242  0.9955
  116MOL   C19025720   0.272   1.892   6.509 -0.6489  0.4087  0.1057
  116MOL   C19125721   0.182   1.993   6.543 -0.1149  0.2675 -0.8054
  116MOL   C19225722   0.166   2.114   6.480  0.1826  0.6612  1.2211
  116MOL   C19325723   0.256   2.148   6.383 -0.4085 -0.2660 -0.2186
  116MOL   C19425724   0.355   2.051   6.345 -0.1403  0.4132  0.1041
  116MOL   O19525725   0.451   2.087   6.257 -0.1581  0.5231 -0.0705
  116MOL   H19625726   0.432   1.849   6.375  0.7329  0.6872  0.6470
  116MOL   H19725727   0.289   1.803   6.568 -1.2363  0.6258  0.6048
  116MOL   H19825728   0.085   2.183   6.499  1.3737  1.8279  2.0537
  116MOL   H19925729   0.258   2.245   6.336 -3.5840 -1.9415 -4.1233
  116MOL   C20025730   0.717   2.264   6.457  0.0599  1.3725 -0.2053
  116MOL   C20125731   0.597   2.195   6.418 -0.5184  0.6024 -0.6159
  116MOL   C20225732   0.559   2.168   6.284  0.0224  0.1658 -0.0947
  116MOL   C20325733   0.643   2.227   6.187 -0.2005  0.1403 -0.4046
  116MOL   C20425734   0.753   2.303   6.221 -0.5062 -0.5325 -0.6015
  116MOL   C20525735   0.793   2.324   6.355  0.5304 -0.6386  0.0478
  116MOL   O20625736   0.897   2.400   6.386 -0.6999  0.4302 -0.4181
  116MOL   H20725737   0.743   2.285   6.560 -1.0391  1.0379  0.1514
  116MOL   H20825738   0.532   2.159   6.496  0.0287  1.0596  0.0623
  116MOL   H20925739   0.619   2.215   6.082 -0.9787  4.5418 -0.8089
  116MOL   H21025740   0.811   2.352   6.144 -0.9239 -0.4535 -0.8657
  116MOL   C21125741   0.928   2.715   6.204  0.2176  0.1681  0.6592
  116MOL   C21225742   0.944   2.579   6.239  0.4773 -0.0456  0.1805
  116MOL   C21325743   0.889   2.530   6.357  0.0281 -0.5725  0.3383
  116MOL   C21425744   0.822   2.618   6.448  0.7642  0.6867 -0.1217
  116MOL   C21525745   0.800   2.750   6.409 -0.5135 -1.0177 -0.4106
  116MOL   C21625746   0.853   2.798   6.291  0.1335  0.2584 -0.3726
  116MOL   O21725747   0.826   2.925   6.251 -0.5626 -0.2460  0.7462
  116MOL   H21825748   0.984   2.757   6.122 -0.4616 -2.2500 -1.1133
  116MOL   H21925749   0.996   2.513   6.172 -0.5321 -0.7404  0.0681
  116MOL   H22025750   0.782   2.572   6.538  2.5996 -0.1107  0.3008
  116MOL   H22125751   0.737   2.812   6.470 -0.1884 -0.5540 -0.5471
  116MOL   H22225752   0.737   2.947   6.272 -0.9965  0.3537 -1.5187
  117MOL     C125753   5.636   6.110   7.506 -0.1228  0.1687 -0.3789
  117MOL     C225754   5.684   6.006   7.588 -0.0127  0.0707 -0.0187
  117MOL     C325755   5.692   6.016   7.724  0.0258 -0.3954 -0.1820
  117MOL     C425756   5.652   6.141   7.785 -0.2517  0.2285 -0.2318
  117MOL     C525757   5.601   6.244   7.711 -0.2630  0.0375  0.2906
  117MOL     C625758   5.599   6.230   7.572 -0.3724  0.4935  0.2332
  117MOL     O725759   5.542   6.333   7.497  0.2804  0.3160  0.0654
  117MOL     H825760   5.651   6.116   7.400 -1.0821 -0.6599 -0.5677
  117MOL     H925761   5.709   5.908   7.550  0.8120  0.2088  0.1471
  117MOL    H1025762   5.670   6.155   7.890 -0.8524 -4.4876  0.6170
  117MOL    H1125763   5.580   6.339   7.758  2.0855 -0.3353  2.1847
  117MOL    H1225764   5.725   5.935   7.787 -0.5253 -1.4168 -1.2049
  117MOL    C1325765   5.841   6.529   7.380  0.5965 -0.1954 -0.0151
  117MOL    C1425766   5.763   6.438   7.454  0.5606  0.0528 -0.0362
  117MOL    C1525767   5.633   6.391   7.404 -0.4284  0.1489 -0.2773
  117MOL    C1625768   5.590   6.423   7.270 -0.5119 -0.2088 -0.1676
  117MOL    C1725769   5.673   6.512   7.196 -0.1346 -0.1484 -0.1747
  117MOL    C1825770   5.794   6.572   7.253 -0.1473  0.5783 -0.1521
  117MOL    O1925771   5.868   6.668   7.194  0.0455 -0.0862 -0.0474
  117MOL    H2025772   5.932   6.579   7.410 -0.8539  2.1555  0.5952
  117MOL    H2125773   5.787   6.408   7.555  0.5773 -1.8936 -0.5893
  117MOL    H2225774   5.503   6.374   7.227  1.6100 -1.8606 -2.7166
  117MOL    H2325775   5.641   6.549   7.100  4.7117  1.0920 -1.4273
  117MOL    C2425776   6.035   6.511   6.901 -0.6702  0.7075  0.7568
  117MOL    C2525777   5.980   6.530   7.028 -0.6155  0.2494  0.4290
  117MOL    C2625778   5.902   6.641   7.060 -0.4866 -0.2045 -1.1633
  117MOL    C2725779   5.867   6.732   6.958 -0.2541 -0.9180 -0.3021
  117MOL    C2825780   5.899   6.703   6.825  0.0015 -0.8797 -0.0237
  117MOL    C2925781   5.986   6.592   6.798 -0.2025 -0.4576  0.2702
  117MOL    O3025782   6.030   6.564   6.666  0.4879  0.0958 -0.0500
  117MOL    H3125783   6.112   6.437   6.886 -2.7767 -1.6587  1.3301
  117MOL    H3225784   6.023   6.465   7.102 -2.7000 -0.3528  1.1498
  117MOL    H3325785   5.804   6.815   6.989 -0.0693 -0.1075 -2.0410
  117MOL    H3425786   5.868   6.758   6.737  0.0491 -0.1348  0.4164
  117MOL    C3525787   5.938   6.348   6.383 -0.0748  0.0895 -0.4299
  117MOL    C3625788   5.980   6.460   6.456  0.3774 -0.0138  0.9970
  117MOL    C3725789   5.973   6.457   6.598  0.2959  0.1586  0.4654
  117MOL    C3825790   5.900   6.358   6.664  0.2803  0.5230  0.4201
  117MOL    C3925791   5.850   6.246   6.594 -0.4117  0.9512  0.0583
  117MOL    C4025792   5.877   6.241   6.456 -0.2998 -0.6984 -0.2601
  117MOL    O4125793   5.839   6.122   6.391 -0.4074  0.1765  0.0869
  117MOL    H4225794   5.944   6.347   6.275  0.0421  3.0076 -0.5120
  117MOL    H4325795   6.022   6.544   6.404  0.3679 -1.7212 -1.8701
  117MOL    H4425796   5.882   6.357   6.770  1.1925 -0.0111  0.5844
  117MOL    H4525797   5.789   6.165   6.630  0.3146 -0.4852 -1.8415
  117MOL    C4625798   5.635   6.245   6.102  0.4887  0.3732  0.2446
  117MOL    C4725799   5.679   6.226   6.234 -0.5517 -0.1474  0.0090
  117MOL    C4825800   5.772   6.129   6.269  1.0507  0.2549  0.3483
  117MOL    C4925801   5.822   6.047   6.169  0.6140 -0.3281 -0.0917
  117MOL    C5025802   5.785   6.068   6.033 -0.4133  0.4338  0.1468
  117MOL    C5125803   5.684   6.164   6.000  0.0330 -0.6267 -0.1668
  117MOL    O5225804   5.650   6.189   5.869  0.1036 -0.4469 -0.1638
  117MOL    H5325805   5.555   6.316   6.085  2.0135  2.2109  0.5153
  117MOL    H5425806   5.650   6.282   6.321 -0.6350 -1.9056  1.1288
  117MOL    H5525807   5.896   5.973   6.194  0.6694 -0.7246 -1.3840
  117MOL    H5625808   5.809   5.999   5.954  0.7644  0.3260  0.5855
  117MOL    C5725809   5.787   6.190   5.535 -0.2212  0.7343  0.0986
  117MOL    C5825810   5.705   6.173   5.646  0.9259 -0.8314  0.2022
  117MOL    C5925811   5.737   6.223   5.771  0.1198 -0.4444  0.5662
  117MOL    C6025812   5.856   6.291   5.795 -0.2659  0.2253  0.4653
  117MOL    C6125813   5.939   6.317   5.683  0.5365 -0.5657  0.0625
  117MOL    C6225814   5.907   6.262   5.558  0.5533  0.7666  0.2288
  117MOL    O6325815   5.997   6.282   5.450 -0.0220  0.0735  0.4843
  117MOL    H6425816   5.758   6.150   5.438  2.0951 -1.6474  0.3450
  117MOL    H6525817   5.611   6.121   5.632  1.0805 -0.9655 -0.3836
  117MOL    H6625818   5.890   6.318   5.894  3.7962 -0.0456 -0.7906
  117MOL    H6725819   6.041   6.353   5.697  0.8982 -1.6912  0.3727
  117MOL    C6825820   6.065   5.978   5.245  0.3254  0.2236 -0.4605
  117MOL    C6925821   5.995   6.076   5.323 -0.1919 -0.9319 -0.0476
  117MOL    C7025822   6.062   6.182   5.385  0.0100  0.5425 -0.5253
  117MOL    C7125823   6.203   6.186   5.378  0.1357  0.7529 -1.0330
  117MOL    C7225824   6.276   6.093   5.303 -0.2036 -0.4275 -0.8376
  117MOL    C7325825   6.206   5.991   5.235  0.6520  0.3339 -0.4440
  117MOL    O7425826   6.285   5.896   5.172 -0.0600  0.2060  0.1328
  117MOL    H7525827   6.011   5.896   5.200 -1.4347  0.8449  0.4419
  117MOL    H7625828   5.888   6.061   5.334 -0.2021  0.9609  3.0152
  117MOL    H7725829   6.262   6.270   5.413  0.5131  0.4906 -1.0341
  117MOL    H7825830   6.382   6.102   5.283 -0.7970 -0.1945 -4.2302
  117MOL    C7925831   6.139   5.786   4.845 -0.2958  0.2123 -0.7693
  117MOL    C8025832   6.190   5.870   4.946  0.3299 -0.8125 -0.3272
  117MOL    C8125833   6.220   5.823   5.075 -0.3841  0.5892  0.1347
  117MOL    C8225834   6.184   5.685   5.104 -0.1260  0.0249  0.7531
  117MOL    C8325835   6.113   5.607   5.009 -0.1090  0.4900  1.2304
  117MOL    C8425836   6.089   5.657   4.877  0.5275 -0.1007 -0.0735
  117MOL    O8525837   6.012   5.587   4.788  0.2349 -0.1266 -0.3678
  117MOL    H8625838   6.117   5.831   4.750  2.8811  1.1357 -1.1488
  117MOL    H8725839   6.213   5.975   4.936 -0.5190 -0.6646 -0.7778
  117MOL    H8825840   6.189   5.647   5.205 -3.4225 -0.6219  0.7339
  117MOL    H8925841   6.086   5.507   5.043  1.5576 -0.0770  0.9280
  117MOL    C9025842   6.219   5.336   4.608 -0.4042  0.2438  0.2818
  117MOL    C9125843   6.152   5.398   4.718 -0.3673  0.6979 -0.7262
  117MOL    C9225844   6.081   5.521   4.691 -0.0918 -0.3770  0.4823
  117MOL    C9325845   6.101   5.585   4.564  0.4569 -0.2644  0.2674
  117MOL    C9425846   6.186   5.522   4.470  0.7050  0.0090 -0.4959
  117MOL    C9525847   6.243   5.400   4.488 -0.8658 -0.6959  0.3332
  117MOL    O9625848   6.325   5.338   4.396 -0.0250  0.2497 -0.3091
  117MOL    H9725849   6.257   5.237   4.630  1.0305  1.4394  3.5964
  117MOL    H9825850   6.144   5.350   4.814  2.2687  0.8228 -0.3924
  117MOL    H9925851   6.054   5.680   4.545 -1.7648 -1.2726  0.5653
  117MOL   H10025852   6.208   5.570   4.376  0.4652  0.1213 -0.4949
  117MOL   C10125853   6.617   5.518   4.246  0.8065 -0.0492 -0.1373
  117MOL   C10225854   6.478   5.475   4.265 -0.2306 -0.0488  0.7104
  117MOL   C10325855   6.455   5.380   4.367  0.2448 -0.3972 -0.3166
  117MOL   C10425856   6.560   5.319   4.435  0.0036  0.1805  0.3160
  117MOL   C10525857   6.690   5.366   4.421  0.1298 -0.6160 -0.7276
  117MOL   C10625858   6.717   5.459   4.323  0.1345 -0.1054 -0.5972
  117MOL   O10725859   6.853   5.488   4.307 -0.1938 -0.0302  0.1643
  117MOL   H10825860   6.640   5.594   4.172  1.7979 -1.5076 -1.3597
  117MOL   H10925861   6.398   5.511   4.201 -0.4869 -1.9780 -0.0968
  117MOL   H11025862   6.540   5.242   4.508 -2.7991  0.7694  0.2372
  117MOL   H11125863   6.770   5.322   4.479  0.1709 -0.5589 -0.7410
  117MOL   C11225864   6.895   5.827   4.152 -0.5437  0.3816  0.3471
  117MOL   C11325865   6.854   5.723   4.237  0.1675 -0.0162 -0.2827
  117MOL   C11425866   6.894   5.592   4.221 -0.0963  0.0579  0.7279
  117MOL   C11525867   6.997   5.570   4.128 -0.5222 -0.3579  0.6955
  117MOL   C11625868   7.043   5.669   4.035  0.0716 -0.3850 -0.8923
  117MOL   C11725869   6.987   5.798   4.047  0.0476  0.2819 -0.1282
  117MOL   O11825870   7.020   5.900   3.955  0.0848 -0.2471 -0.4707
  117MOL   H11925871   6.866   5.930   4.165  0.9932  0.9420 -0.4879
  117MOL   H12025872   6.778   5.749   4.309 -1.9902  1.1697 -2.9238
  117MOL   H12125873   7.034   5.469   4.118  1.7528  0.5901 -0.8524
  117MOL   H12225874   7.118   5.644   3.962  0.6163  1.7747 -1.0910
  117MOL   C12325875   6.901   6.024   3.629 -0.8248 -0.0929 -0.0117
  117MOL   C12425876   6.974   6.006   3.753 -0.2186 -0.2183 -0.1023
  117MOL   C12525877   6.942   5.907   3.845 -0.0399  0.1964 -0.1134
  117MOL   C12625878   6.829   5.826   3.810 -0.0730 -0.4040 -0.7524
  117MOL   C12725879   6.755   5.840   3.691  0.9759 -0.6285 -0.6015
  117MOL   C12825880   6.794   5.940   3.597  0.4795 -0.1343 -0.3795
  117MOL   O12925881   6.730   5.965   3.481  0.2373  0.0934  0.2031
  117MOL   H13025882   6.940   6.094   3.558 -2.1361  2.9661  2.1963
  117MOL   H13125883   7.062   6.066   3.770  0.7003 -1.5763 -0.0122
  117MOL   H13225884   6.812   5.746   3.881 -1.8485 -0.6157 -1.3907
  117MOL   H13325885   6.672   5.775   3.668 -0.2378  0.6999 -0.0277
  117MOL   C13425886   6.414   5.803   3.393  0.1451  0.2554 -0.1435
  117MOL   C13525887   6.550   5.829   3.402  0.9546  0.1192  0.2732
  117MOL   C13625888   6.595   5.943   3.470  0.3037  0.2566 -0.7818
  117MOL   C13725889   6.505   6.028   3.531 -0.1491 -0.4085  0.2713
  117MOL   C13825890   6.366   6.003   3.517 -0.4295  0.6228 -0.3109
  117MOL   C13925891   6.321   5.891   3.445 -0.9326  0.3737  0.5687
  117MOL   O14025892   6.188   5.874   3.424  0.4111  0.6893  0.8035
  117MOL   H14125893   6.387   5.717   3.333 -0.8188  1.2445 -1.1553
  117MOL   H14225894   6.631   5.773   3.357 -0.5203 -2.2201  0.4651
  117MOL   H14325895   6.536   6.104   3.601 -2.2476  0.1231  0.6538
  117MOL   H14425896   6.293   6.075   3.552 -0.7628  0.0856  0.1048
  117MOL   C14525897   6.126   5.990   3.074  0.6562 -0.5502 -0.7287
  117MOL   C14625898   6.195   5.973   3.198  0.5942 -0.4025  0.1886
  117MOL   C14725899   6.139   5.893   3.302  0.5707 -0.2363  0.4682
  117MOL   C14825900   6.008   5.846   3.286 -0.2455  0.1252 -0.2346
  117MOL   C14925901   5.936   5.861   3.165 -0.2103 -0.0092  0.1199
  117MOL   C15025902   6.000   5.927   3.054 -0.0351  0.2017  0.1217
  117MOL   O15125903   5.934   5.949   2.933  0.6229 -0.3304 -0.7298
  117MOL   H15225904   6.179   6.049   3.001 -1.7456  1.3597 -0.9767
  117MOL   H15325905   6.289   6.024   3.208  0.9880 -1.1521  0.3431
  117MOL   H15425906   5.968   5.781   3.363 -1.2022  1.3967  0.3656
  117MOL   H15525907   5.838   5.818   3.148 -1.0285  1.0599  1.9750
  117MOL   C15625908   5.676   5.693   2.829 -0.2312  0.5898  0.3876
  117MOL   C15725909   5.733   5.816   2.878  0.0136 -0.0761 -0.2170
  117MOL   C15825910   5.870   5.837   2.880 -0.0784  0.8080  0.2153
  117MOL   C15925911   5.950   5.737   2.824  0.1874 -0.2895  1.5068
  117MOL   C16025912   5.896   5.621   2.767 -0.2104 -0.2744 -0.2784
  117MOL   C16125913   5.756   5.596   2.769  0.2295  0.9109  0.0923
  117MOL   O16225914   5.703   5.482   2.708 -0.0752 -0.0834  0.3465
  117MOL   H16325915   5.571   5.666   2.823  0.0240 -0.2509 -0.3775
  117MOL   H16425916   5.676   5.895   2.924  0.5725  1.0482 -1.4219
  117MOL   H16525917   6.058   5.745   2.823  0.2763 -1.3376 -0.5234
  117MOL   H16625918   5.958   5.545   2.722 -0.3121 -0.0547 -0.7956
  117MOL   C16725919   5.818   5.491   2.347  0.1708  0.4045  0.6206
  117MOL   C16825920   5.821   5.457   2.489  0.2047  0.0149  0.1931
  117MOL   C16925921   5.711   5.496   2.566 -0.0791  0.4789 -0.1352
  117MOL   C17025922   5.603   5.565   2.509 -0.4477  0.5995 -0.1607
  117MOL   C17125923   5.597   5.590   2.375 -0.0273  0.1988  0.2721
  117MOL   C17225924   5.707   5.556   2.289 -0.3774  0.8455  0.0391
  117MOL   O17325925   5.711   5.603   2.159 -0.6778  0.6423 -0.0076
  117MOL   H17425926   5.913   5.490   2.296 -1.1482  2.3140 -1.9798
  117MOL   H17525927   5.908   5.410   2.532 -0.3398 -1.0104  0.2074
  117MOL   H17625928   5.527   5.603   2.576 -1.4305 -0.9866 -0.3558
  117MOL   H17725929   5.511   5.635   2.327 -0.0334 -0.2973 -0.1808
  117MOL   C17825930   5.920   5.913   2.188 -0.5993  0.2951 -0.1877
  117MOL   C17925931   5.883   5.780   2.199 -0.4573 -0.0090 -0.0364
  117MOL   C18025932   5.763   5.733   2.141  0.5919  0.2996  0.1495
  117MOL   C18125933   5.687   5.824   2.064 -0.3482 -0.1292  0.4241
  117MOL   C18225934   5.725   5.957   2.050  0.0692  0.0103  0.2021
  117MOL   C18325935   5.844   6.000   2.104  0.2267 -0.4658 -0.6607
  117MOL   O18425936   5.888   6.127   2.086  0.1798  0.1521 -0.3153
  117MOL   H18525937   6.008   5.954   2.234  0.5979 -1.2095 -1.0919
  117MOL   H18625938   5.955   5.710   2.240 -0.8315 -1.9630 -2.6388
  117MOL   H18725939   5.591   5.792   2.027 -0.2725 -1.4208  1.3127
  117MOL   H18825940   5.672   6.027   1.986 -1.5015  2.6719  4.2428
  117MOL   C18925941   6.083   6.341   1.857  0.1594 -0.3976  0.0801
  117MOL   C19025942   5.979   6.291   1.939  0.1070 -0.2237  0.8015
  117MOL   C19125943   5.978   6.163   1.987 -0.5829  0.2308 -0.3599
  117MOL   C19225944   6.069   6.069   1.933 -0.6025 -0.3550  0.3426
  117MOL   C19325945   6.172   6.107   1.851  0.3411 -0.9828  0.8704
  117MOL   C19425946   6.175   6.243   1.804  0.6401 -0.4198  0.1951
  117MOL   O19525947   6.268   6.290   1.717  0.1919  0.3213  0.4564
  117MOL   H19625948   6.092   6.444   1.826  0.8060 -1.0456 -1.9672
  117MOL   H19725949   5.912   6.368   1.974 -0.1165  1.6687 -3.4289
  117MOL   H19825950   6.078   5.970   1.976 -0.8507 -1.1060 -1.2878
  117MOL   H19925951   6.247   6.034   1.822 -0.0149 -0.8070 -0.5348
  117MOL   C20025952   6.614   6.240   1.837 -0.0566  0.4446  0.2761
  117MOL   C20125953   6.490   6.221   1.763 -0.3207 -0.1450 -0.3088
  117MOL   C20225954   6.393   6.319   1.767  0.0376  0.5555 -0.0446
  117MOL   C20325955   6.409   6.434   1.838  1.3805  0.0094 -0.3260
  117MOL   C20425956   6.535   6.458   1.898 -0.1235  0.4016  0.5410
  117MOL   C20525957   6.638   6.363   1.896  0.8050  0.0072 -0.6884
  117MOL   O20625958   6.759   6.390   1.955  0.1470 -0.0026  0.4893
  117MOL   H20725959   6.689   6.162   1.834 -1.0613 -0.4840 -1.9938
  117MOL   H20825960   6.477   6.124   1.717 -0.4131 -0.8835  1.2455
  117MOL   H20925961   6.325   6.498   1.862  1.7108  0.6417 -0.8523
  117MOL   H21025962   6.553   6.546   1.958  0.6287 -0.9038  2.2662
  117MOL   C21125963   6.901   6.674   1.771 -0.0265  0.6842  0.2731
  117MOL   C21225964   6.842   6.544   1.791  0.8628 -0.2227 -0.0959
  117MOL   C21325965   6.828   6.507   1.927 -0.0115 -0.0340  0.0989
  117MOL   C21425966   6.864   6.588   2.035  0.3100 -0.3521  0.3178
  117MOL   C21525967   6.925   6.714   2.002 -0.0787 -0.9271 -0.5860
  117MOL   C21625968   6.938   6.757   1.870 -0.0003 -0.2771 -0.9885
  117MOL   O21725969   6.995   6.874   1.843  0.1505 -0.5059 -0.4955
  117MOL   H21825970   6.915   6.716   1.672 -1.3753 -2.3532 -1.2768
  117MOL   H21925971   6.810   6.483   1.708  2.3195 -1.2134  0.0468
  117MOL   H22025972   6.858   6.568   2.141  1.7071  0.7670  0.6237
  117MOL   H22125973   6.968   6.775   2.080  0.4357 -2.1277  0.0767
  117MOL   H22225974   7.049   6.877   1.765  1.0840  1.7043  0.1905
  118MOL     C125975   7.806   8.056   6.830 -0.5814  0.1403  0.1288
  118MOL     C225976   7.701   8.017   6.910  0.1891  0.8411  0.0829
  118MOL     C325977   7.574   8.071   6.890  0.0073  0.7911  0.1153
  118MOL     C425978   7.551   8.170   6.795 -0.7916  0.2579 -0.3449
  118MOL     C525979   7.663   8.215   6.723  0.9125 -0.4432 -0.4578
  118MOL     C625980   7.786   8.160   6.737 -0.7558  0.8397 -0.4259
  118MOL     O725981   7.899   8.217   6.677 -0.0689 -0.6206  0.7170
  118MOL     H825982   7.898   8.010   6.861 -0.4489  0.5203  0.3013
  118MOL     H925983   7.719   7.947   6.990  1.0054  0.2254 -0.6276
  118MOL    H1025984   7.454   8.217   6.782 -1.4221 -0.6112  1.1045
  118MOL    H1125985   7.641   0.047   6.661  2.0818 -0.1557 -0.4812
  118MOL    H1225986   7.494   8.047   6.959  0.8297  1.2479  1.2534
  118MOL    C1325987   8.216   8.137   6.526  0.2223  0.5055 -0.3132
  118MOL    C1425988   8.118   8.202   6.600  0.3801  0.2299 -0.4989
  118MOL    C1525989   7.991   8.140   6.614  0.2652 -0.2268  0.7504
  118MOL    C1625990   7.961   8.017   6.545 -0.5256  0.2422  0.4374
  118MOL    C1725991   8.064   7.959   6.467 -0.4192  0.1268  0.3677
  118MOL    C1825992   8.191   8.019   6.456  0.5273  0.3651  0.3414
  118MOL    O1925993   0.041   7.960   6.383 -0.1446 -0.1757 -0.1705
  118MOL    H2025994   0.059   8.185   6.520 -0.2071  1.2104 -1.6546
  118MOL    H2125995   8.133   0.043   6.648  1.5164  0.1123 -0.6143
  118MOL    H2225996   7.858   7.984   6.553 -0.5015  0.1183  0.2393
  118MOL    H2325997   8.051   7.866   6.413 -1.6376  1.2681 -1.4014
  118MOL    C2425998   0.134   7.627   6.515 -0.6203  0.6195  0.0430
  118MOL    C2525999   0.123   7.766   6.504 -0.1302  0.3296 -0.3335
  118MOL    C2626000   0.068   7.826   6.387 -0.0069 -0.7060  0.6417
  118MOL    C2726001   0.027   7.747   6.279 -0.3378 -0.5634 -0.2610
  118MOL    C2826002   0.035   7.606   6.293  0.5947 -0.3945 -0.4905
  118MOL    C2926003   0.085   7.546   6.410  1.0340 -0.4119  0.5721
  118MOL    O3026004   0.085   7.408   6.425  0.1807 -0.1956 -0.8820
  118MOL    H3126005   0.162   7.584   6.611 -2.3764 -0.3264  0.1522
  118MOL    H3226006   0.135   7.819   6.597 -0.4401  0.5602 -0.4264
  118MOL    H3326007   8.242   7.808   6.199  1.4428  0.5143 -0.3404
  118MOL    H3426008   8.245   7.531   6.229 -1.5908 -1.3019  1.9609
  118MOL    C3526009   0.302   7.276   6.165  1.2531 -0.5642  0.0309
  118MOL    C3626010   0.242   7.372   6.245  0.2142 -0.3784  0.0642
  118MOL    C3726011   0.124   7.333   6.318  0.0467  0.2442 -0.4725
  118MOL    C3826012   0.062   7.208   6.302  0.4581  0.6953 -0.0136
  118MOL    C3926013   0.123   7.118   6.212  0.2651  0.6283  0.1575
  118MOL    C4026014   0.239   7.155   6.143 -0.2878  0.0888  0.2416
  118MOL    O4126015   0.291   7.068   6.051 -0.0594  0.1239  0.3743
  118MOL    H4226016   0.381   7.298   6.095  0.3138 -1.0801 -1.2241
  118MOL    H4326017   0.298   7.463   6.264  1.0406 -0.6465 -1.0630
  118MOL    H4426018   8.229   7.184   6.361  1.3769 -3.4029 -0.2079
  118MOL    H4526019   0.079   7.020   6.203  2.6367 -0.6226  1.4345
  118MOL    C4626020   0.361   7.204   5.723 -0.1510  0.2605  0.0015
  118MOL    C4726021   0.378   7.142   5.848  0.9229 -0.0014  0.3268
  118MOL    C4826022   0.263   7.105   5.922  0.4943 -0.2733 -0.1551
  118MOL    C4926023   0.138   7.120   5.866  0.1500  0.2232 -0.5651
  118MOL    C5026024   0.124   7.176   5.739 -0.3297  0.2050 -0.4243
  118MOL    C5126025   0.236   7.221   5.663  0.2431  0.0202 -0.2385
  118MOL    O5226026   0.220   7.279   5.542  0.3465 -0.0354  0.0386
  118MOL    H5326027   0.446   7.241   5.668 -0.1418  1.5701  0.8817
  118MOL    H5426028   0.470   7.125   5.901  0.4957  0.5227  1.2323
  118MOL    H5526029   0.046   7.108   5.922 -0.1043 -0.4347 -1.1217
  118MOL    H5626030   0.031   7.177   5.685  0.3963 -0.4607 -1.7217
  118MOL    C5726031   8.152   7.460   5.466  0.1738  0.3079 -0.2549
  118MOL    C5826032   0.001   7.362   5.469 -0.6928  0.4100  0.5653
  118MOL    C5926033   0.130   7.383   5.527 -1.0302  0.7771  0.2007
  118MOL    C6026034   0.157   7.505   5.586 -0.5972 -0.3279  0.1521
  118MOL    C6126035   0.051   7.607   5.585 -0.1431 -0.3377 -0.4216
  118MOL    C6226036   8.182   7.584   5.520  0.8137 -0.0603 -0.1562
  118MOL    O6326037   8.090   7.685   5.525 -0.2892  0.5753  0.0470
  118MOL    H6426038   8.058   7.440   5.417  1.0118 -0.7223 -1.4462
  118MOL    H6526039   8.228   7.268   5.425  0.2206 -0.0876  1.0376
  118MOL    H6626040   0.253   7.524   5.633  0.4156  1.3848 -2.4758
  118MOL    H6726041   0.070   7.704   5.629  1.0845 -1.5336  1.7969
  118MOL    C6826042   8.115   7.874   5.206  0.4291 -0.0256 -0.0732
  118MOL    C6926043   8.113   7.765   5.294  0.8745 -0.2360 -0.4715
  118MOL    C7026044   8.097   7.784   5.427  0.1265 -0.1575 -0.4407
  118MOL    C7126045   8.087   7.917   5.476 -0.4512  0.0233 -0.8064
  118MOL    C7226046   8.086   8.026   5.388  0.3710 -0.3323 -0.4619
  118MOL    C7326047   8.100   8.008   5.251 -0.6081  0.0578 -0.3770
  118MOL    O7426048   8.096   8.116   5.165 -0.8770  0.3774  0.3010
  118MOL    H7526049   8.122   7.852   5.100  0.5509  2.6895 -0.6548
  118MOL    H7626050   8.102   7.665   5.255 -0.3628 -0.9228  1.5740
  118MOL    H7726051   8.074   7.929   5.583 -0.3011 -3.1046 -0.3969
  118MOL    H7826052   8.070   8.125   5.426  0.3580 -0.8032  0.7996
  118MOL    C7926053   0.190   8.190   5.063 -1.2733 -0.2977  0.1323
  118MOL    C8026054   0.064   8.127   5.071  1.1088 -0.1822  0.9235
  118MOL    C8126055   8.221   8.179   5.157  0.0867  0.7243  1.0234
  118MOL    C8226056   8.247   0.042   5.232  0.1028  0.7544 -0.4103
  118MOL    C8326057   0.106   0.119   5.210  0.4463  0.3109 -0.2149
  118MOL    C8426058   0.211   0.064   5.128 -0.0572  1.1086  0.7237
  118MOL    O8526059   0.321   0.140   5.115 -0.2491 -0.3535 -0.0542
  118MOL    H8626060   0.274   8.153   5.007 -0.8975  0.3194  0.2899
  118MOL    H8726061   0.042   8.034   5.021  1.3667 -0.7011  1.7636
  118MOL    H8826062   8.167   0.073   5.298 -1.1300 -3.1733  0.0867
  118MOL    H8926063   0.111   0.219   5.250  0.9589  0.1654  0.0814
  118MOL    C9026064   0.592   8.237   5.291 -0.8717 -0.3193 -0.2200
  118MOL    C9126065   0.509   0.021   5.186  0.3493  0.9566 -0.5519
  118MOL    C9226066   0.412   0.119   5.207 -0.5906  0.3106  0.2600
  118MOL    C9326067   0.407   0.188   5.328  0.0566  0.0052 -0.3320
  118MOL    C9426068   0.500   0.160   5.433  0.1414  0.0601 -0.1266
  118MOL    C9526069   0.586   0.051   5.416  0.6064  0.4728 -0.4198
  118MOL    O9626070   0.666   0.003   5.520 -0.1451  0.1266 -0.5743
  118MOL    H9726071   0.661   8.157   5.272 -0.8636 -0.1331 -0.9946
  118MOL    H9826072   0.508   8.229   5.088  1.8746 -0.9341  0.2695
  118MOL    H9926073   0.336   0.265   5.354 -0.7948 -1.0753  0.5465
  118MOL   H10026074   0.481   0.223   5.519 -0.5884 -0.1895 -0.0972
  118MOL   C10126075   0.612   0.095   5.867 -0.0376  0.0812  0.0722
  118MOL   C10226076   0.641   0.105   5.730 -0.4393  0.2209  0.3828
  118MOL   C10326077   0.622   8.252   5.643  0.5623 -0.3185 -0.0198
  118MOL   C10426078   0.554   8.139   5.684 -0.0091  0.8332  0.7390
  118MOL   C10526079   0.515   8.128   5.821 -0.2518  0.1974  0.4409
  118MOL   C10626080   0.539   8.237   5.911  0.2405  0.2031  0.1291
  118MOL   O10726081   0.499   8.233   6.046 -0.5399 -0.0835  0.2687
  118MOL   H10826082   0.620   0.181   5.932  1.1637 -0.0749  0.1313
  118MOL   H10926083   0.687   0.197   5.695  0.4976 -0.4319 -0.1506
  118MOL   H11026084   0.536   8.063   5.610  2.4553  1.2575 -0.3522
  118MOL   H11126085   0.457   8.044   5.857  1.9209 -2.1151 -1.2563
  118MOL   C11226086   0.161   0.108   6.122 -0.4983 -0.2297 -0.1271
  118MOL   C11326087   0.294   0.102   6.088  0.2245 -0.7837  0.4038
  118MOL   C11426088   0.363   8.231   6.084 -0.2797 -0.0293 -0.0415
  118MOL   C11526089   0.299   8.113   6.112 -0.3683  0.1795  0.4983
  118MOL   C11626090   0.162   8.119   6.140 -0.6200  0.9635 -0.3695
  118MOL   C11726091   0.092   8.242   6.157  0.2703 -0.6636 -0.6307
  118MOL   O11826092   8.215   8.246   6.207 -0.3235 -0.0847  0.2279
  118MOL   H11926093   0.121   0.207   6.141 -1.9802 -0.8997  0.2500
  118MOL   H12026094   0.348   0.191   6.061  2.7453 -1.6751  2.3434
  118MOL   H12126095   0.361   8.025   6.112  0.7191  0.7048 -5.4014
  118MOL   H12226096   0.118   8.023   6.165  1.3277  0.0077 -0.5083
  118MOL   C12326097   7.948   8.048   6.034 -0.0521 -0.0631  0.4679
  118MOL   C12426098   8.065   8.081   6.107  0.0513  0.1046 -0.2501
  118MOL   C12526099   8.099   8.217   6.133 -0.3071  0.5172  0.3652
  118MOL   C12626100   8.010   0.067   6.096 -0.5978  0.1497 -0.1377
  118MOL   C12726101   7.896   0.037   6.017 -0.3844 -0.2676 -0.5511
  118MOL   C12826102   7.862   8.158   5.994 -0.6518  1.1211  0.1493
  118MOL   O12926103   7.749   8.135   5.924 -0.4929 -0.4040  0.6780
  118MOL   H13026104   7.907   7.948   6.020  0.2670 -0.1043 -0.1835
  118MOL   H13126105   8.125   7.999   6.144  1.3594  0.3533 -1.7981
  118MOL   H13226106   8.031   0.171   6.116  2.5462 -0.0566 -2.0301
  118MOL   H13326107   7.830   0.119   5.992  1.3125  1.2682 -0.1456
  118MOL   C13426108   7.746   8.223   5.566  0.6811  0.1391  0.2132
  118MOL   C13526109   7.768   8.235   5.708 -0.2763 -0.5556 -0.2434
  118MOL   C13626110   7.772   8.121   5.789 -0.1577 -0.1561 -0.5228
  118MOL   C13726111   7.778   7.991   5.735 -0.1919 -0.4027  0.1069
  118MOL   C13826112   7.790   7.986   5.593  0.5962 -0.0504  0.3291
  118MOL   C13926113   7.753   8.092   5.509 -0.1118 -0.1017 -0.5141
  118MOL   O14026114   7.736   8.076   5.376  0.1802  0.4770  0.2763
  118MOL   H14126115   7.727   0.052   5.500  1.6603 -2.2115 -3.1408
  118MOL   H14226116   7.781   0.071   5.766 -0.9105 -1.8219  1.8861
  118MOL   H14326117   7.776   7.906   5.803  0.6270  0.2201  0.9279
  118MOL   H14426118   7.810   7.891   5.546  0.8191  1.0446 -1.8688
  118MOL   C14526119   7.482   8.104   5.115  0.1552 -0.5416  0.1828
  118MOL   C14626120   7.604   8.094   5.184  0.0396  0.0437  0.5403
  118MOL   C14726121   7.606   8.087   5.325 -0.3266  0.4591  0.2421
  118MOL   C14826122   7.488   8.066   5.396  0.0663 -0.1538  0.3718
  118MOL   C14926123   7.369   8.071   5.330  0.5431 -0.1554 -0.8454
  118MOL   C15026124   7.365   8.103   5.191  0.3494  0.6180 -0.1845
  118MOL   O15126125   7.239   8.119   5.137 -0.3411 -0.4923 -0.4626
  118MOL   H15226126   7.484   8.127   5.009 -1.9002 -0.7389  0.0863
  118MOL   H15326127   7.700   8.112   5.137  0.3011 -0.1006  1.0178
  118MOL   H15426128   7.484   8.033   5.499 -1.8388 -1.4029 -0.0749
  118MOL   H15526129   7.282   8.054   5.392  0.5588  0.3074 -0.6929
  118MOL   C15626130   7.022   8.036   4.856 -0.4885  0.0666 -0.0845
  118MOL   C15726131   7.074   8.093   4.973 -0.2137  0.6159 -0.1726
  118MOL   C15826132   7.192   8.049   5.035  0.1953 -0.3460 -0.8456
  118MOL   C15926133   7.254   7.932   4.981 -0.3165  0.1038 -0.1105
  118MOL   C16026134   7.198   7.870   4.871 -0.4975  0.1142  0.3579
  118MOL   C16126135   7.095   7.923   4.802  0.1574 -0.5232  0.3325
  118MOL   O16226136   7.079   7.864   4.679 -0.0777 -0.1846  0.3625
  118MOL   H16326137   6.934   8.080   4.812 -0.6025  0.2427  0.3171
  118MOL   H16426138   7.023   8.182   5.009 -0.1985  0.1365  1.0356
  118MOL   H16526139   7.345   7.894   5.024 -1.5624 -2.7621  0.0842
  118MOL   H16626140   7.251   7.783   4.833  0.0423  0.3806  0.4952
  118MOL   C16726141   6.824   7.897   4.416  0.9159 -0.4356 -0.3365
  118MOL   C16826142   6.898   7.843   4.523 -0.1003  0.4125  0.4686
  118MOL   C16926143   7.002   7.924   4.583 -0.3416 -0.6495  0.1514
  118MOL   C17026144   7.028   8.053   4.533  0.6909  1.3489 -0.3400
  118MOL   C17126145   6.942   8.115   4.443  0.4810  0.5629  0.5003
  118MOL   C17226146   6.848   8.029   4.377  0.1097  0.6612 -0.1416
  118MOL   O17326147   6.759   8.089   4.292 -0.3537  0.0244  0.2069
  118MOL   H17426148   6.738   7.849   4.372  0.4062 -0.1254  0.3118
  118MOL   H17526149   6.866   7.750   4.567  0.0538 -0.1629 -0.6351
  118MOL   H17626150   7.102   8.117   4.579 -1.8752  2.4317  2.5003
  118MOL   H17726151   6.946   8.219   4.414  2.8298  0.7911  1.5348
  118MOL   C17826152   6.922   8.023   3.969  0.1275 -0.6091  0.7442
  118MOL   C17926153   6.911   8.022   4.108 -0.4714  0.6611  0.1350
  118MOL   C18026154   6.799   8.091   4.164  0.7746  0.0266  0.9009
  118MOL   C18126155   6.712   8.158   4.073  0.2171 -0.2862 -0.7577
  118MOL   C18226156   6.723   8.143   3.934 -0.0588 -0.5227  0.9080
  118MOL   C18326157   6.832   8.088   3.877  0.7557  1.3661  0.3561
  118MOL   O18426158   6.857   8.095   3.745 -0.6562  0.1640 -0.5699
  118MOL   H18526159   7.012   7.989   3.920 -0.9079  0.9865 -2.4531
  118MOL   H18626160   6.990   7.976   4.166 -0.0501  1.1916 -0.0160
  118MOL   H18726161   6.627   8.209   4.116 -0.0853  0.0114 -1.6827
  118MOL   H18826162   6.652   8.206   3.883  0.8661  0.1182  0.3911
  118MOL   C18926163   6.765   7.933   3.427  0.8996  0.5040 -0.0093
  118MOL   C19026164   6.802   8.026   3.519  0.7474 -0.0681  0.6594
  118MOL   C19126165   6.816   7.996   3.658  0.0168 -0.2450 -0.2185
  118MOL   C19226166   6.810   7.858   3.696  0.0467 -0.5101  0.2582
  118MOL   C19326167   6.786   7.762   3.599  0.2993 -0.1645  0.0461
  118MOL   C19426168   6.750   7.798   3.465 -0.7675 -0.3353 -0.0414
  118MOL   O19526169   6.734   7.706   3.364 -0.4179 -0.4499 -0.0407
  118MOL   H19626170   6.757   7.961   3.323  1.6594  1.8879  0.2990
  118MOL   H19726171   6.797   8.130   3.490 -2.9926 -0.8589 -1.8982
  118MOL   H19826172   6.828   7.827   3.798 -0.2104  1.9029  1.0786
  118MOL   H19926173   6.778   7.657   3.622 -1.8685 -0.1975 -0.7430
  118MOL   C20026174   6.589   7.371   3.429 -0.0005 -0.3278 -0.7195
  118MOL   C20126175   6.683   7.467   3.393  0.1982  0.0194  0.2405
  118MOL   C20226176   6.652   7.605   3.405  0.1405  0.1019  0.4483
  118MOL   C20326177   6.518   7.638   3.447  0.5989 -0.0718 -0.3571
  118MOL   C20426178   6.427   7.539   3.479 -0.6032  0.1821  0.3067
  118MOL   C20526179   6.458   7.402   3.471  0.9739  0.0538  0.0492
  118MOL   O20626180   6.361   7.304   3.493  0.0035 -0.3257  0.1256
  118MOL   H20726181   6.613   7.268   3.409  1.7785  0.3682 -2.3511
  118MOL   H20826182   6.781   7.449   3.351 -0.2964  0.5305 -1.1451
  118MOL   H20926183   6.498   7.743   3.463  3.0329  0.1463  1.7381
  118MOL   H21026184   6.324   7.559   3.507 -1.4005  1.1425 -3.0392
  118MOL   C21126185   6.176   7.342   3.807  0.4338 -0.9059 -0.2599
  118MOL   C21226186   6.225   7.366   3.674  0.1178  0.2947 -0.1754
  118MOL   C21326187   6.334   7.294   3.626 -0.3789  0.0241 -0.3329
  118MOL   C21426188   6.403   7.208   3.712 -0.2119 -0.2742  0.1259
  118MOL   C21526189   6.362   7.191   3.850  0.1304 -0.2236 -0.3946
  118MOL   C21626190   6.236   7.245   3.891 -0.2087 -1.1422 -0.0795
  118MOL   O21726191   6.197   7.219   4.016 -0.7626 -0.7489 -0.0514
  118MOL   H21826192   6.087   7.389   3.847  0.8881 -0.5231  0.2946
  118MOL   H21926193   6.177   7.440   3.612  1.9059  0.3102 -1.5956
  118MOL   H22026194   6.489   7.154   3.675 -0.5502  0.7724 -2.3286
  118MOL   H22126195   6.420   7.125   3.913  0.2242  1.8722  1.7912
  118MOL   H22226196   6.263   7.187   4.075 -1.5335  0.3941  1.4829
  119MOL     C126197   7.506   4.998   2.988 -0.3018  0.3122  0.5755
  119MOL     C226198   7.556   5.049   3.109  0.0771 -0.8551 -0.1013
  119MOL     C326199   7.685   5.012   3.145 -0.3997 -0.0930  0.0392
  119MOL     C426200   7.762   4.931   3.063 -0.0201  0.4353 -0.6565
  119MOL     C526201   7.717   4.880   2.942 -0.2498 -0.3988  0.3634
  119MOL     C626202   7.586   4.909   2.906  0.7203 -0.2444  0.4162
  119MOL     O726203   7.529   4.853   2.793  0.3445  0.3248 -0.1687
  119MOL     H826204   7.407   5.031   2.961 -0.0901  0.6459  0.1936
  119MOL     H926205   7.503   5.124   3.166  2.0613  1.0484 -0.6804
  119MOL    H1026206   7.859   4.901   3.099 -0.8436 -1.2456  0.2131
  119MOL    H1126207   7.779   4.820   2.877  0.4139  0.2054  0.4410
  119MOL    H1226208   7.723   5.055   3.237 -0.5421  1.2083 -0.4896
  119MOL    C1326209   7.670   4.798   2.462 -0.3001 -0.1212 -0.0787
  119MOL    C1426210   7.629   4.768   2.594  0.3290 -0.3562  0.2525
  119MOL    C1526211   7.584   4.876   2.673 -0.7445  0.2589 -0.3884
  119MOL    C1626212   7.581   5.006   2.615  1.1197  0.2156 -0.1712
  119MOL    C1726213   7.610   5.028   2.483 -0.5872 -1.0954 -0.0574
  119MOL    C1826214   7.662   4.925   2.408 -1.4039 -0.2073 -0.8311
  119MOL    O1926215   7.707   4.942   2.278  0.2833  0.1792  0.1220
  119MOL    H2026216   7.712   4.718   2.403 -1.6698 -0.2112 -0.9454
  119MOL    H2126217   7.630   4.671   2.642 -3.2407 -0.2344  0.7036
  119MOL    H2226218   7.552   5.087   2.681  1.7305  1.9181 -1.9874
  119MOL    H2326219   7.610   5.129   2.443  0.1774  0.6713  4.1725
  119MOL    C2426220   7.622   4.842   1.936 -0.6876 -0.2832 -0.0728
  119MOL    C2526221   7.700   4.879   2.049 -0.6538  0.0211 -1.0359
  119MOL    C2626222   7.631   4.900   2.173  0.1964 -0.5451  0.1925
  119MOL    C2726223   7.495   4.885   2.187  0.0283  0.3576  0.1124
  119MOL    C2826224   7.422   4.846   2.071 -0.0475 -0.4397 -0.5345
  119MOL    C2926225   7.485   4.823   1.948  0.1475  0.1594 -0.0094
  119MOL    O3026226   7.415   4.779   1.838  0.8657  0.7657 -0.4808
  119MOL    H3126227   7.664   4.821   1.839 -3.0461 -4.0670 -0.3617
  119MOL    H3226228   7.805   4.903   2.050 -0.6325 -0.0385 -1.8012
  119MOL    H3326229   7.438   4.898   2.279  0.7845  0.0672  0.6254
  119MOL    H3426230   7.318   4.824   2.086 -0.9179  3.7149  0.3407
  119MOL    C3526231   7.072   4.873   1.715  0.9680  0.5652 -0.3341
  119MOL    C3626232   7.179   4.799   1.774 -0.4047 -0.4422 -0.5219
  119MOL    C3726233   7.314   4.847   1.776 -0.7777  0.2295  0.3842
  119MOL    C3826234   7.341   4.972   1.720  0.8560 -1.0821 -0.4639
  119MOL    C3926235   7.234   5.040   1.648  0.5320  0.4565  0.6840
  119MOL    C4026236   7.100   4.985   1.645 -0.4029  0.1379  0.2284
  119MOL    O4126237   6.992   5.048   1.590  0.1076  0.0188  0.4933
  119MOL    H4226238   6.970   4.837   1.722  1.5295 -0.7534  1.1643
  119MOL    H4326239   7.147   4.714   1.833 -1.8649  0.5134  0.0775
  119MOL    H4426240   7.438   5.016   1.737  1.1858 -1.3464 -1.6566
  119MOL    H4526241   7.262   5.138   1.613 -3.4198  0.7813 -1.7695
  119MOL    C4626242   6.997   4.992   1.229 -0.5183 -0.2354  0.0344
  119MOL    C4726243   7.016   4.968   1.368 -0.1447  0.2350 -0.1403
  119MOL    C4826244   6.988   5.075   1.457  0.6051 -0.1323  0.6850
  119MOL    C4926245   6.967   5.204   1.409 -0.3339  0.1951  0.0601
  119MOL    C5026246   6.947   5.230   1.272  0.0834  0.2484 -0.0472
  119MOL    C5126247   6.966   5.120   1.182 -0.3922  0.2693 -0.0277
  119MOL    O5226248   6.969   5.155   1.051  0.4032 -0.1272  0.0103
  119MOL    H5326249   7.008   4.907   1.163  0.2328 -0.9188  1.0237
  119MOL    H5426250   7.052   4.875   1.409 -2.3318  0.0875  1.5176
  119MOL    H5526251   6.971   5.282   1.484 -1.3955 -1.8290  2.2864
  119MOL    H5626252   6.930   5.332   1.243 -0.3419  0.8975  2.3954
  119MOL    C5726253   6.682   5.017   0.857 -0.4911 -0.4843  0.2977
  119MOL    C5826254   6.757   5.106   0.935  0.0885  0.1819 -0.6873
  119MOL    C5926255   6.890   5.072   0.971  0.7453 -0.2229 -0.4216
  119MOL    C6026256   6.947   4.951   0.929 -0.3981  0.6314  0.0588
  119MOL    C6126257   6.861   4.859   0.859  0.4077  0.4510  0.5416
  119MOL    C6226258   6.723   4.890   0.827  0.0463 -0.0496  0.1837
  119MOL    O6326259   6.646   4.805   0.751 -0.4005 -0.2039  0.1358
  119MOL    H6426260   6.582   5.042   0.823 -0.1642  1.2475  0.5972
  119MOL    H6526261   6.704   5.194   0.967 -0.5657 -0.3758 -0.2144
  119MOL    H6626262   7.052   4.931   0.943 -0.5393 -0.6979 -0.7303
  119MOL    H6726263   6.913   4.770   0.826  1.8544  1.2658  0.5995
  119MOL    C6826264   6.850   4.692   0.453 -0.9612 -0.3056 -0.2044
  119MOL    C6926265   6.781   4.779   0.547  0.0832  0.0470 -0.7958
  119MOL    C7026266   6.710   4.725   0.653  1.3605 -0.3327 -0.7696
  119MOL    C7126267   6.697   4.584   0.662  0.4899  0.3969 -0.1977
  119MOL    C7226268   6.757   4.494   0.574 -0.7672 -0.2856  1.1263
  119MOL    C7326269   6.828   4.551   0.464 -0.1437  0.3708 -0.1925
  119MOL    O7426270   6.875   4.468   0.371 -0.9346 -0.3613  0.0060
  119MOL    H7526271   6.914   4.725   0.373 -0.4646 -1.3105 -0.2311
  119MOL    H7626272   6.786   4.886   0.530  0.3374 -0.0097 -1.0926
  119MOL    H7726273   6.624   4.548   0.733  0.6151 -1.5297 -1.0176
  119MOL    H7826274   6.736   4.388   0.577 -0.1091 -0.4360  0.4587
  119MOL    C7926275   6.791   4.533   0.025  0.1534 -0.7169 -0.0872
  119MOL    C8026276   6.842   4.545   0.155 -0.5792 -0.0670  0.4391
  119MOL    C8126277   6.810   4.449   0.252  0.2618  0.2731 -0.0243
  119MOL    C8226278   6.746   4.328   0.210 -0.1103  0.0865 -0.4839
  119MOL    C8326279   6.697   4.313   0.079 -0.4786  1.0859 -0.3261
  119MOL    C8426280   6.723   4.413   8.241 -0.2345  0.0314  0.0034
  119MOL    O8526281   6.693   4.395   8.104 -0.2407 -0.1281 -0.1526
  119MOL    H8626282   6.814   4.612   8.208  2.8089 -1.9832 -0.6749
  119MOL    H8726283   6.906   4.628   0.178 -0.3669  0.1296 -0.8744
  119MOL    H8826284   6.715   4.255   0.284  0.3417  0.4963  0.1128
  119MOL    H8926285   6.644   4.220   0.067  0.1921  0.8280 -1.3353
  119MOL    C9026286   6.946   4.413   7.835  0.1684 -0.2154  1.1312
  119MOL    C9126287   6.840   4.449   7.921  0.3450 -1.0621  1.1357
  119MOL    C9226288   6.796   4.357   8.019  0.1076  0.3644 -0.0441
  119MOL    C9326289   6.855   4.228   8.032  0.4713  0.2549  0.3420
  119MOL    C9426290   6.963   4.198   7.949  0.2223 -0.1734 -0.2378
  119MOL    C9526291   7.008   4.288   7.852  0.3078  0.7635 -0.4505
  119MOL    O9626292   7.122   4.266   7.777 -0.0122 -0.7559 -0.4077
  119MOL    H9726293   6.982   4.480   7.759 -0.2918 -0.7718  0.4223
  119MOL    H9826294   6.792   4.546   7.916 -0.6876 -1.6395 -0.1254
  119MOL    H9926295   6.829   4.167   8.118  0.1427  0.9398  0.7326
  119MOL   H10026296   7.020   4.107   7.957  0.2542 -0.0210  1.3855
  119MOL   C10126297   7.212   4.098   7.464  0.4794 -0.3174  0.4303
  119MOL   C10226298   7.216   4.150   7.593 -0.0213  0.2931 -0.3995
  119MOL   C10326299   7.104   4.217   7.654  0.5986 -0.0759  0.9720
  119MOL   C10426300   6.981   4.230   7.574  0.1861 -0.4994  0.5181
  119MOL   C10526301   6.980   4.181   7.438  1.3023  0.3246  0.3832
  119MOL   C10626302   7.095   4.116   7.387  0.4230 -0.3033  0.4326
  119MOL   O10726303   7.090   4.067   7.261  0.0085  0.0124  0.1443
  119MOL   H10826304   7.304   4.070   7.414 -0.7583 -0.4184 -1.8301
  119MOL   H10926305   7.316   4.148   7.634 -0.0796 -2.7108 -0.2983
  119MOL   H11026306   6.887   4.275   7.600 -0.0572 -1.1424  0.7487
  119MOL   H11126307   6.888   4.193   7.382  1.8959  0.0889 -0.6413
  119MOL   C11226308   7.045   3.706   7.260 -0.1751 -0.0866  0.4214
  119MOL   C11326309   7.026   3.847   7.285  0.3478 -0.1657 -0.8117
  119MOL   C11426310   7.121   3.939   7.241 -0.0476 -0.4339 -0.2290
  119MOL   C11526311   7.238   3.898   7.178 -0.2754 -0.1739  0.6788
  119MOL   C11626312   7.253   3.763   7.144  0.4908  0.1565 -0.7071
  119MOL   C11726313   7.163   3.666   7.191 -0.7308  0.2068  0.5165
  119MOL   O11826314   7.194   3.533   7.186  0.0291  0.3246  0.1478
  119MOL   H11926315   6.977   3.633   7.302 -0.7203 -0.0298 -0.3407
  119MOL   H12026316   6.931   3.881   7.322  0.5597 -2.2560  1.7941
  119MOL   H12126317   7.306   3.976   7.145 -1.8396  0.9704  0.1033
  119MOL   H12226318   7.342   3.731   7.092  1.0950 -1.4721  1.2516
  119MOL   C12326319   7.188   3.449   6.826  0.2656 -0.5838  0.1974
  119MOL   C12426320   7.165   3.519   6.942 -0.6750  0.0943 -0.0067
  119MOL   C12526321   7.221   3.471   7.065  0.1466  0.3795 -0.2130
  119MOL   C12626322   7.302   3.358   7.071  0.2349  0.3069  0.3054
  119MOL   C12726323   7.324   3.288   6.952  0.2698 -0.7195 -0.0797
  119MOL   C12826324   7.270   3.334   6.833  0.6514 -0.0667  0.5175
  119MOL   O12926325   7.303   3.266   6.724 -0.2817  0.0270 -0.1845
  119MOL   H13026326   7.166   3.484   6.726 -2.5176  0.9581  1.2765
  119MOL   H13126327   7.114   3.613   6.945 -1.0303 -0.1733  3.2484
  119MOL   H13226328   7.354   3.322   7.158  3.3452  0.1754 -1.5351
  119MOL   H13326329   7.371   3.191   6.951 -1.5025 -1.6742  2.4510
  119MOL   C13426330   7.086   2.962   6.699 -0.2555  0.8918  0.2735
  119MOL   C13526331   7.139   3.083   6.754 -0.8094  0.6059 -0.2873
  119MOL   C13626332   7.248   3.143   6.690 -0.4834 -0.1500  0.5079
  119MOL   C13726333   7.316   3.077   6.586 -0.8312 -0.7063  0.5594
  119MOL   C13826334   7.269   2.955   6.544 -0.5941  0.0703  0.1295
  119MOL   C13926335   7.156   2.894   6.599  0.2229 -0.3359 -0.8497
  119MOL   O14026336   7.114   2.783   6.542  0.5281 -0.3291 -0.2678
  119MOL   H14126337   6.997   2.921   6.746  1.5710  0.0407  3.1451
  119MOL   H14226338   7.079   3.128   6.832 -1.5084  0.2112 -0.5938
  119MOL   H14326339   7.402   3.119   6.537 -0.0631 -0.6470  1.9316
  119MOL   H14426340   7.324   2.916   6.460 -1.8106 -2.7338  0.5955
  119MOL   C14526341   7.291   2.455   6.538 -0.1952  0.1492  0.0360
  119MOL   C14626342   7.244   2.581   6.494 -0.1025 -0.6320 -0.2643
  119MOL   C14726343   7.159   2.658   6.577  0.1924  1.0307 -0.1329
  119MOL   C14826344   7.127   2.603   6.705 -0.1731  0.5594 -0.2451
  119MOL   C14926345   7.188   2.488   6.750  0.0029 -0.7053 -0.5483
  119MOL   C15026346   7.261   2.407   6.667 -0.0196 -0.0568  0.4468
  119MOL   O15126347   7.301   2.284   6.716 -0.1851 -0.5135  0.6480
  119MOL   H15226348   7.356   2.400   6.472  0.2146 -0.5570  1.0166
  119MOL   H15326349   7.259   2.616   6.392  1.4066  1.2567  0.5762
  119MOL   H15426350   7.069   2.665   6.773 -0.0305  0.3074  0.1093
  119MOL   H15526351   7.177   2.454   6.852  0.9829  1.7442  0.4027
  119MOL   C15626352   7.113   2.036   6.507 -0.1063 -0.0329 -0.7151
  119MOL   C15726353   7.139   2.133   6.608 -0.2548 -0.0857  0.1181
  119MOL   C15826354   7.274   2.181   6.630 -0.1022  0.3751 -0.1000
  119MOL   C15926355   7.375   2.121   6.555 -0.0843 -0.3704  0.0473
  119MOL   C16026356   7.353   2.017   6.466  0.0035  0.1185  0.0478
  119MOL   C16126357   7.222   1.974   6.448  0.1090  0.3183  0.3344
  119MOL   O16226358   7.196   1.867   6.361  0.8396  0.4789 -0.1877
  119MOL   H16326359   7.012   2.006   6.483  0.1770 -0.6571 -1.1459
  119MOL   H16426360   7.058   2.185   6.657  0.1446  0.4338  0.2291
  119MOL   H16526361   7.467   2.169   6.584 -1.0090  1.8466 -0.5744
  119MOL   H16626362   7.425   1.967   6.403  0.0133 -0.7796  0.7590
  119MOL   C16726363   7.402   1.589   6.499  0.3267  0.5516  0.1741
  119MOL   C16826364   7.312   1.700   6.495 -0.1190  0.1086 -0.4839
  119MOL   C16926365   7.285   1.759   6.370  0.3790 -0.0175  0.3741
  119MOL   C17026366   7.331   1.699   6.252 -0.4241 -0.1283 -0.8056
  119MOL   C17126367   7.416   1.586   6.261  1.0289 -0.8267 -0.0147
  119MOL   C17226368   7.448   1.530   6.381  0.5942 -0.0388  0.4478
  119MOL   O17326369   7.540   1.425   6.398 -0.1897  0.2517 -0.0778
  119MOL   H17426370   7.425   1.547   6.595 -0.9485  0.8147  0.6111
  119MOL   H17526371   7.293   1.754   6.587 -1.3762 -2.1210  0.6220
  119MOL   H17626372   7.305   1.745   6.158 -0.7413  1.5238  0.0796
  119MOL   H17726373   7.459   1.526   6.182  0.3464 -0.9174 -0.3126
  119MOL   C17826374   7.374   1.113   6.300  0.0219  0.2667  0.2783
  119MOL   C17926375   7.403   1.235   6.366 -0.1544 -0.5304  0.3054
  119MOL   C18026376   7.514   1.312   6.329  0.3085  0.4961 -0.2228
  119MOL   C18126377   7.603   1.266   6.230  0.2468 -0.5114 -0.6971
  119MOL   C18226378   7.572   1.146   6.161 -0.7936  0.5134 -0.0496
  119MOL   C18326379   7.462   1.069   6.197  0.3268  0.1427 -0.5222
  119MOL   O18426380   7.441   0.949   6.132 -0.1992  0.6517 -0.3175
  119MOL   H18526381   7.287   1.055   6.326  0.4180 -0.1075  0.7845
  119MOL   H18626382   7.345   1.267   6.451 -0.5858 -1.3495  0.3267
  119MOL   H18726383   7.690   1.323   6.201 -2.0411  2.7351 -1.4123
  119MOL   H18826384   7.649   1.106   6.097 -0.2295  1.0434  0.2884
  119MOL   C18926385   7.129   0.945   5.933 -0.2415  0.1352  0.6804
  119MOL   C19026386   7.219   0.971   6.039  0.2472 -0.3292  0.1518
  119MOL   C19126387   7.353   0.941   6.024 -0.1597 -0.4063  0.6210
  119MOL   C19226388   7.398   0.905   5.899 -0.6254 -0.1900  0.1995
  119MOL   C19326389   7.310   0.871   5.798 -0.1761 -1.0269 -0.1578
  119MOL   C19426390   7.177   0.900   5.809  0.2369 -0.2498 -0.6026
  119MOL   O19526391   7.102   0.887   5.699 -0.6507  0.1517 -0.2408
  119MOL   H19626392   7.023   0.965   5.933 -0.3138 -0.2143  2.1682
  119MOL   H19726393   7.191   1.020   6.131  1.9591  1.7415 -0.3994
  119MOL   H19826394   7.503   0.882   5.884 -0.0206  2.8719 -0.7181
  119MOL   H19926395   7.343   0.828   5.705  0.9226 -1.7489  0.5433
  119MOL   C20026396   7.018   0.551   5.597  0.0475 -0.0919 -0.4022
  119MOL   C20126397   7.085   0.675   5.609 -0.1205 -0.0296 -0.0338
  119MOL   C20226398   7.028   0.777   5.688  0.0397  0.0248 -0.5789
  119MOL   C20326399   6.902   0.763   5.744  0.7235  0.4892  0.6877
  119MOL   C20426400   6.835   0.633   5.732 -0.2046 -0.5540  0.2250
  119MOL   C20526401   6.890   0.533   5.656 -0.6858 -0.1421 -0.1978
  119MOL   O20626402   6.820   0.422   5.623 -0.0586  0.2989 -0.1036
  119MOL   H20726403   7.063   0.474   5.536 -0.2524 -0.3415 -0.3083
  119MOL   H20826404   7.178   0.701   5.559 -1.6796  1.6119 -2.2263
  119MOL   H20926405   6.861   0.846   5.800 -0.1131  0.5150  0.0529
  119MOL   H21026406   6.737   0.626   5.778  0.0236 -1.1527  0.6288
  119MOL   C21126407   6.471   0.382   5.569  0.7170  0.0127  0.3875
  119MOL   C21226408   6.599   0.350   5.606 -0.3430 -0.1472  0.1060
  119MOL   C21326409   6.698   0.439   5.567 -0.0242 -0.0049  0.5901
  119MOL   C21426410   6.673   0.540   5.471 -0.6351  0.1954  0.1908
  119MOL   C21526411   6.546   0.557   5.420 -0.1727  0.0883 -0.3932
  119MOL   C21626412   6.439   0.483   5.476  0.8576 -0.3396 -0.3819
  119MOL   O21726413   6.310   0.504   5.436 -0.0478  0.0445  0.1615
  119MOL   H21826414   6.408   0.301   5.602  0.3170  0.7415  1.4432
  119MOL   H21926415   6.607   0.277   5.685  0.6705 -0.8013 -0.5902
  119MOL   H22026416   6.755   0.594   5.428  0.2761 -2.6234 -1.8004
  119MOL   H22126417   6.516   0.629   5.345 -0.9952 -0.0155 -0.1701
  119MOL   H22226418   6.302   0.581   5.382 -0.7559 -0.6597 -0.7456
  120MOL     C126419   4.385   7.012   3.929  0.1687  0.3859  0.2639
  120MOL     C226420   4.312   6.905   3.874  0.1676 -0.2916  0.1459
  120MOL     C326421   4.192   6.870   3.930  0.2452 -0.8528 -0.1002
  120MOL     C426422   4.149   6.930   4.050 -0.1292 -0.5603 -0.5690
  120MOL     C526423   4.235   7.015   4.120  0.2962 -0.3345  1.1084
  120MOL     C626424   4.350   7.069   4.055  0.4506 -1.0750 -0.5131
  120MOL     O726425   4.402   7.186   4.107 -0.2714 -0.5253 -0.0690
  120MOL     H826426   4.463   7.056   3.869 -0.1752  0.9376  0.2122
  120MOL     H926427   4.345   6.856   3.783  0.3944  0.4752 -0.1841
  120MOL    H1026428   4.050   6.918   4.092 -0.3013  1.9111 -0.1644
  120MOL    H1126429   4.199   7.049   4.217 -1.1305  1.1444  0.0962
  120MOL    H1226430   4.130   6.792   3.889 -1.6668  0.2266  0.7041
  120MOL    C1326431   4.582   7.421   3.887 -0.1445 -0.2562 -0.5356
  120MOL    C1426432   4.478   7.350   3.953 -0.3532 -0.0248  0.4896
  120MOL    C1526433   4.506   7.249   4.046 -0.1291 -0.5296 -0.7712
  120MOL    C1626434   4.639   7.207   4.067  0.0574  0.2724  0.0612
  120MOL    C1726435   4.743   7.282   4.004 -0.1134  0.1655  0.5129
  120MOL    C1826436   4.714   7.387   3.915  0.1777 -0.6807  0.5137
  120MOL    O1926437   4.814   7.454   3.855  0.0255  0.0512  0.2197
  120MOL    H2026438   4.561   7.507   3.824 -0.5605  0.2439  0.2715
  120MOL    H2126439   4.375   7.384   3.946 -0.7121 -1.2313 -0.2506
  120MOL    H2226440   4.665   7.131   4.140 -0.7145  1.8210  1.9884
  120MOL    H2326441   4.842   7.252   4.033 -0.2608 -1.1675 -0.2730
  120MOL    C2426442   4.847   7.410   3.493 -0.9340  0.5798  0.9952
  120MOL    C2526443   4.792   7.453   3.616  0.2466  0.2454  0.2002
  120MOL    C2626444   4.850   7.403   3.736 -0.0406  0.0242  0.3497
  120MOL    C2726445   4.948   7.301   3.731  0.1304  0.2936  0.7524
  120MOL    C2826446   4.990   7.246   3.611  0.2279  0.1797 -0.2917
  120MOL    C2926447   4.938   7.298   3.491  0.1588 -0.4184 -0.0449
  120MOL    O3026448   4.986   7.251   3.370  0.3559  0.0501 -0.4743
  120MOL    H3126449   4.813   7.446   3.397  2.4631  0.6350 -0.2603
  120MOL    H3226450   4.725   7.538   3.616  1.8076  1.4968  0.3465
  120MOL    H3326451   4.991   7.263   3.823 -0.5700  2.6521  2.0651
  120MOL    H3426452   5.063   7.166   3.607 -0.2423 -0.1833 -2.1940
  120MOL    C3526453   4.726   7.034   3.215  0.4457  0.1742 -0.1815
  120MOL    C3626454   4.821   7.078   3.312 -0.2705  0.0186  0.0473
  120MOL    C3726455   4.896   7.196   3.284 -0.1251  1.0087  0.2855
  120MOL    C3826456   4.880   7.254   3.159  0.6194 -0.1124  0.7538
  120MOL    C3926457   4.799   7.200   3.053  0.2214 -0.6559 -0.3328
  120MOL    C4026458   4.718   7.092   3.090  0.5141 -0.4431 -0.0764
  120MOL    O4126459   4.635   7.031   2.997  0.0705  0.3332  0.1463
  120MOL    H4226460   4.657   6.955   3.237  2.0150 -0.9360  0.8218
  120MOL    H4326461   4.820   7.020   3.403  0.2164 -1.4798 -0.8875
  120MOL    H4426462   4.936   7.343   3.133 -0.8571  0.3013 -1.1191
  120MOL    H4526463   4.806   7.248   2.957 -1.2376 -1.4360 -0.8375
  120MOL    C4626464   4.305   7.175   3.048  0.0965 -0.8797  0.3454
  120MOL    C4726465   4.437   7.138   3.074 -0.2828  0.4788 -0.5184
  120MOL    C4826466   4.512   7.075   2.973 -0.5825  0.4218  0.5878
  120MOL    C4926467   4.452   7.041   2.854  0.3504 -0.1058 -0.3062
  120MOL    C5026468   4.319   7.081   2.823  0.5459  0.3816 -0.2618
  120MOL    C5126469   4.249   7.153   2.921 -0.0265 -0.1066  0.3555
  120MOL    O5226470   4.115   7.193   2.893  0.1386 -0.6342 -0.1231
  120MOL    H5326471   4.250   7.219   3.130  0.0704 -1.8848  0.8643
  120MOL    H5426472   4.479   7.151   3.173  1.3415 -0.7967 -1.0263
  120MOL    H5526473   4.517   6.987   2.787  1.9630 -0.3752  1.4575
  120MOL    H5626474   4.269   7.052   2.732 -1.0528  0.4433  0.5715
  120MOL    C5726475   3.941   7.468   2.720  0.1666  0.6461  0.1641
  120MOL    C5826476   3.983   7.341   2.757  0.1474 -0.1275 -0.3199
  120MOL    C5926477   4.100   7.317   2.837  0.5036 -0.2195  0.5227
  120MOL    C6026478   4.175   7.433   2.878 -0.1594 -0.4653  0.2229
  120MOL    C6126479   4.134   7.567   2.839 -0.8405  0.3285 -0.2596
  120MOL    C6226480   4.009   7.584   2.770 -1.3826  0.3137 -0.1371
  120MOL    O6326481   3.976   7.717   2.742  0.2360 -0.3616 -0.1989
  120MOL    H6426482   3.852   7.484   2.661  0.4780  0.2786 -0.4138
  120MOL    H6526483   3.918   7.258   2.733  1.0574 -1.0832  0.5035
  120MOL    H6626484   4.269   7.429   2.930 -1.4974  1.6386  2.9480
  120MOL    H6726485   4.203   7.647   2.861  1.0622 -1.0370 -1.2172
  120MOL    C6826486   3.763   7.828   3.012  0.0328 -0.1137  0.5736
  120MOL    C6926487   3.810   7.756   2.906 -0.3250 -0.3517 -0.2884
  120MOL    C7026488   3.938   7.789   2.853  0.0874  0.1541  0.1283
  120MOL    C7126489   4.015   7.888   2.917  0.1449 -0.1676 -0.0355
  120MOL    C7226490   3.971   7.949   3.035 -0.4873  0.4327 -0.2555
  120MOL    C7326491   3.842   7.919   3.082 -0.0771  0.0674 -0.0734
  120MOL    O7426492   3.801   7.984   3.198  0.0341 -0.7383 -0.6158
  120MOL    H7526493   3.663   7.811   3.049 -0.0585  0.9070  0.7959
  120MOL    H7626494   3.738   7.686   2.865  0.5330  0.6910 -3.6663
  120MOL    H7726495   4.112   7.912   2.876  1.1855  2.0185  3.4053
  120MOL    H7826496   4.030   8.019   3.093 -1.4294  1.0728 -0.0633
  120MOL    C7926497   3.904   7.771   3.479 -0.0466  0.0721  0.0287
  120MOL    C8026498   3.855   7.812   3.352  0.7249  0.1459  0.0559
  120MOL    C8126499   3.851   7.945   3.320 -0.4493 -0.7691  0.1615
  120MOL    C8226500   3.897   8.048   3.409 -0.0119 -0.2226  0.1313
  120MOL    C8326501   3.958   8.004   3.532 -0.4843 -0.3462  0.2281
  120MOL    C8426502   3.970   7.864   3.556  0.2214 -0.0860 -0.0611
  120MOL    O8526503   4.036   7.806   3.663  0.7623 -0.5893  0.2704
  120MOL    H8626504   3.906   7.668   3.511  0.9672  0.3215  0.7667
  120MOL    H8726505   3.806   7.735   3.293 -0.3300  0.1787  0.8737
  120MOL    H8826506   3.885   8.149   3.374 -0.4573  0.1645  1.3364
  120MOL    H8926507   3.999   8.075   3.602 -4.4182  1.8246  0.4918
  120MOL    C9026508   4.382   7.717   3.592 -0.0505  0.1937 -0.0091
  120MOL    C9126509   4.240   7.717   3.582 -0.9985  0.0711 -0.1230
  120MOL    C9226510   4.172   7.811   3.664  0.4314 -0.1346  0.1997
  120MOL    C9326511   4.241   7.897   3.751 -0.8434  0.2467 -0.7438
  120MOL    C9426512   4.377   7.894   3.759 -0.6203 -0.1262 -0.1134
  120MOL    C9526513   4.450   7.798   3.684 -0.5062  0.1131  0.0342
  120MOL    O9626514   4.587   7.795   3.688  0.5499  0.3037 -0.3263
  120MOL    H9726515   4.440   7.662   3.519 -0.3453  0.7947 -0.7125
  120MOL    H9826516   4.184   7.656   3.513 -2.4569  1.2604 -0.0191
  120MOL    H9926517   4.194   7.981   3.800  1.4609  1.9804 -1.4180
  120MOL   H10026518   4.424   7.971   3.818 -0.2634 -1.3172  1.1780
  120MOL   C10126519   4.719   7.927   3.361 -0.3571  0.6119  0.5221
  120MOL   C10226520   4.642   7.860   3.459  1.0298  0.4015  0.1247
  120MOL   C10326521   4.654   7.877   3.598  0.0426 -0.2395  0.0121
  120MOL   C10426522   4.746   7.970   3.648 -0.3447 -0.4448  0.2282
  120MOL   C10526523   4.821   8.047   3.554 -0.6609  1.2980 -0.4164
  120MOL   C10626524   4.806   8.020   3.416  0.2955 -0.8735  0.4892
  120MOL   O10726525   4.897   8.078   3.329  0.2954 -0.3585  0.1212
  120MOL   H10826526   4.696   7.903   3.258  2.6579  1.1253 -0.3380
  120MOL   H10926527   4.574   7.783   3.426 -0.1008  0.8014  1.4908
  120MOL   H11026528   4.752   7.999   3.751  2.0114  0.2551 -0.0750
  120MOL   H11126529   4.893   8.119   3.591 -0.7480  1.7490 -1.1025
  120MOL   C11226530   4.784   0.148   3.181 -0.2327 -0.0631  0.2854
  120MOL   C11326531   4.811   0.049   3.278 -0.0715  0.5901  0.0647
  120MOL   C11426532   4.853   8.178   3.240 -0.8628  0.3899 -0.1009
  120MOL   C11526533   4.870   8.143   3.110  0.7693 -0.3879 -0.8611
  120MOL   C11626534   4.832   8.239   3.017 -0.1661  0.2378 -0.0860
  120MOL   C11726535   4.777   0.110   3.045  0.5361 -0.1426 -0.6904
  120MOL   O11826536   4.738   0.200   2.944  0.3739  0.5105  0.1719
  120MOL   H11926537   4.745   0.244   3.211 -2.2883 -0.5525 -0.7771
  120MOL   H12026538   4.802   0.079   3.382  0.3492 -0.2236  0.3345
  120MOL   H12126539   4.909   8.046   3.080  0.7903  0.0867 -2.4082
  120MOL   H12226540   4.849   8.212   2.914 -0.8709  2.1091 -0.7147
  120MOL   C12326541   4.485   0.455   2.845 -0.3380 -0.0444  0.1041
  120MOL   C12426542   4.606   0.385   2.857  0.3762 -0.2279  0.5006
  120MOL   C12526543   4.628   0.280   2.948  0.1251 -0.0005  0.6348
  120MOL   C12626544   4.523   0.253   3.039 -0.0673  0.3362  0.5320
  120MOL   C12726545   4.406   0.328   3.035  0.0760 -1.1680  0.3049
  120MOL   C12826546   4.384   0.430   2.941  0.1899  0.2761 -0.1134
  120MOL   O12926547   4.262   0.500   2.944  0.1562 -0.0161  0.1952
  120MOL   H13026548   4.466   0.521   2.762  2.1478  1.5559  0.7529
  120MOL   H13126549   4.681   0.407   2.783  0.5380 -1.2151  0.3524
  120MOL   H13226550   4.517   0.175   3.113 -3.2949  1.5994  1.7126
  120MOL   H13326551   4.320   0.308   3.097 -0.8666 -1.8881 -1.2016
  120MOL   C13426552   4.147   0.835   2.848 -0.3867 -0.5135  0.1258
  120MOL   C13526553   4.141   0.695   2.872  0.4082 -0.6709  0.8999
  120MOL   C13626554   4.259   0.637   2.924  0.0027  0.0123 -0.5051
  120MOL   C13726555   4.372   0.714   2.969 -0.2672 -0.4408  1.0432
  120MOL   C13826556   4.365   0.853   2.975 -0.1758 -0.1879 -0.4722
  120MOL   C13926557   4.253   0.909   2.901  0.0199  0.1616  0.2527
  120MOL   O14026558   4.244   1.046   2.871  0.0322  0.8217 -0.0424
  120MOL   H14126559   4.067   0.870   2.785 -0.5172  2.8184  2.0562
  120MOL   H14226560   4.058   0.634   2.839  0.0078  0.3903 -0.0637
  120MOL   H14326561   4.459   0.675   3.021  0.1063 -0.6104  0.2938
  120MOL   H14426562   4.446   0.917   3.003 -0.7424  0.9658 -1.4140
  120MOL   C14526563   4.293   1.295   3.143  0.0017 -0.5926 -0.9801
  120MOL   C14626564   4.321   1.194   3.044  0.6008 -0.2559  0.4403
  120MOL   C14726565   4.211   1.130   2.975  0.5100  0.4849 -0.4136
  120MOL   C14826566   4.079   1.159   3.014 -0.3808 -0.3987  0.3794
  120MOL   C14926567   4.052   1.252   3.119  0.7505 -0.4120  0.0969
  120MOL   C15026568   4.160   1.322   3.178  0.3589 -0.1229 -0.3931
  120MOL   O15126569   4.142   1.425   3.269  0.1901  0.4155 -0.1838
  120MOL   H15226570   4.375   1.338   3.199 -0.2040 -1.5311  0.0691
  120MOL   H15326571   4.420   1.157   3.023  0.6325  1.5316 -2.7574
  120MOL   H15426572   4.008   1.098   2.960 -0.2319 -1.7085  1.6170
  120MOL   H15526573   3.948   1.276   3.137  0.1734 -2.7978  0.0863
  120MOL   C15626574   4.168   1.739   3.074 -0.2027 -0.6714 -0.3902
  120MOL   C15726575   4.137   1.603   3.106 -0.1454  0.0425  0.0372
  120MOL   C15826576   4.176   1.549   3.225  0.2820  0.1540 -0.1045
  120MOL   C15926577   4.262   1.624   3.312  0.5309  0.1465 -0.2000
  120MOL   C16026578   4.276   1.763   3.290  0.3728  0.2091  0.1984
  120MOL   C16126579   4.237   1.819   3.166  0.1028  0.5523 -0.2068
  120MOL   O16226580   4.249   1.950   3.149  0.7848 -0.1742  0.0473
  120MOL   H16326581   4.149   1.765   2.971 -0.3074 -2.5501 -0.8663
  120MOL   H16426582   4.072   1.553   3.036  0.4215  0.7553 -1.0299
  120MOL   H16526583   4.303   1.581   3.403 -0.3923  1.3279  0.8039
  120MOL   H16626584   4.338   1.813   3.363  0.4272  1.0864 -0.4406
  120MOL   C16726585   4.491   1.960   2.853 -0.8059  0.0632 -0.9203
  120MOL   C16826586   4.419   1.914   2.969 -0.7377 -0.0201 -0.4030
  120MOL   C16926587   4.317   1.991   3.036  0.2252  0.7663 -0.1896
  120MOL   C17026588   4.284   2.118   2.981 -0.1430 -0.0897  0.1545
  120MOL   C17126589   4.359   2.163   2.870 -0.4612  0.3386 -0.5327
  120MOL   C17226590   4.457   2.083   2.803 -0.3908 -0.2383 -0.1356
  120MOL   O17326591   4.531   2.128   2.699  0.4932  0.4647 -0.8769
  120MOL   H17426592   4.556   1.886   2.808  1.9834  0.3641  2.3433
  120MOL   H17526593   4.446   1.815   3.004  0.4446  0.7253  0.8559
  120MOL   H17626594   4.215   2.184   3.033 -1.0164 -0.8074 -0.0737
  120MOL   H17726595   4.336   2.261   2.830  0.6028  1.2120  0.9563
  120MOL   C17826596   4.374   2.366   2.438 -0.4074 -0.3461 -0.2306
  120MOL   C17926597   4.464   2.312   2.536  0.5833 -0.1355 -0.6794
  120MOL   C18026598   4.455   2.178   2.588  0.4794  0.0760 -1.1989
  120MOL   C18126599   4.361   2.092   2.526  0.6058 -0.1845 -0.1843
  120MOL   C18226600   4.283   2.136   2.421  0.3575 -0.6840  0.1123
  120MOL   C18326601   4.285   2.273   2.380  0.6318  0.5200 -0.1865
  120MOL   O18426602   4.194   2.311   2.284  0.2432 -0.5859  0.0192
  120MOL   H18526603   4.377   2.471   2.411 -0.1904  0.2936  2.1430
  120MOL   H18626604   4.529   2.384   2.584 -1.7141  0.5569  1.4897
  120MOL   H18726605   4.358   1.990   2.560  1.3464 -0.6351 -1.4635
  120MOL   H18826606   4.220   2.066   2.369 -1.1160  0.7095 -0.0365
  120MOL   C18926607   4.216   2.103   1.988 -0.1062 -0.5270 -0.9013
  120MOL   C19026608   4.187   2.148   2.116 -0.3238  0.4464  0.5460
  120MOL   C19126609   4.237   2.272   2.159  0.4030 -0.4002 -0.4403
  120MOL   C19226610   4.311   2.354   2.074 -0.3813  0.5929  0.4930
  120MOL   C19326611   4.342   2.308   1.947  0.5218 -0.1000  0.3592
  120MOL   C19426612   4.296   2.183   1.904  0.1685  0.0984  0.2209
  120MOL   O19526613   4.323   2.133   1.772  0.1400 -0.3119  0.0976
  120MOL   H19626614   4.186   2.003   1.961 -1.1028 -0.1890 -1.0751
  120MOL   H19726615   4.129   2.086   2.183 -0.3921  0.8328  0.8473
  120MOL   H19826616   4.352   2.446   2.113  1.2829  0.4170 -0.7800
  120MOL   H19926617   4.398   2.374   1.882  0.1880 -1.0517 -0.9209
  120MOL   C20026618   4.704   2.107   1.774 -0.1282 -0.4712  0.6320
  120MOL   C20126619   4.566   2.093   1.816 -0.8844 -0.3892 -0.6827
  120MOL   C20226620   4.455   2.140   1.735  0.4389 -0.2035 -0.7243
  120MOL   C20326621   4.486   2.205   1.614 -0.1455 -0.2118 -0.4322
  120MOL   C20426622   4.621   2.214   1.573 -0.0884 -1.1145  0.6758
  120MOL   C20526623   4.730   2.157   1.643  0.0800  0.3501 -0.7730
  120MOL   O20626624   4.858   2.167   1.609 -0.0692  0.0200 -0.5781
  120MOL   H20726625   4.773   2.065   1.846 -1.7972 -2.7437  0.9662
  120MOL   H20826626   4.554   2.042   1.910  1.0361  1.8479  0.8397
  120MOL   H20926627   4.408   2.249   1.554  0.4016  1.9747  0.3921
  120MOL   H21026628   4.640   2.266   1.480  0.1974 -1.4593  0.5405
  120MOL   C21126629   5.048   2.218   1.302  0.1657  0.4787 -0.2337
  120MOL   C21226630   5.009   2.229   1.439 -0.0890 -0.7520  0.6962
  120MOL   C21326631   4.903   2.153   1.482  0.1805  0.2164  0.3771
  120MOL   C21426632   4.854   2.045   1.404  0.1160  0.4114  0.3103
  120MOL   C21526633   4.900   2.024   1.269  0.3789 -0.6153 -0.4061
  120MOL   C21626634   4.992   2.122   1.219 -0.7571 -0.7156  0.7851
  120MOL   O21726635   5.033   2.109   1.093 -0.0163  0.0980  0.4393
  120MOL   H21826636   5.118   2.294   1.271  0.9904 -0.6387 -1.1576
  120MOL   H21926637   5.066   2.296   1.501 -1.7682  1.0426  0.3838
  120MOL   H22026638   4.781   1.975   1.441  1.5045 -1.3815 -0.2345
  120MOL   H22126639   4.866   1.944   1.206 -0.8771  0.2121 -0.8089
  120MOL   H22226640   5.059   2.197   1.070 -0.4072  0.1513  0.2012
  121MOL     C126641   1.024   2.333   4.277 -0.0307  0.2835  0.0613
  121MOL     C226642   1.093   2.429   4.196 -0.5733  0.8594  0.0734
  121MOL     C326643   1.018   2.545   4.161  1.0720 -2.0547 -0.3091
  121MOL     C426644   0.894   2.572   4.221 -0.3387  0.8054  0.2121
  121MOL     C526645   0.836   2.472   4.307  1.1937  0.1548  0.2029
  121MOL     C626646   0.902   2.350   4.339  0.0640 -0.6274 -0.2820
  121MOL     O726647   0.851   2.256   4.422 -0.1207 -0.7050  0.1282
  121MOL     H826648   1.075   2.240   4.298  1.0708 -0.0363 -3.6012
  121MOL     H926649   1.189   2.413   4.150 -0.1340  0.1984  1.1922
  121MOL    H1026650   0.838   2.657   4.186 -0.7583  0.7183  0.6702
  121MOL    H1126651   0.734   2.481   4.340  0.3755 -0.3163 -2.1226
  121MOL    H1226652   1.068   2.625   4.107 -2.5894  0.4716 -0.1405
  121MOL    C1326653   0.808   2.340   4.768 -0.8935 -0.4339 -0.4183
  121MOL    C1426654   0.813   2.353   4.633 -0.0855  0.5323  0.0006
  121MOL    C1526655   0.887   2.257   4.553  0.1667  0.0486 -0.1239
  121MOL    C1626656   0.951   2.152   4.613 -0.2627 -0.1027 -0.3899
  121MOL    C1726657   0.937   2.143   4.750 -0.7748  0.1025  0.3945
  121MOL    C1826658   0.868   2.228   4.831 -0.2802  0.4415 -0.1291
  121MOL    O1926659   0.855   2.191   4.968  0.1339  0.3269 -0.6011
  121MOL    H2026660   0.746   2.412   4.820  1.9666  0.6573  1.6456
  121MOL    H2126661   0.747   2.429   4.595  0.6505  2.3946  2.4042
  121MOL    H2226662   0.988   2.072   4.551 -1.6743 -1.1731  0.1112
  121MOL    H2326663   0.987   2.062   4.801  1.6703 -0.4150 -2.6514
  121MOL    C2426664   0.538   2.336   5.109 -0.1195 -0.0440 -0.7278
  121MOL    C2526665   0.627   2.258   5.026 -0.3852 -0.8901 -0.1907
  121MOL    C2626666   0.766   2.253   5.052 -0.0031 -0.6215 -0.0626
  121MOL    C2726667   0.809   2.312   5.173  0.3819 -0.3931 -0.7498
  121MOL    C2826668   0.730   2.395   5.249 -0.1839 -0.0339 -0.6280
  121MOL    C2926669   0.594   2.402   5.225  0.1889  0.3072 -0.0877
  121MOL    O3026670   0.511   2.475   5.305  0.0963  0.0605 -0.1074
  121MOL    H3126671   0.433   2.335   5.085 -0.1728 -1.5486 -0.4467
  121MOL    H3226672   0.585   2.208   4.940 -2.3299 -1.5142  1.0852
  121MOL    H3326673   0.913   2.303   5.201  0.0638 -0.8109  0.3247
  121MOL    H3426674   0.779   2.447   5.330 -2.9896  0.7540  0.6083
  121MOL    C3526675   0.555   2.488   5.670  0.4853 -0.1325  0.0979
  121MOL    C3626676   0.554   2.529   5.538  0.1300 -0.7463 -0.6464
  121MOL    C3726677   0.509   2.440   5.441 -0.2734  0.6947  0.8115
  121MOL    C3826678   0.466   2.307   5.483  0.2689 -0.1323 -0.0560
  121MOL    C3926679   0.463   2.271   5.620  0.0572  0.0390 -0.1724
  121MOL    C4026680   0.507   2.367   5.711 -0.0618  0.2444 -0.2844
  121MOL    O4126681   0.504   2.335   5.845  0.2606  0.3094 -0.3961
  121MOL    H4226682   0.576   2.559   5.749 -0.4841 -1.3617  1.4809
  121MOL    H4326683   0.588   2.628   5.515 -0.1140 -0.5771 -0.2890
  121MOL    H4426684   0.418   2.238   5.416 -0.3732 -1.1607  1.4307
  121MOL    H4526685   0.425   2.175   5.651 -0.8826  0.5034  0.1126
  121MOL    C4626686   0.212   2.211   6.030 -0.0420 -0.1589  0.5353
  121MOL    C4726687   0.341   2.217   5.969 -0.3701 -0.1779 -0.0506
  121MOL    C4826688   0.387   2.335   5.910  0.0348 -0.1191  0.5855
  121MOL    C4926689   0.303   2.450   5.921  0.5332  0.0705 -0.2611
  121MOL    C5026690   0.175   2.443   5.982  0.0159  0.2427 -0.1762
  121MOL    C5126691   0.130   2.323   6.039 -0.6815  0.0336 -0.4507
  121MOL    O5226692   8.254   2.333   6.096  0.2787 -0.5324 -0.2881
  121MOL    H5326693   0.180   2.118   6.074 -0.2262  0.1869  1.1221
  121MOL    H5426694   0.400   2.127   5.957  2.0266  1.4541 -0.9951
  121MOL    H5526695   0.335   2.544   5.878 -0.9132  0.6015 -0.1862
  121MOL    H5626696   0.107   2.527   5.981 -1.2107 -0.7306  0.0547
  121MOL    C5726697   8.141   2.325   6.448  0.8778 -0.2930  0.2449
  121MOL    C5826698   8.165   2.298   6.313  0.4260 -0.0537  0.0740
  121MOL    C5926699   8.251   2.372   6.230  0.0469  0.0718  0.5700
  121MOL    C6026700   0.079   2.471   6.290  0.8884  0.8433  0.9345
  121MOL    C6126701   0.052   2.501   6.425 -0.2040  0.2639  0.2537
  121MOL    C6226702   8.212   2.429   6.502 -0.2166  0.0315 -0.1917
  121MOL    O6326703   8.220   2.450   6.641 -0.0883 -0.2643 -0.0319
  121MOL    H6426704   8.087   2.253   6.506 -0.3607 -0.4985 -1.1262
  121MOL    H6526705   8.116   2.217   6.261 -0.5640  1.0750 -0.7670
  121MOL    H6626706   0.156   2.531   6.244 -0.3432  0.7545 -1.3347
  121MOL    H6726707   0.108   2.580   6.474  1.1812 -1.5097  1.5952
  121MOL    C6826708   7.864   2.485   6.757  0.5493  0.0694 -0.0033
  121MOL    C6926709   7.982   2.501   6.686 -0.5213  0.1019  0.1179
  121MOL    C7026710   8.107   2.443   6.724  0.3764  0.1199 -0.3823
  121MOL    C7126711   8.114   2.380   6.855 -0.2589  0.2044  0.2359
  121MOL    C7226712   7.993   2.368   6.926  0.3010 -0.8822 -0.4664
  121MOL    C7326713   7.871   2.421   6.880  0.5782  0.2356 -0.2947
  121MOL    O7426714   7.761   2.424   6.957 -0.1590  0.1979 -0.3511
  121MOL    H7526715   7.772   2.516   6.711  0.9419  1.4106  0.0906
  121MOL    H7626716   7.978   2.547   6.589 -0.3365  1.1587  0.6069
  121MOL    H7726717   8.211   2.339   6.881 -1.4894 -1.8340  1.7637
  121MOL    H7826718   7.983   2.322   7.024 -0.2153 -0.9127 -0.5309
  121MOL    C7926719   7.573   2.117   6.907  0.0731  0.5453  0.2462
  121MOL    C8026720   7.645   2.230   6.880 -0.6199  0.2460 -0.0133
  121MOL    C8126721   7.687   2.312   6.984  0.0499  0.4327  0.3091
  121MOL    C8226722   7.663   2.275   7.120  0.1336 -0.1193 -0.2606
  121MOL    C8326723   7.579   2.161   7.147 -0.5791 -0.2488  0.2521
  121MOL    C8426724   7.540   2.077   7.035  0.4232  0.2474 -0.5255
  121MOL    O8526725   7.464   1.959   7.046  0.2160  0.4320  0.6248
  121MOL    H8626726   7.549   2.057   6.821 -0.9040 -1.3906  1.8024
  121MOL    H8726727   7.670   2.261   6.780 -2.1906 -1.8645 -1.1054
  121MOL    H8826728   7.697   2.346   7.193 -1.1398  0.8629 -0.6009
  121MOL    H8926729   7.559   2.147   7.252 -2.2557  2.7699  0.3807
  121MOL    C9026730   7.109   2.057   7.038 -0.9138 -0.5561  0.0938
  121MOL    C9126731   7.246   2.037   6.994  0.1741 -0.9971  0.0987
  121MOL    C9226732   7.334   1.978   7.093  0.4851  0.7772  0.5810
  121MOL    C9326733   7.296   1.936   7.221 -0.5417 -0.9925  0.3751
  121MOL    C9426734   7.165   1.963   7.259  0.4687  0.0559 -0.0181
  121MOL    C9526735   7.073   2.018   7.170 -0.3576  0.4224 -0.5247
  121MOL    O9626736   6.941   2.027   7.209  0.1875 -0.3388 -0.3356
  121MOL    H9726737   7.037   2.106   6.974 -1.1319 -0.2291  0.5909
  121MOL    H9826738   7.283   2.078   6.901  1.7903 -0.5845  0.9258
  121MOL    H9926739   7.368   1.892   7.287  2.1435  0.8714 -1.1949
  121MOL   H10026740   7.129   1.926   7.354  2.2548 -1.2498  0.1708
  121MOL   C10126741   6.734   2.330   7.147 -0.1125 -0.0923  0.0317
  121MOL   C10226742   6.782   2.196   7.141  0.0892  0.8658 -0.2315
  121MOL   C10326743   6.890   2.157   7.223 -0.8725 -0.0391  0.2987
  121MOL   C10426744   6.940   2.244   7.323 -0.2036  0.5761 -0.0817
  121MOL   C10526745   6.893   2.378   7.327  0.1068  0.4928  0.7583
  121MOL   C10626746   6.796   2.420   7.235  0.1414 -0.9811 -0.2321
  121MOL   O10726747   6.743   2.550   7.234  0.8934 -1.0273 -0.3950
  121MOL   H10826748   6.666   2.372   7.074  1.8009  2.5223 -0.3422
  121MOL   H10926749   6.737   2.115   7.084  1.2337  0.9897 -1.3296
  121MOL   H11026750   7.023   2.209   7.382 -0.1513  0.1683 -0.3945
  121MOL   H11126751   6.935   2.443   7.403 -0.2278  2.1450 -0.4490
  121MOL   C11226752   6.949   2.849   7.188  0.0445  0.7702 -0.2013
  121MOL   C11326753   6.905   2.734   7.250 -0.2398  0.2444 -0.0937
  121MOL   C11426754   6.824   2.642   7.177  0.7085 -0.2130  0.5992
  121MOL   C11526755   6.820   2.659   7.039  0.5331  0.5993 -0.4955
  121MOL   C11626756   6.875   2.765   6.966 -0.7972 -0.3387 -0.0941
  121MOL   C11726757   6.935   2.864   7.049  0.6140 -0.6918  0.1157
  121MOL   O11826758   6.950   2.991   6.991 -0.1074 -0.7475 -0.2688
  121MOL   H11926759   6.987   2.932   7.245 -0.2555  0.5864  0.2633
  121MOL   H12026760   6.914   2.730   7.358 -1.5256  0.8466  0.0416
  121MOL   H12126761   6.766   2.583   6.984  0.7087  0.8931 -1.0750
  121MOL   H12226762   6.868   2.782   6.860 -3.9689 -1.6366 -0.1510
  121MOL   C12326763   6.885   3.326   7.129 -0.3482 -0.4913  0.2961
  121MOL   C12426764   6.946   3.212   7.062 -0.3470 -0.6528  0.1621
  121MOL   C12526765   6.880   3.093   7.046  0.2794 -0.5070 -0.2987
  121MOL   C12626766   6.749   3.085   7.085  0.2819  0.5089 -0.0197
  121MOL   C12726767   6.687   3.192   7.150 -0.1483 -0.4625  0.0688
  121MOL   C12826768   6.759   3.305   7.184  0.3715 -0.6686  0.3738
  121MOL   O12926769   6.693   3.406   7.250  0.4635  0.8899 -0.2988
  121MOL   H13026770   6.935   3.422   7.132  2.0657 -1.6325 -1.6751
  121MOL   H13126771   7.043   3.226   7.018 -1.4040  0.8903 -1.7530
  121MOL   H13226772   6.689   2.996   7.071 -1.3923  1.9820 -2.7252
  121MOL   H13326773   6.584   3.175   7.175  0.5328 -1.9966  1.9967
  121MOL   C13426774   6.622   3.263   7.595  0.1882 -0.4545 -0.7659
  121MOL   C13526775   6.683   3.275   7.471 -0.6185 -0.1420  0.2952
  121MOL   C13626776   6.654   3.385   7.384  0.6565 -0.5247 -0.1692
  121MOL   C13726777   6.570   3.484   7.439 -0.2933  0.8575 -0.0161
  121MOL   C13826778   6.508   3.472   7.565  0.0359 -0.0075  0.3977
  121MOL   C13926779   6.528   3.355   7.640 -0.7204  0.3479  0.0095
  121MOL   O14026780   6.464   3.347   7.760 -0.0292  0.5184  0.1061
  121MOL   H14126781   6.639   3.183   7.666 -2.3958 -0.5445 -0.2007
  121MOL   H14226782   6.742   3.193   7.432  0.7969  1.8047 -1.7572
  121MOL   H14326783   6.547   3.570   7.378  0.9468  1.4124  0.2761
  121MOL   H14426784   6.445   3.552   7.601  0.9197  0.9075 -0.0447
  121MOL   C14526785   6.673   3.513   8.017 -0.0616 -0.2010 -0.2369
  121MOL   C14626786   6.632   3.433   7.906 -0.8036  0.0462 -0.0853
  121MOL   C14726787   6.503   3.442   7.848  0.1227 -0.3356 -0.6485
  121MOL   C14826788   6.414   3.537   7.905 -0.5395  0.4894 -0.8911
  121MOL   C14926789   6.459   3.624   8.009  0.2096 -0.7817  0.4789
  121MOL   C15026790   6.588   3.615   8.061  0.5241 -0.2864  0.6250
  121MOL   O15126791   6.649   3.706   8.139  0.3312  0.0282 -0.1353
  121MOL   H15226792   6.774   3.507   8.053 -0.3938 -0.2829  0.7161
  121MOL   H15326793   6.701   3.357   7.874  0.0876  0.2327  1.3607
  121MOL   H15426794   6.310   3.549   7.877 -0.5872  0.0008 -0.9271
  121MOL   H15526795   6.391   3.691   8.059 -0.0844 -0.5097 -0.2837
  121MOL   C15626796   6.570   4.053   8.078  0.2007 -0.2448  1.0547
  121MOL   C15726797   6.620   3.926   8.062 -0.6818 -0.3884  0.8070
  121MOL   C15826798   6.592   3.828   8.153 -0.5550  0.9262 -0.0690
  121MOL   C15926799   6.513   3.867   0.009  0.1643  0.2981  0.0494
  121MOL   C16026800   6.446   3.988   0.016 -0.5718  0.0462 -0.7159
  121MOL   C16126801   6.472   4.084   8.174 -0.2255 -0.4199  0.5323
  121MOL   O16226802   6.408   4.208   8.174 -0.9526 -0.0740 -0.0575
  121MOL   H16326803   6.601   4.118   7.997 -1.1439 -2.1725 -1.0871
  121MOL   H16426804   6.675   3.903   7.972 -0.3123 -3.0626  1.6989
  121MOL   H16526805   6.487   3.795   0.085  2.0821  0.5438  0.9579
  121MOL   H16626806   6.365   4.010   0.084  0.9144  2.0517  0.4790
  121MOL   C16726807   6.117   4.297   0.131 -0.4229  0.1867  0.3982
  121MOL   C16826808   6.252   4.284   0.087 -0.5807 -0.5883 -0.7116
  121MOL   C16926809   6.281   4.225   8.220 -0.6613  0.0448  0.4004
  121MOL   C17026810   6.170   4.197   8.136 -0.1206 -0.0291 -0.2750
  121MOL   C17126811   6.037   4.226   8.169  0.1468 -0.1237 -1.2642
  121MOL   C17226812   6.009   4.269   0.044 -0.5685 -0.1241 -0.2203
  121MOL   O17326813   5.872   4.275   0.075 -0.5819  0.2622 -0.0876
  121MOL   H17426814   6.098   4.334   0.231  2.6033 -1.8271  1.8149
  121MOL   H17526815   6.335   4.321   0.145 -0.7816 -0.8326 -0.2694
  121MOL   H17626816   6.189   4.160   8.036  0.3420  0.3099 -0.3138
  121MOL   H17726817   5.952   4.210   8.104 -1.3889  1.0335  0.4096
  121MOL   C17826818   5.720   4.577   0.217 -0.0857  0.1419  0.9604
  121MOL   C17926819   5.791   4.494   0.128  0.0643 -0.2753  0.2206
  121MOL   C18026820   5.827   4.363   0.163 -0.0020 -0.2056 -0.4854
  121MOL   C18126821   5.790   4.319   0.286 -0.4783  0.1558 -0.1279
  121MOL   C18226822   5.727   4.403   0.379  0.0729 -0.1498  0.7181
  121MOL   C18326823   5.690   4.534   0.347  0.1995  0.2551 -0.0706
  121MOL   O18426824   5.623   4.626   0.434  0.9253  0.2753 -0.4658
  121MOL   H18526825   5.689   4.677   0.191  0.4809  0.2035  0.5045
  121MOL   H18626826   5.812   4.536   0.031 -1.7889  1.2854  0.4675
  121MOL   H18726827   5.821   4.221   0.318 -2.0710 -0.4887 -0.5144
  121MOL   H18826828   5.694   4.355   0.470 -2.7803 -0.8818 -0.6425
  121MOL   C18926829   5.468   4.477   0.734 -0.4169  0.3508  0.0734
  121MOL   C19026830   5.489   4.525   0.605  0.5108 -0.0926 -0.1195
  121MOL   C19126831   5.609   4.585   0.568 -0.1962 -0.1356  0.4633
  121MOL   C19226832   5.717   4.594   0.664 -0.2194 -0.4626  1.1321
  121MOL   C19326833   5.691   4.543   0.791  0.0450  0.3146  0.1465
  121MOL   C19426834   5.568   4.485   0.829  0.0550 -0.8440  0.7142
  121MOL   O19526835   5.553   4.433   0.955 -0.3642 -0.2896  0.4809
  121MOL   H19626836   5.371   4.440   0.763  0.6175 -1.0010  1.9633
  121MOL   H19726837   5.409   4.526   0.532 -0.1966 -0.6766  0.6473
  121MOL   H19826838   5.806   4.651   0.646 -0.5499 -0.4795 -0.6065
  121MOL   H19926839   5.767   4.546   0.867 -0.8558 -2.5591  1.2095
  121MOL   C20026840   5.754   4.533   1.253  0.4779 -0.3169 -0.4519
  121MOL   C20126841   5.706   4.466   1.137 -0.3360 -0.2814 -0.5169
  121MOL   C20226842   5.587   4.505   1.069  0.2015 -0.8346  0.7336
  121MOL   C20326843   5.528   4.626   1.106  0.8332  0.9399  0.1003
  121MOL   C20426844   5.566   4.696   1.222  0.0903  0.4166 -0.2079
  121MOL   C20526845   5.680   4.651   1.293  0.8776  0.0979 -0.6055
  121MOL   O20626846   5.733   4.727   1.391  0.0364 -0.3280  0.5962
  121MOL   H20726847   5.835   4.495   1.314 -0.4812 -0.3581  0.8310
  121MOL   H20826848   5.762   4.383   1.096  1.5240  1.7463 -2.2036
  121MOL   H20926849   5.445   4.658   1.045 -0.7831 -1.0652  1.1654
  121MOL   H21026850   5.512   4.785   1.249 -2.2197 -0.7659 -0.8129
  121MOL   C21126851   5.907   4.601   1.684  0.0248  0.4600 -0.4466
  121MOL   C21226852   5.879   4.663   1.562 -0.3435  0.7481 -0.0084
  121MOL   C21326853   5.753   4.660   1.505 -0.1626  0.1001 -0.1337
  121MOL   C21426854   5.644   4.608   1.574  0.3752  0.1775 -0.3202
  121MOL   C21526855   5.661   4.560   1.700 -0.3866  0.3104  0.3505
  121MOL   C21626856   5.791   4.549   1.755 -0.4752 -0.3246  0.4772
  121MOL   O21726857   5.808   4.515   1.884 -0.1014  0.2427 -0.4285
  121MOL   H21826858   6.003   4.617   1.731 -0.3520 -0.8479  0.8132
  121MOL   H21926859   5.946   4.726   1.505 -2.7473  1.9088 -1.6517
  121MOL   H22026860   5.550   4.626   1.524  0.2126 -0.3023 -0.1806
  121MOL   H22126861   5.570   4.540   1.753 -0.3631 -0.9397 -0.0622
  121MOL   H22226862   5.728   4.492   1.927  0.2570  0.6759  0.4702
  122MOL     C126863   0.179   3.531   3.379 -0.6193 -0.4906 -0.1561
  122MOL     C226864   0.185   3.660   3.437 -0.4570  0.3300 -0.5746
  122MOL     C326865   0.309   3.710   3.490 -0.5637 -0.3135 -0.2975
  122MOL     C426866   0.418   3.622   3.505  0.4480 -0.2333  0.4935
  122MOL     C526867   0.403   3.488   3.469  0.0406  0.1980  0.4361
  122MOL     C626868   0.292   3.443   3.395 -0.3952 -0.0710 -0.3521
  122MOL     O726869   0.295   3.318   3.337  0.6980  0.2872  0.5552
  122MOL     H826870   0.088   3.498   3.330 -2.1925  2.6791  0.4726
  122MOL     H926871   0.106   3.733   3.435 -1.4248 -0.7203 -2.2005
  122MOL    H1026872   0.510   3.660   3.548  1.0964  0.9135 -1.8247
  122MOL    H1126873   0.497   3.435   3.475  0.2819  0.7189  1.2506
  122MOL    H1226874   0.312   3.813   3.521 -0.5470 -0.0187 -1.2628
  122MOL    C1326875   0.556   3.060   3.325 -0.4757 -0.1427  0.3416
  122MOL    C1426876   0.469   3.162   3.285 -0.2483  0.0986  0.2492
  122MOL    C1526877   0.384   3.222   3.378  0.2047 -0.7558 -0.3538
  122MOL    C1626878   0.384   3.181   3.510 -0.0714 -0.2711  0.0369
  122MOL    C1726879   0.480   3.094   3.554  0.1366  0.3409 -0.0492
  122MOL    C1826880   0.572   3.035   3.462  0.0858 -0.4179  0.2026
  122MOL    O1926881   0.670   2.956   3.507  0.2418  0.0241  0.4318
  122MOL    H2026882   0.627   3.010   3.260  0.0345  2.6149 -1.2760
  122MOL    H2126883   0.446   3.190   3.183 -0.7740 -1.2625 -0.0120
  122MOL    H2226884   0.324   3.234   3.583 -0.7778 -1.1874  0.1376
  122MOL    H2326885   0.497   3.081   3.660  0.9857 -1.8179 -0.4168
  122MOL    C2426886   0.549   2.607   3.570 -0.9645  0.1943 -0.8165
  122MOL    C2526887   0.599   2.720   3.500  0.2211  0.2639  0.2625
  122MOL    C2626888   0.637   2.839   3.568 -1.3105  0.7585  0.3061
  122MOL    C2726889   0.623   2.837   3.708  0.5481 -0.6097 -0.1882
  122MOL    C2826890   0.575   2.725   3.779 -0.4793 -0.7371  0.6083
  122MOL    C2926891   0.548   2.608   3.709  0.2179  0.1314  0.2002
  122MOL    O3026892   0.510   2.501   3.783  0.4938 -0.4947  0.3584
  122MOL    H3126893   0.534   2.513   3.519 -1.7888  0.0674 -0.3532
  122MOL    H3226894   0.609   2.715   3.393 -0.3442  0.3692  0.2059
  122MOL    H3326895   0.647   2.919   3.773 -1.6507 -0.1189  0.0339
  122MOL    H3426896   0.571   2.725   3.887 -0.8709 -0.8989  0.5966
  122MOL    C3526897   0.784   2.296   3.920  0.2284 -0.3772  0.2832
  122MOL    C3626898   0.706   2.412   3.889 -0.1563 -0.5332 -0.1499
  122MOL    C3726899   0.590   2.394   3.812  0.0891  0.4420 -0.1033
  122MOL    C3826900   0.549   2.268   3.770  0.4046  0.4562  0.0912
  122MOL    C3926901   0.631   2.158   3.789  0.7893  0.2433  0.2544
  122MOL    C4026902   0.748   2.168   3.865  0.3134 -0.2474  0.3048
  122MOL    O4126903   0.830   2.058   3.877  0.3104 -0.0924 -0.2485
  122MOL    H4226904   0.870   2.294   3.985 -0.5285 -1.6583  1.2659
  122MOL    H4326905   0.744   2.508   3.920  0.2257 -0.3313 -1.2217
  122MOL    H4426906   0.457   2.258   3.714 -0.1966  2.5378  0.6754
  122MOL    H4526907   0.604   2.070   3.731 -1.2595  0.8594  0.2205
  122MOL    C4626908   0.718   1.852   4.155 -0.5946  0.3653 -0.4247
  122MOL    C4726909   0.721   1.916   4.031  0.4784 -0.3128  0.6386
  122MOL    C4826910   0.832   1.999   4.001 -0.0616  0.0038 -0.1421
  122MOL    C4926911   0.942   2.023   4.091  0.7010 -0.1726  0.1683
  122MOL    C5026912   0.929   1.966   4.216  0.5552  0.5128  0.0190
  122MOL    C5126913   0.820   1.880   4.249  0.4068  0.0483 -0.9003
  122MOL    O5226914   0.825   1.824   4.371  0.0367  0.2070 -0.6796
  122MOL    H5326915   0.640   1.785   4.186 -1.3449  0.4182 -2.1477
  122MOL    H5426916   0.635   1.915   3.966  0.7953  1.1103  0.1866
  122MOL    H5526917   1.024   2.085   4.058 -1.8381  2.9814 -0.4310
  122MOL    H5626918   1.003   1.981   4.292 -0.2659  0.7216  0.7901
  122MOL    C5726919   0.994   1.493   4.355  0.8946  0.0735 -0.2440
  122MOL    C5826920   0.974   1.629   4.355 -0.5911  0.0384 -0.2639
  122MOL    C5926921   0.847   1.691   4.382 -0.1760 -0.8558  0.3429
  122MOL    C6026922   0.743   1.612   4.419  0.2491  0.7660  0.1821
  122MOL    C6126923   0.763   1.470   4.426  0.7292 -0.8874  0.3003
  122MOL    C6226924   0.889   1.409   4.397 -0.2576 -0.0251 -0.0045
  122MOL    O6326925   0.899   1.270   4.406 -0.6472 -0.6381 -0.7230
  122MOL    H6426926   1.094   1.464   4.328  0.8465 -0.2129 -0.1207
  122MOL    H6526927   1.057   1.685   4.314 -0.5253  0.7431  0.7966
  122MOL    H6626928   0.646   1.659   4.424  1.1118  2.4771  0.8958
  122MOL    H6726929   0.679   1.411   4.459 -0.1031 -0.0706 -0.3353
  122MOL    C6826930   1.076   1.167   4.704  0.0289 -0.2018 -0.7492
  122MOL    C6926931   0.975   1.222   4.623 -0.5956  0.2179 -0.6386
  122MOL    C7026932   0.999   1.221   4.483 -0.4177  0.2330  0.1424
  122MOL    C7126933   1.111   1.159   4.426  0.2921  0.1071 -0.8521
  122MOL    C7226934   1.217   1.113   4.511  0.2522 -0.4559 -0.1431
  122MOL    C7326935   1.193   1.104   4.647 -0.7342 -0.8533 -0.5351
  122MOL    O7426936   1.294   1.046   4.724 -0.3504  0.0537 -0.4180
  122MOL    H7526937   1.054   1.176   4.810  0.8672  0.9022 -0.6663
  122MOL    H7626938   0.894   1.283   4.660  0.5873  1.1404  0.4911
  122MOL    H7726939   1.128   1.165   4.320  1.8696  1.6675 -0.5417
  122MOL    H7826940   1.298   1.062   4.462  0.5290 -1.5603  1.4317
  122MOL    C7926941   1.227   0.698   4.823  0.1785  0.2111  0.2231
  122MOL    C8026942   1.216   0.836   4.813  0.4318 -0.0561 -0.7165
  122MOL    C8126943   1.307   0.904   4.730  0.2197 -0.0057 -0.8246
  122MOL    C8226944   1.406   0.841   4.657  0.6777  0.4173  1.1611
  122MOL    C8326945   1.412   0.703   4.664  0.4730 -0.6191  0.4808
  122MOL    C8426946   1.320   0.631   4.739  0.3909 -0.6161 -0.0402
  122MOL    O8526947   1.320   0.495   4.743  0.5913  0.3753  0.5705
  122MOL    H8626948   1.173   0.642   4.897 -0.8417  0.0634 -0.6262
  122MOL    H8726949   1.137   0.891   4.862  1.5840  1.4792 -0.5467
  122MOL    H8826950   1.474   0.896   4.593  0.1508  0.6140  0.7657
  122MOL    H8926951   1.484   0.648   4.604  1.7473  1.8904 -0.3638
  122MOL    C9026952   1.071   0.239   4.627 -0.4318  0.1272  0.1814
  122MOL    C9126953   1.165   0.310   4.708  0.5047 -0.5934  0.0189
  122MOL    C9226954   1.229   0.428   4.661  0.1358  0.3016 -0.8342
  122MOL    C9326955   1.173   0.479   4.537  0.4256 -0.4264 -0.0561
  122MOL    C9426956   1.083   0.407   4.458  0.0961 -0.6464 -0.2222
  122MOL    C9526957   1.042   0.282   4.496  0.1609 -0.1972 -0.4263
  122MOL    O9626958   0.958   0.210   4.421 -0.1049 -0.0983  0.2389
  122MOL    H9726959   1.029   0.150   4.671 -0.8239  0.2309  0.0204
  122MOL    H9826960   1.190   0.285   4.810 -0.5152 -0.5698  0.2739
  122MOL    H9926961   1.209   0.572   4.496 -1.1522  0.2243 -0.0281
  122MOL   H10026962   1.051   0.454   4.366 -0.8733 -0.2604  0.3063
  122MOL   C10126963   1.100   0.066   4.117 -0.2733  0.2013  0.4093
  122MOL   C10226964   1.066   0.078   4.254 -0.7099  0.0657  0.3082
  122MOL   C10326965   0.984   0.185   4.289 -0.4186  0.1767 -0.9308
  122MOL   C10426966   0.927   0.275   4.196  0.2677 -0.0770 -0.4259
  122MOL   C10526967   0.955   0.260   4.061 -0.4973 -0.4566 -1.2313
  122MOL   C10626968   1.050   0.160   4.021  0.1777  0.2908 -0.6167
  122MOL   O10726969   1.084   0.166   3.886  0.0437 -0.5550  0.1612
  122MOL   H10826970   1.167   8.242   4.082 -0.8278 -0.3068  0.4727
  122MOL   H10926971   1.114   0.009   4.321  0.4880 -1.2646 -1.8779
  122MOL   H11026972   0.863   0.353   4.233  2.5618  0.2898  2.9920
  122MOL   H11126973   0.921   0.321   3.978 -0.9903 -0.8069 -1.2893
  122MOL   C11226974   1.443   0.262   3.886  0.4986 -0.6873 -0.2184
  122MOL   C11326975   1.303   0.278   3.885  0.0220  0.5502  0.2480
  122MOL   C11426976   1.218   0.167   3.860  0.6290  0.6730  0.5438
  122MOL   C11526977   1.277   0.045   3.835 -0.7178  0.1694  0.7317
  122MOL   C11626978   1.414   0.025   3.824 -0.3137  0.6054  0.2960
  122MOL   C11726979   1.496   0.136   3.858 -0.6134  0.2633  0.9270
  122MOL   O11826980   1.626   0.115   3.856  0.4255  0.2993 -0.0707
  122MOL   H11926981   1.505   0.349   3.901  1.5444 -1.3045 -0.9262
  122MOL   H12026982   1.259   0.374   3.906 -1.2551 -0.0057  0.1279
  122MOL   H12126983   1.215   8.213   3.813 -0.0867 -1.1489  3.7900
  122MOL   H12226984   1.463   8.188   3.793 -1.5517  0.1229 -0.2670
  122MOL   C12326985   1.736   0.127   4.214  0.2885  0.3720 -0.2155
  122MOL   C12426986   1.672   0.082   4.097  0.1327  0.8512 -0.2987
  122MOL   C12526987   1.695   0.145   3.972  0.4161 -0.0653 -0.4248
  122MOL   C12626988   1.775   0.258   3.963 -0.1754  0.2189  0.0712
  122MOL   C12726989   1.827   0.312   4.084 -0.2072 -0.3617  0.3608
  122MOL   C12826990   1.805   0.249   4.210  0.4594 -0.3349  0.8839
  122MOL   O12926991   1.845   0.307   4.330 -0.1774 -0.7275 -0.2589
  122MOL   H13026992   1.723   0.085   4.312  0.6686 -2.2005 -1.2423
  122MOL   H13126993   1.608   8.249   4.097  0.5353  0.5377  1.0491
  122MOL   H13226994   1.781   0.310   3.869 -1.6890  2.1621  0.9987
  122MOL   H13326995   1.887   0.401   4.081  0.8499 -1.0524  0.7173
  122MOL   C13426996   2.164   0.135   4.409 -0.2511  0.0356 -0.4731
  122MOL   C13526997   2.054   0.187   4.338 -0.5854  0.5417 -0.1464
  122MOL   C13626998   1.951   0.257   4.397 -0.0962  0.2942 -0.7558
  122MOL   C13726999   1.960   0.278   4.539  0.3907  0.5420 -0.1241
  122MOL   C13827000   2.071   0.233   4.613 -0.1056 -0.4531 -0.3431
  122MOL   C13927001   2.172   0.157   4.546 -0.4567  0.3615  0.6295
  122MOL   O14027002   2.268   0.101   4.624  0.7301 -0.0672  0.0823
  122MOL   H14127003   2.240   0.074   4.363 -1.1783  0.8222 -3.1640
  122MOL   H14227004   2.048   0.162   4.233  2.3291 -0.1649 -0.1797
  122MOL   H14327005   1.884   0.338   4.586  0.1624  1.3556 -1.5191
  122MOL   H14427006   2.076   0.254   4.719 -2.7219 -1.9713  0.1234
  122MOL   C14527007   2.113   8.047   4.769  0.6310 -0.4042 -0.3971
  122MOL   C14627008   2.171   8.141   4.676  0.5418 -0.1405 -0.2445
  122MOL   C14727009   2.225   0.010   4.714 -0.0185 -0.2861 -0.1587
  122MOL   C14827010   2.198   0.045   4.850  0.3481  0.2546 -0.2825
  122MOL   C14927011   2.144   8.211   4.944  0.5637 -0.8665 -0.2886
  122MOL   C15027012   2.102   8.082   4.905 -0.3442  0.3859  0.5268
  122MOL   O15127013   2.057   7.984   4.991 -0.2043  0.2276  0.1888
  122MOL   H15227014   2.072   7.954   4.732 -0.1332 -0.2905  0.1496
  122MOL   H15327015   2.176   8.106   4.574  2.3055  0.0731 -0.2459
  122MOL   H15427016   2.237   0.138   4.889  0.7158 -0.1598  0.3501
  122MOL   H15527017   2.141   8.246   5.046 -1.6134  2.9564 -1.5632
  122MOL   C15627018   2.297   7.921   5.271  0.0622  0.4610  0.8143
  122MOL   C15727019   2.243   7.966   5.145 -0.1239  0.2217  1.3615
  122MOL   C15827020   2.104   7.960   5.117  0.1153 -0.5667 -0.0310
  122MOL   C15927021   2.011   7.922   5.215 -0.4554  0.3621  0.4513
  122MOL   C16027022   2.064   7.879   5.336  0.1881 -0.1612 -0.3777
  122MOL   C16127023   2.202   7.873   5.364 -0.8233  0.1616 -0.0994
  122MOL   O16227024   2.251   7.821   5.483 -0.0664  0.4342  0.1956
  122MOL   H16327025   2.403   7.929   5.291 -0.2742  1.9265  2.1698
  122MOL   H16427026   2.309   7.989   5.062 -1.6651 -1.9384 -0.5048
  122MOL   H16527027   1.905   7.921   5.195 -0.3167 -0.9287 -0.3289
  122MOL   H16627028   2.001   7.842   5.415  2.4505 -1.5852  0.7723
  122MOL   C16727029   2.204   7.458   5.571 -0.0266 -0.5537  0.0035
  122MOL   C16827030   2.178   7.601   5.565 -0.9044  0.2309 -0.3357
  122MOL   C16927031   2.267   7.681   5.492 -1.4683  0.0509 -0.5941
  122MOL   C17027032   2.387   7.632   5.441 -0.6520  0.0844  0.1027
  122MOL   C17127033   2.422   7.495   5.470 -0.1674  0.3933 -0.2766
  122MOL   C17227034   2.327   7.410   5.527 -0.5947  0.5049 -0.1831
  122MOL   O17327035   2.373   7.276   5.540  0.4298 -0.8602 -0.5553
  122MOL   H17427036   2.136   7.395   5.627 -0.6069  0.3477  0.3393
  122MOL   H17527037   2.083   7.631   5.606 -1.8686 -1.5215 -1.2517
  122MOL   H17627038   2.462   7.697   5.396 -2.2937  1.2540 -1.0082
  122MOL   H17727039   2.523   7.465   5.447 -0.4518 -0.8079  0.0205
  122MOL   C17827040   2.570   7.039   5.733  0.6404 -0.4269 -0.6430
  122MOL   C17927041   2.504   7.100   5.630 -0.1689 -0.3769  0.1479
  122MOL   C18027042   2.451   7.230   5.641 -0.1824  0.2465 -0.0806
  122MOL   C18127043   2.469   7.303   5.764 -0.0312 -0.2656 -0.4969
  122MOL   C18227044   2.528   7.238   5.875  0.8443 -0.0876  0.2957
  122MOL   C18327045   2.583   7.108   5.859 -0.1950  0.3920 -0.1898
  122MOL   O18427046   2.659   7.045   5.963 -0.0998 -0.1982  0.3037
  122MOL   H18527047   2.590   6.935   5.716 -0.4249 -1.0039  1.4624
  122MOL   H18627048   2.486   7.047   5.538 -2.9086  0.7156 -0.0028
  122MOL   H18727049   2.434   7.404   5.779 -1.4733 -0.9980  1.2688
  122MOL   H18827050   2.534   7.281   5.973 -0.4142  3.4768 -1.1134
  122MOL   C18927051   2.857   6.745   5.889 -0.2479 -0.3993  0.2456
  122MOL   C19027052   2.758   6.831   5.938 -0.3969  0.0798  0.0281
  122MOL   C19127053   2.761   6.969   5.918  0.1890  0.2921 -0.1238
  122MOL   C19227054   2.874   7.031   5.862  0.2148  0.2326 -0.8316
  122MOL   C19327055   2.979   6.956   5.822  0.0343 -0.3448 -0.7868
  122MOL   C19427056   2.969   6.816   5.831  0.8672  0.9123  0.2515
  122MOL   O19527057   3.078   6.751   5.787  0.1729  0.1708  0.1309
  122MOL   H19627058   2.842   6.640   5.910  0.4377 -0.5211  0.1263
  122MOL   H19727059   2.673   6.785   5.986 -0.8926  1.5365  0.5556
  122MOL   H19827060   2.889   7.137   5.848 -0.6869  0.6459  1.1301
  122MOL   H19927061   3.056   7.017   5.777 -2.1297  2.4717 -0.8403
  122MOL   C20027062   3.430   6.829   5.831  0.0136 -0.4045  0.3555
  122MOL   C20127063   3.297   6.824   5.782  0.8352  0.0916 -0.8355
  122MOL   C20227064   3.192   6.766   5.857 -0.5981 -0.3635  0.6911
  122MOL   C20327065   3.214   6.709   5.982  0.0063  0.2788 -0.5213
  122MOL   C20427066   3.345   6.719   6.034  1.1190  0.4591  0.4073
  122MOL   C20527067   3.453   6.768   5.953 -0.4863 -0.8620 -0.1211
  122MOL   O20627068   3.589   6.759   5.983  0.4356  0.0412 -0.1951
  122MOL   H20727069   3.507   6.880   5.775 -0.7574  0.7278  0.3282
  122MOL   H20827070   3.279   6.865   5.684 -2.1424  0.6388 -0.1087
  122MOL   H20927071   3.132   6.658   6.030  0.1341 -0.8623 -1.4941
  122MOL   H21027072   3.364   6.684   6.134 -2.8465  1.0221  1.4534
  122MOL   C21127073   3.721   6.421   6.077  0.1121 -0.4180  0.6466
  122MOL   C21227074   3.663   6.521   5.999 -0.1685  0.3714 -0.0191
  122MOL   C21327075   3.636   6.653   6.052  0.2376 -0.1466  0.0382
  122MOL   C21427076   3.662   6.676   6.193  0.2356  0.4520 -0.3419
  122MOL   C21527077   3.717   6.572   6.269  0.5383 -0.0745 -0.5645
  122MOL   C21627078   3.748   6.449   6.212 -0.0625 -0.2672  0.4319
  122MOL   O21727079   3.786   6.355   6.299  0.2938 -0.7009 -0.0041
  122MOL   H21827080   3.740   6.326   6.029 -0.6316 -0.3529  0.2252
  122MOL   H21927081   3.647   6.492   5.896 -1.8710  1.7807 -0.1796
  122MOL   H22027082   3.637   6.774   6.231  0.6946  1.0432 -1.5332
  122MOL   H22127083   3.734   6.603   6.372  2.4029  0.0885 -0.8998
  122MOL   H22227084   3.780   6.376   6.391 -0.2801 -1.8855  0.2373
  123MOL     C127085   4.901   5.288   1.748  0.3176 -0.1742  0.4354
  123MOL     C227086   4.814   5.189   1.694 -1.1966  0.3091 -0.5677
  123MOL     C327087   4.680   5.222   1.681 -0.1119  0.0021  0.3040
  123MOL     C427088   4.635   5.351   1.715 -0.3510  0.0175  0.6965
  123MOL     C527089   4.722   5.448   1.767 -0.3113 -0.1123  0.0613
  123MOL     C627090   4.856   5.418   1.787  0.1201  0.0012  0.0278
  123MOL     O727091   4.942   5.519   1.825  0.3003  0.0898  0.4947
  123MOL     H827092   5.008   5.270   1.754  0.2976 -0.0058  1.3622
  123MOL     H927093   4.845   5.090   1.663 -0.1174  0.3511  0.3484
  123MOL    H1027094   4.532   5.363   1.683  0.4252 -1.3537 -2.6080
  123MOL    H1127095   4.696   5.552   1.778 -0.1413 -0.3718  3.2315
  123MOL    H1227096   4.614   5.140   1.655  1.8194 -1.4991 -0.0169
  123MOL    C1327097   5.143   5.714   1.580  0.0226  0.2081 -0.1271
  123MOL    C1427098   5.038   5.674   1.662  0.2125 -0.2035 -0.1195
  123MOL    C1527099   5.049   5.558   1.742  0.1466  0.0675 -0.1871
  123MOL    C1627100   5.164   5.481   1.742 -0.4812  0.1120  0.5633
  123MOL    C1727101   5.268   5.517   1.655  0.8424  0.3756  0.7183
  123MOL    C1827102   5.263   5.639   1.579 -0.1893  0.7413  0.9866
  123MOL    O1927103   5.365   5.677   1.494 -0.1190  0.3671  0.2786
  123MOL    H2027104   5.133   5.809   1.530 -1.6313 -0.2010 -0.6383
  123MOL    H2127105   4.951   5.738   1.668 -0.0147 -0.5511  0.3475
  123MOL    H2227106   5.175   5.394   1.804  0.7180  0.3041  0.6249
  123MOL    H2327107   5.364   5.466   1.651  1.4728  1.3609  2.5884
  123MOL    C2427108   5.686   5.843   1.490 -0.1521  0.3528  0.3258
  123MOL    C2527109   5.569   5.773   1.457 -0.7744 -0.4755  0.4332
  123MOL    C2627110   5.459   5.759   1.545 -0.0803 -0.0324 -0.1322
  123MOL    C2727111   5.468   5.826   1.671 -0.2031  0.6512 -0.4240
  123MOL    C2827112   5.590   5.889   1.712 -0.2429 -0.1610 -0.3083
  123MOL    C2927113   5.705   5.902   1.624 -0.5714 -0.6663  0.9835
  123MOL    O3027114   5.816   5.961   1.658  0.1400 -0.0085  0.0633
  123MOL    H3127115   5.766   5.849   1.418 -1.0444  1.3532 -0.5848
  123MOL    H3227116   5.574   5.713   1.368 -1.2240  1.2572 -0.7884
  123MOL    H3327117   5.388   5.802   1.739 -0.3814  1.6192 -0.2906
  123MOL    H3427118   5.600   5.914   1.816 -0.3611 -2.4612  0.2719
  123MOL    C3527119   5.971   6.261   1.514 -0.2427  0.3064 -0.4950
  123MOL    C3627120   5.938   6.130   1.541 -0.1000 -0.1962 -0.0156
  123MOL    C3727121   5.834   6.097   1.629 -0.2622  0.4031  0.2551
  123MOL    C3827122   5.747   6.191   1.682  0.5430  0.5146  0.3300
  123MOL    C3927123   5.773   6.326   1.644  0.3591  0.2250 -0.2381
  123MOL    C4027124   5.884   6.361   1.567  0.9942 -0.4850  0.3455
  123MOL    O4127125   5.906   6.495   1.533 -0.1875  0.1704  0.2108
  123MOL    H4227126   6.058   6.277   1.451  0.6749 -2.3205  0.0221
  123MOL    H4327127   5.989   6.046   1.496 -0.4936 -0.1470 -0.5664
  123MOL    H4427128   5.658   6.162   1.737  0.9428  0.4478  0.9468
  123MOL    H4527129   5.698   6.397   1.677  0.8309  0.6965 -0.1842
  123MOL    C4627130   5.636   6.716   1.416 -0.4128  0.9470  0.1255
  123MOL    C4727131   5.737   6.622   1.420 -0.4257  0.2182  0.2677
  123MOL    C4827132   5.809   6.589   1.538 -0.0995 -0.2799 -1.1504
  123MOL    C4927133   5.781   6.658   1.656  0.3070  0.3791 -0.0519
  123MOL    C5027134   5.669   6.743   1.661 -0.5049  0.6962 -0.2654
  123MOL    C5127135   5.601   6.778   1.542  0.1769 -0.0969  0.3987
  123MOL    O5227136   5.496   6.866   1.537  0.0826 -0.6512  0.4812
  123MOL    H5327137   5.583   6.724   1.322 -0.3804  0.4026  0.0608
  123MOL    H5427138   5.753   6.573   1.325  0.2983  0.4266  0.2762
  123MOL    H5527139   5.837   6.637   1.746 -0.5161  0.3702  0.4625
  123MOL    H5627140   5.635   6.790   1.752 -0.0775 -0.9905  0.8082
  123MOL    C5727141   5.215   6.675   1.642  0.6734  0.1134  0.2135
  123MOL    C5827142   5.335   6.750   1.646  0.2357 -0.6580  0.0310
  123MOL    C5927143   5.376   6.816   1.534  0.0884 -0.3901  1.1566
  123MOL    C6027144   5.304   6.803   1.414  0.0399  0.0173 -0.0838
  123MOL    C6127145   5.185   6.720   1.407  0.0494 -0.0123 -0.0514
  123MOL    C6227146   5.141   6.656   1.523  0.0140 -0.3685  0.3109
  123MOL    O6327147   5.010   6.615   1.524 -0.3744 -0.2000 -0.0272
  123MOL    H6427148   5.184   6.634   1.737 -0.8022  0.6753 -0.0053
  123MOL    H6527149   5.394   6.769   1.734 -1.7988  2.0111  0.8757
  123MOL    H6627150   5.356   6.840   1.327  0.0053 -1.2102 -0.6343
  123MOL    H6727151   5.133   6.712   1.313 -1.8266  1.3712  0.8348
  123MOL    C6827152   5.035   6.264   1.650  0.7976 -0.2849  0.2768
  123MOL    C6927153   5.055   6.379   1.569 -0.1107  0.1067  0.3163
  123MOL    C7027154   4.986   6.497   1.592 -0.5351  0.4144  0.2966
  123MOL    C7127155   4.892   6.491   1.695 -0.0867 -0.5497  0.1890
  123MOL    C7227156   4.863   6.378   1.773  0.2538  0.8257  0.0539
  123MOL    C7327157   4.941   6.264   1.750  0.4034  0.1286 -0.1056
  123MOL    O7427158   4.911   6.160   1.831 -0.0424 -0.3929 -0.0771
  123MOL    H7527159   5.088   6.173   1.625  2.5355  0.8934 -0.4178
  123MOL    H7627160   5.120   6.362   1.484 -1.8084 -0.5732 -0.8891
  123MOL    H7727161   4.824   6.571   1.722  0.3139 -0.9817  2.6108
  123MOL    H7827162   4.785   6.384   1.847 -0.0696 -1.3753 -0.0731
  123MOL    C7927163   5.170   6.072   2.100 -0.8893 -0.0953 -0.3251
  123MOL    C8027164   5.067   6.143   2.032  1.2526 -0.0040  0.3321
  123MOL    C8127165   5.007   6.096   1.909 -0.0038  0.4448  0.4752
  123MOL    C8227166   5.051   5.968   1.867 -0.5636  0.3280  0.3122
  123MOL    C8327167   5.157   5.901   1.927 -0.6605  0.1527  0.4019
  123MOL    C8427168   5.221   5.949   2.045 -0.0625  0.3033  0.3103
  123MOL    O8527169   5.303   5.859   2.105 -0.0223  0.0814  0.3326
  123MOL    H8627170   5.221   6.106   2.189  0.5104 -2.1313 -0.3127
  123MOL    H8727171   5.035   6.240   2.067  0.9583  0.1277 -0.2828
  123MOL    H8827172   5.004   5.919   1.782  0.3516 -0.7818  0.4282
  123MOL    H8927173   5.199   5.812   1.881 -0.9735  0.5782 -0.7366
  123MOL    C9027174   5.230   5.767   2.446  0.0380 -0.5309  0.5134
  123MOL    C9127175   5.217   5.779   2.309 -0.0368  0.0651 -0.3850
  123MOL    C9227176   5.315   5.854   2.237 -0.0071  0.1462 -0.6383
  123MOL    C9327177   5.438   5.902   2.297 -0.4492  0.3815  0.0007
  123MOL    C9427178   5.445   5.888   2.437 -0.4077  0.5196  0.5909
  123MOL    C9527179   5.347   5.818   2.511 -0.1291  0.1780  0.2190
  123MOL    O9627180   5.360   5.814   2.646  0.0979  0.8380 -0.0101
  123MOL    H9727181   5.153   5.729   2.512 -1.2530  5.0471  2.4947
  123MOL    H9827182   5.127   5.752   2.257 -0.4952  0.6116  0.1195
  123MOL    H9927183   5.525   5.937   2.244  0.0584 -0.5486  0.2153
  123MOL   H10027184   5.529   5.924   2.494  0.5085 -1.7650  0.7491
  123MOL   C10127185   5.086   5.819   2.895 -0.1929  0.3165  0.0894
  123MOL   C10227186   5.189   5.770   2.817 -0.1651  0.9907 -0.6152
  123MOL   C10327187   5.255   5.861   2.726  0.1508  0.2152  0.4329
  123MOL   C10427188   5.202   5.990   2.710 -0.3670  0.2110  0.4712
  123MOL   C10527189   5.088   6.033   2.779 -0.2874 -0.6414  0.6068
  123MOL   C10627190   5.036   5.951   2.881  0.0756  0.2728 -0.4502
  123MOL   O10727191   4.927   5.995   2.956 -0.3445 -0.9065 -0.2997
  123MOL   H10827192   5.043   5.746   2.962 -0.2162  1.2902  1.1404
  123MOL   H10927193   5.226   5.670   2.834  0.9252  1.7142  1.3449
  123MOL   H11027194   5.251   6.052   2.637 -1.0527  1.9894  1.5112
  123MOL   H11127195   5.030   6.121   2.755  0.4786 -0.3302 -0.1304
  123MOL   C11227196   4.981   6.155   3.281  0.0441 -0.3549 -0.5101
  123MOL   C11327197   4.974   6.132   3.144 -0.8529 -0.5804 -0.0228
  123MOL   C11427198   4.945   6.004   3.092 -0.0584 -0.1870  0.0929
  123MOL   C11527199   4.919   5.897   3.185 -0.3204 -0.1175  0.1436
  123MOL   C11627200   4.934   5.918   3.323  0.4485  0.5358  0.6534
  123MOL   C11727201   4.964   6.047   3.374 -0.0380  0.7861 -0.0092
  123MOL   O11827202   4.974   6.054   3.514  0.2773 -0.1864 -0.2933
  123MOL   H11927203   5.018   6.247   3.324 -2.1791  0.4715 -0.2720
  123MOL   H12027204   4.994   6.215   3.078  2.2968  0.5502  2.2316
  123MOL   H12127205   4.896   5.798   3.148  3.2713 -0.3913 -1.5706
  123MOL   H12227206   4.928   5.828   3.383 -2.2858  0.1926 -0.0756
  123MOL   C12327207   5.220   6.064   3.781 -0.6696 -0.1125  0.5810
  123MOL   C12427208   5.097   6.072   3.704 -0.4938 -0.5020  0.2987
  123MOL   C12527209   5.100   6.056   3.569  0.0049 -0.6953  0.5007
  123MOL   C12627210   5.226   6.029   3.503 -0.3788  0.2648 -1.4605
  123MOL   C12727211   5.349   6.033   3.582 -1.1552  0.3168  0.3906
  123MOL   C12827212   5.345   6.046   3.723  0.2843 -0.5164  0.6062
  123MOL   O12927213   5.459   6.046   3.801 -0.2243 -0.2651 -0.4880
  123MOL   H13027214   5.219   6.101   3.882  2.0013  2.3416 -0.2138
  123MOL   H13127215   5.000   6.081   3.752  0.4817 -2.1867  2.6987
  123MOL   H13227216   5.229   6.007   3.397  1.2728 -0.3831 -1.2983
  123MOL   H13327217   5.441   6.004   3.535 -0.2729  0.2128  2.1554
  123MOL   C13427218   5.581   6.398   3.836 -0.1284 -0.3445 -0.4861
  123MOL   C13527219   5.548   6.273   3.778 -0.3159 -0.3088 -0.1361
  123MOL   C13627220   5.493   6.164   3.857  0.6198 -0.8593  0.1658
  123MOL   C13727221   5.485   6.179   3.997 -0.3452 -0.8177 -0.1661
  123MOL   C13827222   5.530   6.295   4.051 -0.6024  0.7084  0.8108
  123MOL   C13927223   5.577   6.411   3.979  0.4459 -0.5797  0.1153
  123MOL   O14027224   5.612   6.526   4.043 -0.0642  0.1609  0.1623
  123MOL   H14127225   5.602   6.486   3.778 -1.5069  0.5718  0.3711
  123MOL   H14227226   5.550   6.262   3.670 -2.9321  0.8243 -0.3337
  123MOL   H14327227   5.446   6.101   4.061 -1.3356  0.1205  0.3924
  123MOL   H14427228   5.537   6.314   4.157 -1.3956  0.2232  0.9513
  123MOL   C14527229   5.288   6.705   4.101  0.4140  0.4421 -0.4352
  123MOL   C14627230   5.381   6.621   4.042 -0.3087  0.2440  0.2428
  123MOL   C14727231   5.513   6.610   4.097  0.0156  0.2118 -0.0702
  123MOL   C14827232   5.548   6.688   4.203  0.0583  0.5599 -0.2224
  123MOL   C14927233   5.454   6.783   4.260  0.4637  0.4910 -0.7428
  123MOL   C15027234   5.318   6.788   4.206 -0.2072 -0.3129 -0.6470
  123MOL   O15127235   5.229   6.874   4.259 -0.0336 -0.0628 -0.2941
  123MOL   H15227236   5.184   6.692   4.075  0.7192  2.3927 -2.8007
  123MOL   H15327237   5.351   6.566   3.954 -2.0230 -0.3051  1.1466
  123MOL   H15427238   5.644   6.677   4.250 -0.0651 -0.5342 -0.2244
  123MOL   H15527239   5.488   6.840   4.345 -3.3466 -0.9884  1.9175
  123MOL   C15627240   5.252   7.077   4.562  0.4209  0.3872 -0.4435
  123MOL   C15727241   5.247   7.046   4.424 -0.9975  0.0436 -0.4634
  123MOL   C15827242   5.236   6.907   4.395  0.6142  0.3793  0.8345
  123MOL   C15927243   5.226   6.803   4.497 -0.1957 -0.1672 -0.2097
  123MOL   C16027244   5.246   6.843   4.630 -0.2085 -0.0686 -0.7073
  123MOL   C16127245   5.253   6.977   4.664  0.2094 -0.7631  0.4372
  123MOL   O16227246   5.249   7.007   4.796  0.0791  0.5438 -0.5721
  123MOL   H16327247   5.248   7.181   4.591 -3.5560  0.2495 -0.2432
  123MOL   H16427248   5.244   7.122   4.348  0.8356 -0.8765 -1.5091
  123MOL   H16527249   5.203   6.700   4.473 -0.7862  0.5683 -3.0407
  123MOL   H16627250   5.239   6.772   4.711 -0.9615  0.7925 -0.0098
  123MOL   C16727251   5.577   7.149   4.908 -0.2684  0.4670 -0.6015
  123MOL   C16827252   5.476   7.056   4.864 -0.5964 -0.7850  0.3255
  123MOL   C16927253   5.345   7.100   4.837 -0.2526  0.2690 -0.4527
  123MOL   C17027254   5.311   7.233   4.872 -0.9722  0.0871 -0.1472
  123MOL   C17127255   5.404   7.324   4.906 -0.1102  1.1815 -0.2836
  123MOL   C17227256   5.538   7.280   4.939 -0.5903  0.6137 -0.2477
  123MOL   O17327257   5.634   7.361   4.994 -0.0560 -0.1277 -0.4465
  123MOL   H17427258   5.679   7.120   4.929  0.3709  2.3706 -1.0162
  123MOL   H17527259   5.507   6.953   4.855 -1.5796 -1.1717  1.2397
  123MOL   H17627260   5.212   7.265   4.845 -0.7371  0.5670 -0.4374
  123MOL   H17727261   5.377   7.425   4.935 -2.2366 -0.1363  2.6168
  123MOL   C17827262   5.612   7.687   4.806  0.5358  0.2033 -0.3822
  123MOL   C17927263   5.634   7.546   4.834 -0.0452  0.3218 -0.4855
  123MOL   C18027264   5.615   7.494   4.963  0.0676  0.2609  0.0656
  123MOL   C18127265   5.580   7.588   5.065  0.6730  0.1906 -0.1440
  123MOL   C18227266   5.553   7.719   5.036 -0.0338 -0.0380 -0.2181
  123MOL   C18327267   5.567   7.775   4.907  0.3061 -0.0190 -0.8133
  123MOL   O18427268   5.525   7.901   4.870 -0.3567 -0.4337  0.0097
  123MOL   H18527269   5.617   7.719   4.703  3.8031  0.6156 -0.1414
  123MOL   H18627270   5.666   7.474   4.760 -0.8955  2.4531 -3.0028
  123MOL   H18727271   5.563   7.556   5.167 -0.2421 -0.4119 -0.4819
  123MOL   H18827272   5.519   7.783   5.116  0.7692  0.6562 -0.4140
  123MOL   C18927273   5.497   8.229   5.029  0.5482  0.4357 -0.2995
  123MOL   C19027274   5.463   8.111   4.959 -0.7284  0.2996  0.4530
  123MOL   C19127275   5.559   8.014   4.938 -0.1671  0.2466  0.5702
  123MOL   C19227276   5.691   8.028   4.983 -0.8451 -0.8061  0.4761
  123MOL   C19327277   5.726   8.140   5.062 -0.1021 -0.2731 -0.0660
  123MOL   C19427278   5.631   8.243   5.083 -0.0521  0.0393 -0.1618
  123MOL   O19527279   5.657   0.103   5.159 -0.6827  0.3029 -0.1372
  123MOL   H19627280   5.419   0.048   5.042 -0.2106 -0.5031  0.4797
  123MOL   H19727281   5.367   8.079   4.922  0.0449  0.1547 -1.4897
  123MOL   H19827282   5.761   7.947   4.967  1.1498  0.9139  0.3676
  123MOL   H19927283   5.819   8.149   5.116  0.4365 -1.2035 -0.8210
  123MOL   C20027284   5.744   0.453   5.083  0.0279  0.0323  0.3508
  123MOL   C20127285   5.688   0.336   5.141 -0.5959 -0.1667  0.0057
  123MOL   C20227286   5.710   0.213   5.088  0.0325 -0.1106 -0.1300
  123MOL   C20327287   5.792   0.202   4.976 -0.6921 -0.7944 -0.4545
  123MOL   C20427288   5.838   0.319   4.907  0.6489  0.8679 -0.2903
  123MOL   C20527289   5.830   0.443   4.970 -0.2861 -0.5982 -0.0129
  123MOL   O20627290   5.897   0.554   4.926 -0.1158  0.0306 -0.0207
  123MOL   H20727291   5.729   0.551   5.126 -1.1535 -0.1952  0.4678
  123MOL   H20827292   5.637   0.350   5.235  0.3027 -1.5369  0.7099
  123MOL   H20927293   5.812   0.119   4.910 -2.1607 -0.0179 -1.9257
  123MOL   H21027294   5.880   0.321   4.808  1.0730 -1.4284 -0.1830
  123MOL   C21127295   6.059   0.732   5.205  0.4072  0.2052  0.3198
  123MOL   C21227296   5.971   0.698   5.106 -0.7084  0.2621  0.2647
  123MOL   C21327297   5.998   0.599   5.010  0.0225 -0.6052  0.1449
  123MOL   C21427298   6.129   0.546   5.007  0.3995  0.3264  0.2857
  123MOL   C21527299   6.230   0.603   5.087 -0.3580  0.8626  0.1725
  123MOL   C21627300   6.193   0.693   5.195  0.5170  0.2163 -0.3224
  123MOL   O21727301   6.290   0.732   5.281  0.5394 -0.4357 -0.7174
  123MOL   H21827302   6.031   0.794   5.289  0.8320  1.5265 -0.5134
  123MOL   H21927303   5.874   0.746   5.103  0.0314  1.7243 -1.3025
  123MOL   H22027304   6.149   0.469   4.934  1.0173 -0.9123  1.7395
  123MOL   H22127305   6.323   0.550   5.078 -0.2042  0.8441  1.6074
  123MOL   H22227306   6.288   0.820   5.316  1.1645 -1.4447  1.9615
  124MOL     C127307   0.985   3.351   4.905 -0.3209 -0.0946 -0.7334
  124MOL     C227308   1.052   3.456   4.957 -0.2852  0.4662 -0.3691
  124MOL     C327309   1.186   3.468   4.918  0.3071  0.2290 -0.3200
  124MOL     C427310   1.246   3.377   4.830  0.0996 -0.1131 -0.5730
  124MOL     C527311   1.174   3.270   4.784  0.3537 -0.5273  0.7716
  124MOL     C627312   1.036   3.256   4.814 -0.7585  0.2882 -1.1090
  124MOL     O727313   0.959   3.166   4.754  0.3772 -0.4117 -0.3268
  124MOL     H827314   0.882   3.343   4.936 -0.3504 -2.7488 -1.3654
  124MOL     H927315   1.012   3.514   5.040  2.5909  0.2264  1.2649
  124MOL    H1027316   1.351   3.393   4.808  0.1154  2.3789  1.1402
  124MOL    H1127317   1.215   3.199   4.714  1.1672  0.0713  0.6244
  124MOL    H1227318   1.250   3.541   4.966 -0.2145  1.4706 -1.4666
  124MOL    C1327319   0.607   3.167   4.632 -0.0779  0.5754  0.0776
  124MOL    C1427320   0.731   3.125   4.690  0.0616  0.3393 -0.2640
  124MOL    C1527321   0.846   3.206   4.689 -0.7564 -0.1579 -0.6242
  124MOL    C1627322   0.837   3.329   4.616 -0.4132  0.0399 -0.3643
  124MOL    C1727323   0.712   3.373   4.558 -0.2686  0.3752 -0.1981
  124MOL    C1827324   0.595   3.295   4.570 -0.5742 -0.4580  0.4489
  124MOL    O1927325   0.476   3.326   4.509  0.2977 -0.4630  0.2032
  124MOL    H2027326   0.523   3.102   4.650  0.6619 -0.7964 -1.2640
  124MOL    H2127327   0.735   3.032   4.745  0.8869  1.6517  1.9643
  124MOL    H2227328   0.929   3.385   4.615 -0.6566  0.7518  4.3307
  124MOL    H2327329   0.706   3.471   4.512 -0.6056 -0.2714 -1.5535
  124MOL    C2427330   0.173   3.399   4.710  0.4990  0.5139  0.1105
  124MOL    C2527331   0.260   3.332   4.618  0.4213  0.8537 -0.5066
  124MOL    C2627332   0.384   3.396   4.586 -0.3952  0.6510  0.1680
  124MOL    C2727333   0.409   3.530   4.626 -0.5729  0.1262  0.2565
  124MOL    C2827334   0.313   3.600   4.704  0.2994  0.1452  0.3704
  124MOL    C2927335   0.196   3.531   4.750 -0.2066  1.2995  0.3371
  124MOL    O3027336   0.102   3.586   4.824  0.6375 -0.4463 -0.2193
  124MOL    H3127337   0.080   3.350   4.736  0.0724  1.8146  1.1527
  124MOL    H3227338   0.241   3.229   4.595  1.5168  0.9490 -1.9243
  124MOL    H3327339   0.494   3.585   4.590 -0.9783  0.2379 -0.5284
  124MOL    H3427340   0.328   3.705   4.723  0.1202  0.1343  0.5746
  124MOL    C3527341   8.111   3.744   4.587  0.3214 -0.6397 -0.1652
  124MOL    C3627342   8.196   3.651   4.655 -0.4039 -0.6204  0.6821
  124MOL    C3727343   0.035   3.689   4.751  0.6950  0.5358 -0.0636
  124MOL    C3827344   0.047   3.823   4.793  0.4764 -0.3232  0.4599
  124MOL    C3927345   8.222   3.921   4.726  0.2693 -0.1231  0.0146
  124MOL    C4027346   8.127   3.880   4.624 -0.0152  0.1081  0.4645
  124MOL    O4127347   8.067   3.974   4.545 -0.8191 -0.6704 -0.5984
  124MOL    H4227348   8.040   3.705   4.516  1.2775 -1.3093 -0.7686
  124MOL    H4327349   8.182   3.548   4.628 -0.1774 -0.4133 -0.2600
  124MOL    H4427350   0.107   3.857   4.877 -1.9028  1.1056  1.6122
  124MOL    H4527351   8.235   4.027   4.741 -1.4242 -0.1084  1.4598
  124MOL    C4627352   7.780   4.109   4.723  0.2923 -0.3424  0.8939
  124MOL    C4727353   7.867   4.026   4.653  0.4762 -0.6789  0.0400
  124MOL    C4827354   7.990   4.071   4.611 -0.0199 -0.3571 -0.5798
  124MOL    C4927355   8.025   4.211   4.622 -0.3745  0.0351 -0.0758
  124MOL    C5027356   7.936   4.296   4.697 -0.0128 -0.6054  0.1128
  124MOL    C5127357   7.815   4.242   4.746  0.0253 -0.3152 -0.1763
  124MOL    O5227358   7.716   4.319   4.819 -0.2674  0.4831 -0.2646
  124MOL    H5327359   7.690   4.063   4.759  0.2482 -0.6782  0.3572
  124MOL    H5427360   7.837   3.922   4.654 -0.7459 -0.3303  1.6402
  124MOL    H5527361   8.118   4.251   4.584  0.4598  0.8269  2.6656
  124MOL    H5627362   7.964   4.401   4.701 -0.4332 -0.3625 -2.4575
  124MOL    C5727363   7.730   4.537   5.106  0.9120  0.8477 -0.8320
  124MOL    C5827364   7.701   4.491   4.980 -0.0090  0.0845  0.3109
  124MOL    C5927365   7.756   4.369   4.941  0.4608  0.6724 -0.1700
  124MOL    C6027366   7.836   4.292   5.035 -0.6977 -0.6311  0.0154
  124MOL    C6127367   7.865   4.340   5.161 -0.6132 -0.1344  0.3785
  124MOL    C6227368   7.822   4.472   5.192  0.3747  0.2489 -0.1162
  124MOL    O6327369   7.842   4.532   5.316 -0.0310 -0.3200 -0.1349
  124MOL    H6427370   7.674   4.618   5.149  1.6855  1.3648 -0.7955
  124MOL    H6527371   7.638   4.552   4.916 -0.0988 -0.9958 -0.6367
  124MOL    H6627372   7.867   4.192   5.010 -1.2616 -0.5830 -0.9012
  124MOL    H6727373   7.925   4.267   5.213 -1.4135 -2.8260 -2.3744
  124MOL    C6827374   7.931   4.886   5.358  0.6311  1.0673  0.0418
  124MOL    C6927375   7.853   4.774   5.345  0.5483  0.6060 -0.1712
  124MOL    C7027376   7.918   4.644   5.321  1.0319 -0.4231  0.0598
  124MOL    C7127377   8.055   4.633   5.310 -0.3709  0.8443 -0.3973
  124MOL    C7227378   8.132   4.744   5.328  0.4860 -0.9238 -0.0960
  124MOL    C7327379   8.074   4.871   5.361 -0.1071 -0.1948 -0.7991
  124MOL    O7427380   8.156   4.978   5.376  0.1201 -0.0556  0.1757
  124MOL    H7527381   7.881   4.980   5.376  0.0703  0.4832  1.6117
  124MOL    H7627382   7.745   4.782   5.348  0.7352  2.6214  2.9313
  124MOL    H7727383   8.104   4.538   5.296  0.0697  0.8222  1.1461
  124MOL    H7827384   8.240   4.735   5.321  0.6000 -0.1909  0.6165
  124MOL    C7927385   8.176   5.037   5.747  0.3761 -1.0148  0.0993
  124MOL    C8027386   8.127   5.034   5.613  0.1502  0.4275 -0.0140
  124MOL    C8127387   8.206   4.990   5.504  0.7671 -0.5686 -0.6694
  124MOL    C8227388   0.084   4.956   5.527 -0.0140 -0.0635 -0.6774
  124MOL    C8327389   0.136   4.958   5.658 -0.2124  0.6869 -0.5725
  124MOL    C8427390   0.057   4.996   5.767  0.3735 -0.0610 -0.0742
  124MOL    O8527391   0.111   5.010   5.887 -0.6173 -0.1360  0.1196
  124MOL    H8627392   8.106   5.084   5.815  0.6367  1.1618 -1.0675
  124MOL    H8727393   8.024   5.066   5.603 -0.5309 -0.2919  3.7024
  124MOL    H8827394   0.148   4.921   5.448  1.0064  1.7930 -0.7062
  124MOL    H8927395   0.234   4.919   5.682 -0.8231 -0.7160 -0.2805
  124MOL    C9027396   0.014   4.856   6.210  0.4177 -0.4046 -0.2345
  124MOL    C9127397   0.026   4.950   6.108 -0.2831  0.1900 -0.1689
  124MOL    C9227398   0.095   4.920   5.987 -0.6318  0.0172 -0.0113
  124MOL    C9327399   0.158   4.797   5.963 -0.2203  0.1994 -0.4060
  124MOL    C9427400   0.139   4.697   6.063  0.6655 -0.2469  0.6628
  124MOL    C9527401   0.065   4.726   6.183 -0.0470  0.1585 -0.3292
  124MOL    O9627402   0.036   4.618   6.264 -0.4380  0.4859  0.1570
  124MOL    H9727403   8.191   4.880   6.281 -1.8167 -2.2348 -1.9623
  124MOL    H9827404   8.243   5.051   6.121  0.4700  0.7148 -1.9735
  124MOL    H9927405   0.216   4.780   5.873 -1.4879  0.5373 -1.3056
  124MOL   H10027406   0.192   4.604   6.047  1.7980  0.5233 -0.1422
  124MOL   C10127407   7.929   4.541   6.225 -0.5722 -0.3664 -0.5595
  124MOL   C10227408   8.049   4.610   6.261  0.5175 -0.3234  0.4721
  124MOL   C10327409   8.176   4.554   6.236  0.6481  0.7210 -0.5464
  124MOL   C10427410   8.180   4.415   6.203  0.1287 -0.9069 -0.7675
  124MOL   C10527411   8.065   4.348   6.161  0.2899  0.4562  0.6963
  124MOL   C10627412   7.933   4.407   6.178  0.6308  0.2648 -0.4030
  124MOL   O10727413   7.820   4.329   6.156 -0.1235  0.6490  0.2091
  124MOL   H10827414   7.832   4.581   6.249 -0.3441 -1.9103  3.3740
  124MOL   H10927415   8.042   4.714   6.289  0.7611  0.2598 -1.5276
  124MOL   H11027416   0.017   4.359   6.190  1.9957  1.4843  1.5395
  124MOL   H11127417   8.071   4.243   6.140 -1.2757 -0.3026  3.7348
  124MOL   C11227418   7.625   4.401   5.858  0.1940  0.3062  0.3448
  124MOL   C11327419   7.730   4.349   5.938  0.0745  0.0698 -0.1378
  124MOL   C11427420   7.720   4.373   6.077 -0.2004  0.1715  1.4900
  124MOL   C11527421   7.603   4.409   6.130  0.2135  0.0256 -0.5698
  124MOL   C11627422   7.492   4.442   6.053  0.1551  0.0897  0.1714
  124MOL   C11727423   7.505   4.445   5.915  0.5804 -0.3427 -0.8612
  124MOL   O11827424   7.399   4.479   5.831  0.0005 -0.2880  0.7799
  124MOL   H11927425   7.634   4.407   5.751 -1.1170  0.7238  0.2561
  124MOL   H12027426   7.818   4.295   5.908  2.0316  1.7023  2.4569
  124MOL   H12127427   7.607   4.419   6.237 -3.8661 -1.6468 -0.1660
  124MOL   H12227428   7.404   4.471   6.109 -0.0404 -0.5016  0.1708
  124MOL   C12327429   7.028   4.428   5.879 -0.0360 -0.3241 -0.3146
  124MOL   C12427430   7.153   4.493   5.857 -0.7401  0.7973  0.7191
  124MOL   C12527431   7.272   4.416   5.859  0.6074 -0.1048  0.3252
  124MOL   C12627432   7.264   4.274   5.882  0.5760 -0.2896 -0.2362
  124MOL   C12727433   7.143   4.214   5.919  0.1638  0.0456  0.0517
  124MOL   C12827434   7.023   4.290   5.921 -0.3439 -0.4924  0.4613
  124MOL   O12927435   6.900   4.239   5.962  0.2979 -0.4507  0.3723
  124MOL   H13027436   6.938   4.484   5.857  0.0462 -0.5142 -1.1393
  124MOL   H13127437   7.164   4.595   5.822  0.3060  0.9602  1.5028
  124MOL   H13227438   7.352   4.212   5.882  1.0712  0.3847 -2.2146
  124MOL   H13327439   7.152   4.110   5.946  0.3327  0.5250  1.9265
  124MOL   C13427440   6.833   4.115   6.306 -0.5236 -0.3965  0.0753
  124MOL   C13527441   6.860   4.120   6.167 -0.0271  0.7675 -0.4751
  124MOL   C13627442   6.875   4.244   6.095  0.3611 -0.1311 -0.1228
  124MOL   C13727443   6.858   4.363   6.172  0.2712  0.1332  0.1896
  124MOL   C13827444   6.823   4.359   6.306  0.5388  0.6760  0.5435
  124MOL   C13927445   6.811   4.233   6.374 -0.3648  0.4579 -0.2241
  124MOL   O14027446   6.789   4.219   6.511  0.4090  0.2052  0.3154
  124MOL   H14127447   6.833   4.024   6.364  2.0558 -0.2510  0.3917
  124MOL   H14227448   6.872   4.029   6.110  0.2859 -0.5816  1.6862
  124MOL   H14327449   6.881   4.462   6.136  2.3620 -0.5131 -0.3166
  124MOL   H14427450   6.801   4.446   6.366 -1.6237  0.6209 -0.1240
  124MOL   C14527451   7.089   4.373   6.665  0.3184 -0.0408 -0.4874
  124MOL   C14627452   7.010   4.293   6.582 -0.9295 -0.3723  0.4300
  124MOL   C14727453   6.870   4.301   6.589  0.0168  0.6850  0.2726
  124MOL   C14827454   6.802   4.390   6.669  0.3229 -0.2298 -0.1374
  124MOL   C14927455   6.880   4.464   6.754  0.2174  0.6247 -0.2418
  124MOL   C15027456   7.023   4.461   6.758  0.1438 -0.2405  0.2049
  124MOL   O15127457   7.094   4.548   6.831 -0.2751  0.1392  0.1159
  124MOL   H15227458   7.196   4.361   6.674  0.1589  0.2225  2.0345
  124MOL   H15327459   7.062   4.223   6.518  0.8056  0.2797  1.0785
  124MOL   H15427460   6.697   4.407   6.652  0.7555 -0.3672 -3.2243
  124MOL   H15527461   6.822   4.524   6.822 -0.6571  0.1543 -0.5646
  124MOL   C15627462   6.958   4.593   7.163  0.1198  0.1713 -0.3859
  124MOL   C15727463   6.988   4.617   7.026 -0.8010  0.3877  0.0776
  124MOL   C15827464   7.086   4.535   6.966 -0.0010  0.7196  0.3355
  124MOL   C15927465   7.164   4.437   7.039  0.3122 -1.3432  0.5188
  124MOL   C16027466   7.143   4.430   7.181 -0.3564 -0.6924 -0.2676
  124MOL   C16127467   7.045   4.509   7.243  0.6030  0.9513  0.1157
  124MOL   O16227468   7.025   4.479   7.374 -0.2838 -0.2911 -0.0375
  124MOL   H16327469   6.878   4.648   7.210  1.0377  1.4407 -0.2775
  124MOL   H16427470   6.930   4.687   6.968 -2.8390 -0.1631  1.4000
  124MOL   H16527471   7.242   4.377   6.995  0.0342  0.7511 -2.9725
  124MOL   H16627472   7.209   4.372   7.244 -0.4749 -1.2097 -0.6143
  124MOL   C16727473   7.225   4.600   7.660 -0.5068 -0.1499 -0.4224
  124MOL   C16827474   7.191   4.523   7.545  0.4995 -0.2502 -0.1880
  124MOL   C16927475   7.074   4.559   7.476 -0.0203 -0.7275 -0.0278
  124MOL   C17027476   6.997   4.673   7.513 -0.2166 -0.6574 -0.2014
  124MOL   C17127477   7.043   4.754   7.620 -0.0238  0.1806  0.5580
  124MOL   C17227478   7.152   4.715   7.701  0.6391  0.2910 -0.3340
  124MOL   O17327479   7.199   4.785   7.807  0.5154  0.0243  0.2021
  124MOL   H17427480   7.315   4.580   7.717  1.1036  0.5946 -2.6295
  124MOL   H17527481   7.238   4.429   7.520  0.5126  0.1492 -1.6887
  124MOL   H17627482   6.913   4.703   7.452  0.3991  1.6576  0.0144
  124MOL   H17727483   7.000   4.852   7.626  0.3811  0.4700 -1.1411
  124MOL   C17827484   6.883   4.882   7.983 -0.1515  0.2709  0.0994
  124MOL   C17927485   6.980   4.803   7.917  0.3335 -0.1284 -0.2931
  124MOL   C18027486   7.106   4.852   7.887  0.1112 -0.3579 -0.4581
  124MOL   C18127487   7.142   4.981   7.934  0.1302 -0.2247  0.4648
  124MOL   C18227488   7.047   5.060   7.997  0.9737 -0.3461  0.4792
  124MOL   C18327489   6.917   5.011   8.030 -0.8693 -0.2379 -0.1491
  124MOL   O18427490   6.831   5.092   8.092  0.5786  0.1095  0.6192
  124MOL   H18527491   6.781   4.845   7.990 -0.5517  1.0903 -1.3430
  124MOL   H18627492   6.959   4.702   7.885 -1.7543  0.3866 -0.6509
  124MOL   H18727493   7.240   5.018   7.907  0.1931 -0.7382 -0.0398
  124MOL   H18827494   7.067   5.160   8.033  2.7008 -0.8995  1.1034
  124MOL   C18927495   6.705   5.166   0.176 -0.4431  0.6500 -0.3608
  124MOL   C19027496   6.747   5.183   0.042 -0.7522  0.2615 -0.2124
  124MOL   C19127497   6.797   5.072   8.223 -0.1937 -0.1390  0.1790
  124MOL   C19227498   6.789   4.947   0.022  0.2362  0.0408  0.2473
  124MOL   C19327499   6.726   4.921   0.142 -0.2419 -0.5551 -0.3699
  124MOL   C19427500   6.688   5.030   0.219 -0.0353 -0.1092  0.1940
  124MOL   O19527501   6.634   5.010   0.342 -0.3395 -0.0025 -0.6249
  124MOL   H19627502   6.667   5.246   0.238 -1.1188 -1.3821  1.9472
  124MOL   H19727503   6.741   5.275   8.241 -0.4646 -0.7548 -1.9570
  124MOL   H19827504   6.809   4.860   8.216 -1.7810  0.9442 -1.7776
  124MOL   H19927505   6.717   4.820   0.178  0.2022 -0.0264  1.2522
  124MOL   C20027506   6.276   4.979   0.259 -0.3660  0.7540  0.4143
  124MOL   C20127507   6.414   5.000   0.242  0.2518  0.2642 -0.4013
  124MOL   C20227508   6.498   4.995   0.353 -0.3669 -0.3594  0.0599
  124MOL   C20327509   6.440   4.955   0.477  0.1516 -0.2694  0.3992
  124MOL   C20427510   6.309   4.907   0.487 -0.7382 -0.2848  0.2389
  124MOL   C20527511   6.227   4.922   0.376 -0.1352 -0.5052 -0.7241
  124MOL   O20627512   6.094   4.886   0.387 -0.0101  0.2886 -0.6461
  124MOL   H20727513   6.219   4.995   0.169  2.2983 -0.7064 -1.6327
  124MOL   H20827514   6.450   5.030   0.145  1.4323 -1.2877 -0.4714
  124MOL   H20927515   6.507   4.954   0.562 -1.0023  0.0248  1.3097
  124MOL   H21027516   6.272   4.877   0.584 -0.1851  1.3575  0.9888
  124MOL   C21127517   5.932   5.212   0.363 -0.1452  0.3805  0.3910
  124MOL   C21227518   6.025   5.117   0.399 -0.3308  0.3331  0.1470
  124MOL   C21327519   6.001   4.983   0.371  0.1640 -0.2964  0.6025
  124MOL   C21427520   5.873   4.951   0.323  0.5220 -0.3998 -0.0067
  124MOL   C21527521   5.774   5.045   0.287 -0.0338  0.2529 -0.7792
  124MOL   C21627522   5.811   5.179   0.294  0.3300 -0.1210 -0.4674
  124MOL   O21727523   5.722   5.276   0.254 -0.7972 -0.0075 -0.1487
  124MOL   H21827524   5.957   5.316   0.375 -0.7447  0.5684  0.0412
  124MOL   H21927525   6.126   5.146   0.426 -0.2316 -1.1514  1.4332
  124MOL   H22027526   5.848   4.847   0.309  0.4377 -0.5040  0.9099
  124MOL   H22127527   5.677   5.016   0.248  0.3804 -0.8162 -1.0076
  124MOL   H22227528   5.751   5.363   0.278 -0.1897  0.2053 -1.6537
  125MOL     C127529   0.935   3.031   1.531  0.2878  0.6195 -0.3119
  125MOL     C227530   0.860   3.124   1.451 -0.5437  0.3232 -0.0309
  125MOL     C327531   0.900   3.143   1.316 -1.0215 -0.9366  0.5067
  125MOL     C427532   1.014   3.082   1.266 -0.2480 -0.5829 -0.1099
  125MOL     C527533   1.089   2.993   1.345 -0.1128 -0.0927 -0.4617
  125MOL     C627534   1.048   2.969   1.481 -0.4637  0.7987 -0.0129
  125MOL     O727535   1.124   2.884   1.558 -0.4896 -0.1026  0.0849
  125MOL     H827536   0.909   3.009   1.634 -0.1022 -0.9466 -0.7383
  125MOL     H927537   0.766   3.154   1.495 -0.8465  0.4477 -0.7480
  125MOL    H1027538   1.035   3.100   1.162 -1.1033 -0.3750 -0.2528
  125MOL    H1127539   1.185   2.963   1.306 -0.5164 -0.5177 -1.1254
  125MOL    H1227540   0.831   3.195   1.252  1.7740  0.5931 -1.3676
  125MOL    C1327541   1.090   2.518   1.501 -0.2893  0.6242 -0.1803
  125MOL    C1427542   1.119   2.656   1.481  0.2218 -0.4966  0.3878
  125MOL    C1527543   1.090   2.753   1.577  0.5222 -0.7333  0.6433
  125MOL    C1627544   1.023   2.713   1.695 -0.5015  0.2599  0.4223
  125MOL    C1727545   0.998   2.578   1.721 -0.3372 -0.5291  0.3371
  125MOL    C1827546   1.032   2.479   1.625  0.3633 -0.3885  0.2587
  125MOL    O1927547   1.001   2.341   1.640  0.9392  0.4428  0.6611
  125MOL    H2027548   1.123   2.448   1.425  1.3183  2.3407 -1.1138
  125MOL    H2127549   1.157   2.695   1.388 -0.6263  3.7491  1.6842
  125MOL    H2227550   0.987   2.780   1.772  0.4951  1.2155  0.0722
  125MOL    H2327551   0.939   2.558   1.809 -0.8892 -0.4640 -0.0125
  125MOL    C2427552   0.645   2.269   1.702  0.2182  0.0766  0.8592
  125MOL    C2527553   0.758   2.323   1.637  0.5045 -0.1544 -0.4807
  125MOL    C2627554   0.884   2.298   1.692 -0.2657  0.7115 -1.0431
  125MOL    C2727555   0.895   2.234   1.814  0.0222  0.4475 -0.1779
  125MOL    C2827556   0.778   2.189   1.885 -0.7478 -0.7842  0.4616
  125MOL    C2927557   0.657   2.198   1.822 -0.0632 -0.1579 -0.2469
  125MOL    O3027558   0.545   2.139   1.881  0.3097 -0.0343 -0.7127
  125MOL    H3127559   0.541   2.268   1.670  0.2107  0.3796  0.8747
  125MOL    H3227560   0.749   2.383   1.547  1.7909 -0.4147 -0.8010
  125MOL    H3327561   0.994   2.214   1.851  0.1599 -1.9020 -1.7341
  125MOL    H3427562   0.791   2.138   1.980  1.4656 -1.1689 -0.0043
  125MOL    C3527563   0.467   1.840   1.682  1.0468  0.2893 -0.4110
  125MOL    C3627564   0.523   1.924   1.774 -0.7273 -0.5334 -0.6991
  125MOL    C3727565   0.468   2.052   1.801 -0.3587  0.5524 -0.1105
  125MOL    C3827566   0.341   2.080   1.751 -0.1287 -0.2012  0.8678
  125MOL    C3927567   0.265   1.981   1.676 -0.9856  0.0066  0.2268
  125MOL    C4027568   0.333   1.864   1.634  0.0836  0.9104  0.6489
  125MOL    O4127569   0.271   1.782   1.542  0.5266 -0.6963 -0.5197
  125MOL    H4227570   0.525   1.755   1.650  2.5330  1.1201  0.0196
  125MOL    H4327571   0.617   1.896   1.819 -1.6015 -2.7349 -0.2104
  125MOL    H4427572   0.288   2.172   1.771  2.3701  1.4595  0.0747
  125MOL    H4527573   0.165   1.996   1.638 -0.4855 -0.6516 -1.3957
  125MOL    C4627574   0.208   1.884   1.195 -0.2090 -0.3250  0.5020
  125MOL    C4727575   0.197   1.869   1.331 -0.2271  0.3161 -0.0571
  125MOL    C4827576   0.299   1.810   1.411  1.1159 -0.3235  0.3031
  125MOL    C4927577   0.413   1.758   1.349  0.0421 -0.8621  0.4556
  125MOL    C5027578   0.427   1.765   1.214  0.2062 -0.1267  0.3862
  125MOL    C5127579   0.326   1.826   1.133  0.9479 -0.8886 -0.3391
  125MOL    O5227580   0.327   1.819   0.999  0.0451  0.1271 -0.2030
  125MOL    H5327581   0.124   1.928   1.143  0.2501 -0.4007 -0.3094
  125MOL    H5427582   0.106   1.901   1.381  0.7535  3.1115  0.0088
  125MOL    H5527583   0.483   1.710   1.417 -1.7234 -2.2845  1.3042
  125MOL    H5627584   0.509   1.708   1.176  0.1424 -2.7419  3.9154
  125MOL    C5727585   0.464   1.968   0.701 -0.2554  0.1794 -0.6088
  125MOL    C5827586   0.416   1.876   0.791  0.1769 -0.0179  0.2609
  125MOL    C5927587   0.378   1.917   0.917 -0.0044 -0.1290  0.1519
  125MOL    C6027588   0.391   2.052   0.955 -0.3357 -0.0012 -1.0047
  125MOL    C6127589   0.452   2.141   0.864 -0.1734  0.5406 -0.2524
  125MOL    C6227590   0.496   2.099   0.738  0.0882 -0.3104  0.1937
  125MOL    O6327591   0.554   2.186   0.654  0.4802 -0.4659  0.2703
  125MOL    H6427592   0.490   1.926   0.605  2.0472 -0.5590  0.2951
  125MOL    H6527593   0.409   1.773   0.757  0.5334 -0.8265  2.5337
  125MOL    H6627594   0.358   2.077   1.054  0.5273 -0.0571 -0.6986
  125MOL    H6727595   0.480   2.241   0.894 -0.8108  0.7057 -0.2135
  125MOL    C6827596   0.316   2.303   0.403  0.6690  0.4852 -0.7716
  125MOL    C6927597   0.373   2.269   0.529  0.2298 -0.0098  0.4150
  125MOL    C7027598   0.495   2.196   0.531  0.0876  0.4521 -0.6398
  125MOL    C7127599   0.554   2.156   0.408 -0.2909 -1.4272  1.4393
  125MOL    C7227600   0.492   2.178   0.286 -0.1377  0.7691  0.0129
  125MOL    C7327601   0.377   2.259   0.285  0.1153  0.0785 -0.7635
  125MOL    O7427602   0.328   2.311   0.164 -0.0962 -0.6502 -0.1617
  125MOL    H7527603   0.243   2.382   0.395  1.4159  0.9928 -3.0826
  125MOL    H7627604   0.330   2.297   0.623  0.3855 -0.1395  0.5256
  125MOL    H7727605   0.642   2.094   0.409  0.0904 -0.9047  1.0460
  125MOL    H7827606   0.543   2.147   0.196  0.0292  2.0014 -0.3239
  125MOL    C7927607   0.196   2.663   0.134 -0.2707  0.0610 -0.9920
  125MOL    C8027608   0.198   2.517   0.143  0.8466  0.9827 -0.0284
  125MOL    C8127609   0.318   2.446   0.149 -0.6124 -0.1758 -0.0669
  125MOL    C8227610   0.440   2.521   0.147 -0.9117 -0.5438  1.1166
  125MOL    C8327611   0.441   2.662   0.134  0.2436 -0.4413 -0.3341
  125MOL    C8427612   0.320   2.733   0.134  0.0179  0.0229 -0.0450
  125MOL    O8527613   0.316   2.865   0.120 -0.4734  0.0608 -0.7447
  125MOL    H8627614   0.098   2.701   0.110 -0.0004  0.5540 -1.3248
  125MOL    H8727615   0.108   2.458   0.145  0.3337  1.7614  0.1796
  125MOL    H8827616   0.537   2.478   0.170 -1.3083 -0.9030  2.1635
  125MOL    H8927617   0.536   2.711   0.150 -0.3593  0.5608  0.2520
  125MOL    C9027618   0.268   3.135   0.368 -0.4096  0.2328  0.2065
  125MOL    C9127619   0.248   3.045   0.263  0.5531 -0.1836 -0.0359
  125MOL    C9227620   0.348   2.953   0.222  0.0396 -0.1123 -0.5872
  125MOL    C9327621   0.480   2.967   0.276 -0.2560  0.0021  0.6923
  125MOL    C9427622   0.499   3.065   0.374 -0.1487 -0.1872  0.5363
  125MOL    C9527623   0.393   3.149   0.420  0.5129  0.3011 -0.2847
  125MOL    O9627624   0.421   3.253   0.508  0.6881 -0.1064  0.0228
  125MOL    H9727625   0.193   3.202   0.409 -0.7911 -0.2795  0.3394
  125MOL    H9827626   0.149   3.033   0.223 -0.0820  0.8456  1.1834
  125MOL    H9927627   0.567   2.913   0.240 -0.6255 -1.1486  1.4692
  125MOL   H10027628   0.601   3.074   0.410  0.2785  0.3571 -0.7697
  125MOL   C10127629   0.730   3.288   0.693  0.6852  0.3225 -0.6294
  125MOL   C10227630   0.633   3.297   0.596 -0.3321 -0.3984  0.5733
  125MOL   C10327631   0.515   3.224   0.604  0.3500 -0.6314 -0.3291
  125MOL   C10427632   0.493   3.136   0.713 -0.7582 -0.3881 -0.5503
  125MOL   C10527633   0.592   3.121   0.807 -0.3596 -0.7909  0.1441
  125MOL   C10627634   0.709   3.200   0.799  0.2621  0.1071 -0.0002
  125MOL   O10727635   0.805   3.188   0.894  0.1839  0.4825  0.3605
  125MOL   H10827636   0.817   3.352   0.695  0.6028  0.4509 -1.1789
  125MOL   H10927637   0.650   3.361   0.511 -2.1590  0.6466  0.9669
  125MOL   H11027638   0.395   3.095   0.733  0.0792 -1.7657  0.8414
  125MOL   H11127639   0.589   3.051   0.890  1.6396  0.2310  1.1023
  125MOL   C11227640   1.001   2.880   0.852 -0.0930  0.4059  0.4628
  125MOL   C11327641   0.894   2.966   0.877  1.3768  0.0367  0.0552
  125MOL   C11427642   0.912   3.105   0.871  0.0826  0.3529  0.0694
  125MOL   C11527643   1.037   3.160   0.828 -0.5351  0.0519  0.3211
  125MOL   C11627644   1.150   3.071   0.816 -1.1151  0.6331  0.2525
  125MOL   C11727645   1.126   2.932   0.812  0.2145 -0.0655  0.2417
  125MOL   O11827646   1.230   2.844   0.776  0.0417  0.0480  0.6996
  125MOL   H11927647   0.983   2.774   0.859  0.0414  0.4306  1.2314
  125MOL   H12027648   0.803   2.936   0.928  1.5531 -0.1638  0.2534
  125MOL   H12127649   1.041   3.267   0.811  2.0415 -0.1707 -0.6616
  125MOL   H12227650   1.247   3.106   0.783 -1.7192  2.2806  0.2211
  125MOL   C12327651   1.206   2.825   0.402  1.5060 -0.2546  0.5179
  125MOL   C12427652   1.219   2.874   0.536 -0.5885  0.0442 -0.0782
  125MOL   C12527653   1.222   2.791   0.652  0.2609  0.2941  0.2628
  125MOL   C12627654   1.212   2.659   0.622 -0.4299  0.3257 -0.9407
  125MOL   C12727655   1.201   2.603   0.493 -0.0718  0.1236 -0.6879
  125MOL   C12827656   1.201   2.683   0.384 -0.3162 -0.4972 -0.1124
  125MOL   O12927657   1.209   2.631   0.261  0.0559 -0.0528  0.4162
  125MOL   H13027658   1.221   2.883   0.313 -3.0374 -2.6778 -2.0187
  125MOL   H13127659   1.224   2.981   0.553  0.6740 -0.3895  2.4325
  125MOL   H13227660   1.199   2.591   0.706  0.8038  0.3077 -0.7561
  125MOL   H13327661   1.187   2.498   0.471 -1.2693  0.6202 -2.4015
  125MOL   C13427662   0.961   2.666   8.246  0.4380  0.1115  0.7215
  125MOL   C13527663   1.075   2.674   0.069 -0.4714 -0.0333  0.4051
  125MOL   C13627664   1.092   2.605   0.191 -0.3579 -0.1056  0.2429
  125MOL   C13727665   0.989   2.528   0.238  0.1530  1.1761  0.2753
  125MOL   C13827666   0.871   2.517   0.159  0.3534 -0.0634  0.5246
  125MOL   C13927667   0.851   2.594   0.045  0.9756 -0.0769 -0.5012
  125MOL   O14027668   0.735   2.581   8.228  0.1324 -0.4153 -0.4869
  125MOL   H14127669   0.948   2.729   8.160  0.3320 -1.7757 -0.6935
  125MOL   H14227670   1.162   2.730   0.037 -1.0792 -0.2494 -1.6728
  125MOL   H14327671   1.001   2.470   0.329 -1.4458 -0.7983 -0.7213
  125MOL   H14427672   0.796   2.451   0.200  0.7121 -0.0865  1.1545
  125MOL   C14527673   0.602   2.413   7.930 -1.2651  0.0290  0.2071
  125MOL   C14627674   0.616   2.506   8.035 -0.2211  0.1875  0.2633
  125MOL   C14727675   0.731   2.497   8.117  0.2695 -0.2940 -0.4264
  125MOL   C14827676   0.830   2.400   8.094 -0.3959  0.2591 -0.4336
  125MOL   C14927677   0.808   2.305   7.991 -0.4897 -0.3760  0.0350
  125MOL   C15027678   0.706   2.325   7.896  0.1137  0.1825 -0.3336
  125MOL   O15127679   0.705   2.252   7.777 -0.5150  0.4851 -0.1394
  125MOL   H15227680   0.518   2.425   7.863 -2.2342 -0.7602  1.2620
  125MOL   H15327681   0.554   2.592   8.058  1.4096  0.7240  2.8893
  125MOL   H15427682   0.918   2.379   8.154  0.2049  1.3139 -0.9315
  125MOL   H15527683   0.878   2.225   7.974 -0.5082 -0.7141  1.4794
  125MOL   C15627684   0.770   2.302   7.412  0.3895  0.2775 -0.2946
  125MOL   C15727685   0.732   2.246   7.535  0.5796 -0.2858 -0.1615
  125MOL   C15827686   0.737   2.318   7.658 -0.1484 -0.1708  0.4262
  125MOL   C15927687   0.773   2.455   7.650 -0.3100 -0.7059  0.4271
  125MOL   C16027688   0.812   2.516   7.530  0.1028  0.3056  0.8782
  125MOL   C16127689   0.812   2.433   7.411  0.0264  0.0452 -0.0747
  125MOL   O16227690   0.856   2.480   7.295  0.4321  0.2565  0.0448
  125MOL   H16327691   0.764   2.242   7.322  0.1900 -1.3556  0.7921
  125MOL   H16427692   0.711   2.141   7.539 -1.4704  0.1065 -0.0867
  125MOL   H16527693   0.777   2.514   7.741  0.6695  1.4224 -0.9676
  125MOL   H16627694   0.855   2.615   7.520  1.8062 -0.4938  0.1291
  125MOL   C16727695   0.726   2.806   7.188 -0.2193 -0.3165  0.1780
  125MOL   C16827696   0.802   2.714   7.259 -0.0970 -0.1363 -0.0280
  125MOL   C16927697   0.777   2.575   7.237  0.2391  0.0110 -0.8782
  125MOL   C17027698   0.679   2.534   7.148  0.0292 -0.1863  0.5129
  125MOL   C17127699   0.596   2.629   7.080  0.0656 -0.3755 -0.9348
  125MOL   C17227700   0.622   2.765   7.101 -0.3825 -0.2333  0.0795
  125MOL   O17327701   0.541   2.851   7.033  0.3091 -0.3160  0.3799
  125MOL   H17427702   0.748   2.912   7.186  0.2292 -0.4345 -1.9453
  125MOL   H17527703   0.882   2.751   7.321  0.0799 -0.5344 -0.0171
  125MOL   H17627704   0.652   2.430   7.140  2.6000 -0.6618 -2.9098
  125MOL   H17727705   0.514   2.586   7.025 -0.4013  0.6699 -1.0724
  125MOL   C17827706   0.279   2.979   7.265 -0.7054 -0.5228 -0.6787
  125MOL   C17927707   0.354   2.893   7.182  0.8232  0.2749  0.5056
  125MOL   C18027708   0.463   2.935   7.103  0.4241  0.0185 -0.2476
  125MOL   C18127709   0.485   3.071   7.090 -0.0909  0.3515  0.5071
  125MOL   C18227710   0.409   3.165   7.166 -0.2587 -0.9995  0.2881
  125MOL   C18327711   0.312   3.115   7.254 -0.0286  0.0236  0.0961
  125MOL   O18427712   0.244   3.196   7.336 -0.1952  0.3291 -0.5061
  125MOL   H18527713   0.194   2.951   7.325 -0.2420 -1.2258 -0.3445
  125MOL   H18627714   0.335   2.786   7.178  2.4038 -0.1781  3.5413
  125MOL   H18727715   0.559   3.108   7.020 -0.3522  0.8405  0.4874
  125MOL   H18827716   0.425   3.271   7.149  1.4047 -1.4637 -1.1724
  125MOL   C18927717   8.177   3.285   7.168  0.7055 -0.1909 -0.8884
  125MOL   C19027718   0.030   3.212   7.225 -0.1271 -0.4609 -0.1759
  125MOL   C19127719   0.142   3.271   7.285 -0.5790 -0.0972  0.0124
  125MOL   C19227720   0.143   3.415   7.288  0.1436  0.1321  1.2088
  125MOL   C19327721   0.027   3.480   7.237 -0.5090  0.3531  0.6776
  125MOL   C19427722   8.174   3.420   7.173  0.0639 -0.8919 -0.1918
  125MOL   O19527723   8.084   3.498   7.106  0.5327 -0.4761 -0.1527
  125MOL   H19627724   8.104   3.234   7.107  1.0158  0.9088 -2.2206
  125MOL   H19727725   0.027   3.104   7.227  0.3414 -0.4696  0.0976
  125MOL   H19827726   0.218   3.469   7.344  0.9025 -1.5716  1.8530
  125MOL   H19927727   0.032   3.588   7.248  0.2731  0.5699 -1.5325
  125MOL   C20027728   7.751   3.501   7.279 -0.0082  0.9700 -0.3972
  125MOL   C20127729   7.866   3.450   7.214 -0.1186  0.5163 -0.3898
  125MOL   C20227730   7.968   3.535   7.161  0.3876 -0.2718  0.0555
  125MOL   C20327731   7.951   3.674   7.188  0.4103 -0.9241  0.5829
  125MOL   C20427732   7.839   3.722   7.256 -0.5463  0.1266  0.6821
  125MOL   C20527733   7.731   3.643   7.293 -0.7118  0.0225  0.2254
  125MOL   O20627734   7.625   3.699   7.358  0.2350  0.5474  0.4640
  125MOL   H20727735   7.683   3.429   7.323  0.6003  1.1072  0.7915
  125MOL   H20827736   7.861   3.342   7.210  0.9264  0.3023  2.8971
  125MOL   H20927737   8.036   3.737   7.167  0.8861 -1.4412  0.9473
  125MOL   H21027738   7.830   3.828   7.275 -0.0313 -0.1505  2.5417
  125MOL   C21127739   7.347   3.472   7.459 -0.1242  0.4283  0.1809
  125MOL   C21227740   7.431   3.543   7.373 -0.7289  0.2544  0.0088
  125MOL   C21327741   7.534   3.625   7.429  0.2307  0.0243 -0.6102
  125MOL   C21427742   7.543   3.646   7.565  0.0819 -0.1813  0.4808
  125MOL   C21527743   7.453   3.583   7.647  0.0251  0.0715 -0.2568
  125MOL   C21627744   7.358   3.494   7.599 -0.5526  0.9009 -0.0552
  125MOL   O21727745   7.277   3.430   7.684 -0.4158  0.3696 -0.1584
  125MOL   H21827746   7.278   3.398   7.420  0.2243 -0.8671  1.9770
  125MOL   H21927747   7.427   3.515   7.269  1.8213 -1.0505  0.2300
  125MOL   H22027748   7.621   3.710   7.602  1.3160 -1.0520 -0.5332
  125MOL   H22127749   7.446   3.596   7.754  0.6321  0.9964 -0.3261
  125MOL   H22227750   7.197   3.390   7.653 -1.1475  1.8023 -0.1200
  126MOL     C127751   6.924   2.842   3.800 -0.3655 -0.7888 -0.2634
  126MOL     C227752   7.014   2.945   3.765  0.3738 -0.1560 -0.1225
  126MOL     C327753   7.151   2.932   3.808  0.6417 -0.0028  0.0037
  126MOL     C427754   7.187   2.823   3.883  0.5662  0.9597 -0.0411
  126MOL     C527755   7.098   2.719   3.924  0.1939 -0.7671 -0.5155
  126MOL     C627756   6.963   2.734   3.885  0.4855  0.5406  0.2275
  126MOL     O727757   6.863   2.654   3.932  0.1611 -0.1657 -0.3861
  126MOL     H827758   6.821   2.853   3.772  0.1200 -0.3385 -1.9752
  126MOL     H927759   6.972   3.032   3.715 -1.0472 -0.1220  1.0866
  126MOL    H1027760   7.286   2.819   3.926 -0.5586 -1.3043  2.4285
  126MOL    H1127761   7.135   2.636   3.983 -0.7208 -0.8582 -0.0596
  126MOL    H1227762   7.214   3.020   3.805  0.4485  0.1522  0.5391
  126MOL    C1327763   6.828   2.355   3.709 -0.0897 -0.1520  0.0791
  126MOL    C1427764   6.897   2.467   3.776  0.0658  0.2627  0.7350
  126MOL    C1527765   6.815   2.553   3.856 -0.2354  0.5608  0.5764
  126MOL    C1627766   6.679   2.521   3.882 -0.3536  0.8699  0.1234
  126MOL    C1727767   6.620   2.405   3.827  0.2012 -0.5914 -0.8844
  126MOL    C1827768   6.695   2.330   3.736 -0.1594  0.6708 -0.1465
  126MOL    O1927769   6.624   2.236   3.657  0.2727  0.0198 -0.2537
  126MOL    H2027770   6.872   2.292   3.632 -0.8048  0.4361 -0.8246
  126MOL    H2127771   7.005   2.471   3.769  0.1612 -3.3972 -1.3015
  126MOL    H2227772   6.623   2.587   3.947 -0.2627  0.9025  0.1679
  126MOL    H2327773   6.515   2.383   3.828 -0.2807  1.5221 -1.9344
  126MOL    C2427774   6.783   1.906   3.572 -0.0986  0.3188  0.0261
  126MOL    C2527775   6.727   2.032   3.553 -0.7512 -0.0283 -0.5460
  126MOL    C2627776   6.660   2.103   3.657  0.0457 -0.2612 -0.4606
  126MOL    C2727777   6.638   2.032   3.782 -0.6982 -0.4145  0.1996
  126MOL    C2827778   6.690   1.902   3.799  0.6738  0.2747 -0.4260
  126MOL    C2927779   6.766   1.841   3.693 -0.1106 -0.0916  0.3271
  126MOL    O3027780   6.825   1.713   3.717  0.2266 -0.1571  0.3815
  126MOL    H3127781   6.825   1.851   3.489  1.4858  1.0164  0.3516
  126MOL    H3227782   6.731   2.070   3.452  2.0428  1.9873  0.2703
  126MOL    H3327783   6.579   2.080   3.858 -0.8962 -0.7867  0.2852
  126MOL    H3427784   6.660   1.840   3.883  1.5654 -0.6070 -0.7448
  126MOL    C3527785   6.556   1.461   3.741  0.5827  0.0433  0.2933
  126MOL    C3627786   6.632   1.566   3.687 -0.1309  1.0577  0.5872
  126MOL    C3727787   6.745   1.609   3.763  0.9903  0.4847  0.5548
  126MOL    C3827788   6.777   1.552   3.884 -0.5293 -0.8147  0.0720
  126MOL    C3927789   6.702   1.444   3.935 -0.4892  0.4064 -1.1439
  126MOL    C4027790   6.594   1.402   3.865  0.5912  0.1571  0.6764
  126MOL    O4127791   6.516   1.306   3.925 -0.6290 -0.2094  0.3506
  126MOL    H4227792   6.466   1.422   3.697  0.1665  1.0342  0.2365
  126MOL    H4327793   6.614   1.608   3.589  1.5011 -0.0655 -0.2223
  126MOL    H4427794   6.864   1.600   3.926 -0.4226 -0.4896 -0.5092
  126MOL    H4527795   6.735   1.398   4.027  0.2125  1.1113 -1.0406
  126MOL    C4627796   6.280   1.051   3.797  0.0070  0.4124 -0.1462
  126MOL    C4727797   6.330   1.168   3.858  0.3879  0.7818 -0.0655
  126MOL    C4827798   6.470   1.192   3.863  0.7666 -0.1995 -0.0736
  126MOL    C4927799   6.558   1.101   3.800 -0.5289  0.0928  0.2593
  126MOL    C5027800   6.515   0.979   3.741  0.3323 -0.0531  0.0866
  126MOL    C5127801   6.370   0.957   3.741  0.3238  0.4737 -0.1974
  126MOL    O5227802   6.317   0.843   3.682  0.5502  0.4494  0.4651
  126MOL    H5327803   6.176   1.022   3.802  0.1168  0.3839  3.8093
  126MOL    H5427804   6.256   1.235   3.900  1.7017  0.7497  2.3375
  126MOL    H5527805   6.664   1.118   3.802  0.0639 -2.7866 -2.1663
  126MOL    H5627806   6.578   0.907   3.690 -2.2679 -1.9139 -0.5861
  126MOL    C5727807   6.341   0.543   3.899  0.8603 -0.0913 -0.4654
  126MOL    C5827808   6.378   0.651   3.819 -0.8692  0.2314 -0.2740
  126MOL    C5927809   6.281   0.734   3.761 -0.4247  0.0112 -0.3133
  126MOL    C6027810   6.142   0.701   3.779 -0.1011 -0.4476  0.3055
  126MOL    C6127811   6.106   0.584   3.853 -0.1206  0.0809 -0.0591
  126MOL    C6227812   6.208   0.505   3.912 -0.5776  0.6933 -0.3872
  126MOL    O6327813   6.175   0.388   3.976 -0.5997 -0.3086 -0.2208
  126MOL    H6427814   6.418   0.484   3.946  1.3367  1.9193  1.3385
  126MOL    H6527815   6.483   0.671   3.805 -1.1062  0.4296 -1.8286
  126MOL    H6627816   6.068   0.752   3.719  3.0214  1.1390 -2.3817
  126MOL    H6727817   6.003   0.553   3.864  0.0696  0.1046  1.9747
  126MOL    C6827818   5.883   0.282   4.189 -0.7113  0.3814 -0.1726
  126MOL    C6927819   5.980   0.290   4.084 -0.3378 -0.1756 -0.7405
  126MOL    C7027820   6.078   0.395   4.080  0.4976  0.4690  0.0542
  126MOL    C7127821   6.079   0.493   4.177 -0.3375  0.1082 -0.2737
  126MOL    C7227822   5.986   0.489   4.283  0.1350 -0.1614 -0.2222
  126MOL    C7327823   5.895   0.379   4.291  0.3337  0.4288 -0.1403
  126MOL    O7427824   5.804   0.363   4.399 -0.1914 -0.4601  0.6821
  126MOL    H7527825   5.817   0.197   4.189  0.1650 -0.3244 -1.4380
  126MOL    H7627826   5.988   0.205   4.017 -0.1421  0.8763 -2.0589
  126MOL    H7727827   6.150   0.574   4.167 -0.8870  0.7560  1.0145
  126MOL    H7827828   5.985   0.562   4.362  0.2492  1.4907 -1.7291
  126MOL    C7927829   5.494   0.551   4.292 -0.6864  0.2651  0.2703
  126MOL    C8027830   5.594   0.451   4.302 -0.2441  0.0641  0.0270
  126MOL    C8127831   5.697   0.454   4.395 -0.0464 -0.1378 -0.6916
  126MOL    C8227832   5.689   0.559   4.490 -0.1680  0.0386 -0.1533
  126MOL    C8327833   5.578   0.647   4.498  0.6574  0.5185  0.0301
  126MOL    C8427834   5.482   0.646   4.394 -0.3363  0.7851  0.0178
  126MOL    O8527835   5.374   0.737   4.390 -0.2350  0.1185 -0.7390
  126MOL    H8627836   5.432   0.554   4.204 -0.4660 -2.5075 -0.0226
  126MOL    H8727837   5.603   0.377   4.224 -1.4327 -0.5798  0.4800
  126MOL    H8827838   5.761   0.560   4.571 -0.0552 -1.1776 -0.2311
  126MOL    H8927839   5.574   0.714   4.583  0.5832  2.1287 -1.2311
  126MOL    C9027840   5.341   1.061   4.573 -0.1303  0.8567 -0.3052
  126MOL    C9127841   5.321   0.923   4.539 -0.6896  0.3023 -0.2136
  126MOL    C9227842   5.401   0.869   4.434 -0.1048 -0.1185  1.0597
  126MOL    C9327843   5.494   0.955   4.369 -0.1812 -0.4057 -0.5826
  126MOL    C9427844   5.516   1.088   4.409  0.1466  1.2154  0.3458
  126MOL    C9527845   5.438   1.137   4.511 -0.0302 -0.4454  0.0976
  126MOL    O9627846   5.456   1.269   4.536 -0.3152 -0.1627 -0.1600
  126MOL    H9727847   5.279   1.112   4.646 -2.1400 -1.4459 -0.3394
  126MOL    H9827848   5.242   0.864   4.583  0.6520 -1.1607  0.2975
  126MOL    H9927849   5.538   0.913   4.280 -2.3690 -1.4992 -1.1983
  126MOL   H10027850   5.588   1.146   4.354 -1.2836  0.9612 -1.8607
  126MOL   C10127851   5.370   1.409   4.862 -0.2152  0.0477 -0.1563
  126MOL   C10227852   5.360   1.362   4.731  1.2013  0.0921  0.0487
  126MOL   C10327853   5.468   1.310   4.664 -0.5294  0.1024  0.3112
  126MOL   C10427854   5.589   1.295   4.734 -0.1075  0.0536 -0.4432
  126MOL   C10527855   5.603   1.347   4.865 -0.0734  1.2717 -0.1486
  126MOL   C10627856   5.489   1.389   4.937 -0.5956  0.7052 -0.6624
  126MOL   O10727857   5.493   1.430   5.069  0.1486 -0.4822  0.1876
  126MOL   H10827858   5.293   1.460   4.918  0.8031  2.1055 -0.5599
  126MOL   H10927859   5.272   1.383   4.672  1.6670  2.6879  0.2484
  126MOL   H11027860   5.670   1.239   4.690 -0.2772  0.0316 -0.7270
  126MOL   H11127861   5.695   1.334   4.921 -0.1556  3.0005  0.4216
  126MOL   C11227862   5.346   1.164   5.289 -0.0003  0.1218  0.6056
  126MOL   C11327863   5.436   1.237   5.210  0.7143 -0.2350 -0.4241
  126MOL   C11427864   5.402   1.365   5.155 -0.0981  0.2255  0.0684
  126MOL   C11527865   5.284   1.429   5.193  0.0643 -0.1616 -0.2068
  126MOL   C11627866   5.203   1.369   5.290  0.2593 -0.5592  0.7110
  126MOL   C11727867   5.225   1.232   5.328  0.0955 -0.2742 -0.0390
  126MOL   O11827868   5.137   1.166   5.413 -0.4323  0.5339 -0.8473
  126MOL   H11927869   5.364   1.062   5.319 -2.4503 -0.4583  0.2506
  126MOL   H12027870   5.524   1.191   5.168  0.8612  0.5186 -0.9527
  126MOL   H12127871   5.271   1.527   5.150  2.8985  0.2143 -0.2823
  126MOL   H12227872   5.115   1.420   5.326  1.5391  1.5666  0.8773
  126MOL   C12327873   4.856   1.326   5.572 -0.0346 -0.0629  0.1916
  126MOL   C12427874   4.930   1.232   5.495  0.6244  0.1978  0.5449
  126MOL   C12527875   5.067   1.231   5.506  0.2851  0.1617 -0.4692
  126MOL   C12627876   5.128   1.322   5.601  0.2983 -0.1744  0.5698
  126MOL   C12727877   5.053   1.411   5.681 -0.0973 -0.3060  0.2060
  126MOL   C12827878   4.916   1.423   5.662  0.7719 -0.3730 -0.4501
  126MOL   O12927879   4.830   1.506   5.730  0.3326 -0.3288 -0.1429
  126MOL   H13027880   4.748   1.327   5.574 -0.0118  0.7160  3.0025
  126MOL   H13127881   4.877   1.166   5.428 -0.0024  0.7652  0.4787
  126MOL   H13227882   5.235   1.315   5.612  0.3123  1.3865  1.5793
  126MOL   H13327883   5.090   1.481   5.754 -0.0533 -0.8988  0.7582
  126MOL   C13427884   4.808   1.801   5.514 -0.1379 -0.2159 -0.5421
  126MOL   C13527885   4.782   1.672   5.565 -0.6133 -0.5067  0.2268
  126MOL   C13627886   4.836   1.642   5.687  0.4609 -0.5136  0.3191
  126MOL   C13727887   4.913   1.742   5.760  0.3022  0.2291 -0.4295
  126MOL   C13827888   4.928   1.879   5.711 -0.2803  0.3514 -0.4435
  126MOL   C13927889   4.874   1.908   5.585  0.3290  0.2173 -0.0729
  126MOL   O14027890   4.892   2.027   5.527 -0.4409  0.6830 -0.2571
  126MOL   H14127891   4.763   1.809   5.417  1.0771  1.7121 -0.9673
  126MOL   H14227892   4.754   1.592   5.499  0.2279 -0.6131 -0.0057
  126MOL   H14327893   4.960   1.709   5.851  0.7450 -0.7011 -0.9805
  126MOL   H14427894   4.975   1.959   5.765 -2.9325  1.0897  0.8535
  126MOL   C14527895   5.160   2.240   5.671  1.0066 -0.0440 -0.3366
  126MOL   C14627896   5.025   2.195   5.639  0.5457  0.0291 -0.0173
  126MOL   C14727897   5.015   2.091   5.543 -0.2386 -0.6021  0.5020
  126MOL   C14827898   5.130   2.041   5.479 -0.0055  0.9346  0.4300
  126MOL   C14927899   5.262   2.081   5.512 -0.1234 -0.0421  0.0272
  126MOL   C15027900   5.278   2.183   5.612  0.3215  0.2988  0.3705
  126MOL   O15127901   5.402   2.214   5.657  0.0731 -0.0388  0.5456
  126MOL   H15227902   5.168   2.317   5.746 -1.1672  2.1400 -2.2404
  126MOL   H15327903   4.941   2.245   5.685  0.5373  1.6528 -1.7745
  126MOL   H15427904   5.122   1.963   5.404 -0.4631  0.8431  0.5740
  126MOL   H15527905   5.344   2.024   5.471  0.6387  0.3694  0.9620
  126MOL   C15627906   5.732   2.041   5.620 -0.1913  0.2771 -0.1344
  126MOL   C15727907   5.617   2.122   5.598 -0.0308 -0.3552  0.0846
  126MOL   C15827908   5.497   2.114   5.668  0.1766  0.1090 -0.6994
  126MOL   C15927909   5.484   2.014   5.765  0.4204 -0.5390  0.0277
  126MOL   C16027910   5.590   1.926   5.790  0.1747 -0.5603  0.9887
  126MOL   C16127911   5.714   1.945   5.724 -0.1592 -0.2561 -0.6460
  126MOL   O16227912   5.822   1.872   5.764  0.3301  0.0124  0.3069
  126MOL   H16327913   5.825   2.046   5.567  0.6250 -0.7465  1.1633
  126MOL   H16427914   5.634   2.202   5.528  1.6603  0.3987  1.3130
  126MOL   H16527915   5.394   2.010   5.825  0.4195  0.5652  0.1131
  126MOL   H16627916   5.580   1.847   5.863  1.1806 -2.0262 -0.4037
  126MOL   C16727917   6.070   1.715   5.535  0.0844  0.4924 -0.0961
  126MOL   C16827918   6.016   1.793   5.636 -0.5242 -0.2878  0.2943
  126MOL   C16927919   5.881   1.780   5.679  0.0721  0.9346 -0.0217
  126MOL   C17027920   5.807   1.680   5.616  0.0241 -0.1123  0.8990
  126MOL   C17127921   5.859   1.602   5.503  0.8222  0.2558 -0.7849
  126MOL   C17227922   5.991   1.616   5.474 -0.8661  0.3338  0.1845
  126MOL   O17327923   6.047   1.535   5.378 -0.0689 -0.1819  0.7572
  126MOL   H17427924   6.172   1.734   5.506 -0.2028 -1.2330 -2.4100
  126MOL   H17527925   6.067   1.878   5.680 -0.7707 -0.4962  1.0048
  126MOL   H17627926   5.704   1.667   5.647 -0.7159 -1.0249 -1.7819
  126MOL   H17727927   5.798   1.531   5.449 -0.8578 -1.3126  2.9981
  126MOL   C17827928   6.359   1.428   5.526  0.9119  0.2463 -0.5478
  126MOL   C17927929   6.220   1.427   5.513 -0.7139 -0.4824  0.0833
  126MOL   C18027930   6.174   1.488   5.393 -0.1371  0.6303  1.1262
  126MOL   C18127931   6.262   1.517   5.282  0.1040 -0.4319 -0.1802
  126MOL   C18227932   6.404   1.504   5.302 -0.0611  0.4806  0.5331
  126MOL   C18327933   6.453   1.459   5.425 -0.1199  0.4097  0.2993
  126MOL   O18427934   6.588   1.446   5.437 -0.5698  0.4612 -0.4197
  126MOL   H18527935   6.399   1.397   5.621  5.9294  0.7991 -2.3146
  126MOL   H18627936   6.149   1.387   5.584 -0.9441 -2.5098 -1.2219
  126MOL   H18727937   6.224   1.552   5.187 -0.2939  0.0380  0.1574
  126MOL   H18827938   6.470   1.533   5.221 -0.5831  0.0383 -0.0494
  126MOL   C18927939   6.728   1.784   5.422 -0.0636  0.0391 -0.4572
  126MOL   C19027940   6.642   1.672   5.449 -0.9083 -0.7365  0.2795
  126MOL   C19127941   6.672   1.543   5.399 -0.6906 -0.0824  0.3418
  126MOL   C19227942   6.792   1.524   5.326  0.2951  0.1844 -0.7060
  126MOL   C19327943   6.871   1.634   5.291 -0.0325 -0.1440 -0.8137
  126MOL   C19427944   6.840   1.763   5.345  0.3659 -0.1838  0.5205
  126MOL   O19527945   6.921   1.870   5.317  0.4335 -0.4713 -0.7830
  126MOL   H19627946   6.716   1.872   5.482 -1.2806 -1.3746  1.4291
  126MOL   H19727947   6.557   1.694   5.512 -1.6300 -3.8825  0.5278
  126MOL   H19827948   6.827   1.431   5.283  3.5212  1.6704 -1.4230
  126MOL   H19927949   6.961   1.620   5.232 -0.4746  0.5842 -1.6743
  126MOL   C20027950   6.796   2.204   5.200 -0.3431 -0.1363  0.8285
  126MOL   C20127951   6.851   2.103   5.281 -0.1815 -0.2582  0.7696
  126MOL   C20227952   6.858   1.967   5.238 -0.6974 -0.2802 -0.3169
  126MOL   C20327953   6.797   1.934   5.113  0.1021  0.2092 -0.2845
  126MOL   C20427954   6.750   2.035   5.024 -0.0736 -0.0571  0.5275
  126MOL   C20527955   6.744   2.165   5.073 -0.3282 -0.1134 -0.1031
  126MOL   O20627956   6.676   2.261   5.005 -0.1164 -0.0944 -0.0938
  126MOL   H20727957   6.786   2.306   5.232 -1.1575 -0.0709  0.3753
  126MOL   H20827958   6.904   2.146   5.365 -1.7635  0.7205  1.2823
  126MOL   H20927959   6.803   1.832   5.079 -0.0601 -0.5976  2.0064
  126MOL   H21027960   6.699   2.012   4.931 -0.2066 -1.5907  0.9798
  126MOL   C21127961   6.422   2.503   5.098 -0.8720  0.2471 -0.9784
  126MOL   C21227962   6.544   2.443   5.046  0.2184 -0.7046  1.0443
  126MOL   C21327963   6.567   2.305   5.066 -1.1723 -0.8609  0.3205
  126MOL   C21427964   6.476   2.227   5.133  0.0702 -0.2241 -0.2663
  126MOL   C21527965   6.357   2.285   5.186  0.0157 -0.4058 -0.8946
  126MOL   C21627966   6.332   2.419   5.166  0.0002  0.2289 -0.7339
  126MOL   O21727967   6.207   2.471   5.202  0.4050 -0.2544 -0.6568
  126MOL   H21827968   6.404   2.607   5.076  0.2279  1.2805  2.7084
  126MOL   H21927969   6.612   2.508   4.993 -0.9128  0.3288  0.8480
  126MOL   H22027970   6.496   2.124   5.156  0.2702 -0.3032 -0.7920
  126MOL   H22127971   6.280   2.224   5.231 -1.8933  2.5748  0.0465
  126MOL   H22227972   6.195   2.564   5.218  1.1231  0.0873 -2.0861
  127MOL     C127973   3.846   1.748   8.148  0.1352 -0.5436 -0.0386
  127MOL     C227974   3.939   1.742   8.045  0.3746  0.5906 -0.1694
  127MOL     C327975   3.930   1.638   7.953  0.7210  0.0620  0.3518
  127MOL     C427976   3.823   1.545   7.951 -0.5023  0.0540 -0.1307
  127MOL     C527977   3.721   1.561   8.051  0.2717 -0.7868  0.2504
  127MOL     C627978   3.743   1.654   8.152  0.3346 -0.4585  0.0157
  127MOL     O727979   3.649   1.669   8.248 -0.7665 -0.2389 -0.4052
  127MOL     H827980   3.840   1.819   8.229  2.4036  0.5129 -0.7521
  127MOL     H927981   4.014   1.819   8.044 -1.1538  2.1279 -0.0668
  127MOL    H1027982   3.817   1.474   7.869 -0.9871 -0.3995  0.2886
  127MOL    H1127983   3.637   1.493   8.054  0.3535 -0.9365 -0.6984
  127MOL    H1227984   4.013   1.644   7.884 -1.4009  1.8934 -2.1839
  127MOL    C1327985   3.361   1.873   8.119  0.0598  0.6463 -1.3666
  127MOL    C1427986   3.491   1.842   8.166 -0.8140  0.0689  0.7007
  127MOL    C1527987   3.521   1.705   8.200 -0.5604 -0.3626  0.2768
  127MOL    C1627988   3.419   1.606   8.185  0.4793 -0.6396  0.0643
  127MOL    C1727989   3.292   1.636   8.134  0.5957  0.2087  0.7404
  127MOL    C1827990   3.259   1.771   8.107  1.0546 -0.3370  0.5014
  127MOL    O1927991   3.136   1.810   8.061  0.6043 -0.1402 -0.5106
  127MOL    H2027992   3.327   1.972   8.093  0.5081  1.6533  1.6881
  127MOL    H2127993   3.562   1.924   8.166 -0.6912 -0.0319 -0.7703
  127MOL    H2227994   3.444   1.501   8.189 -1.3565 -1.1387 -0.7151
  127MOL    H2327995   3.237   1.546   8.109  0.9838  0.5795 -1.5397
  127MOL    C2427996   2.881   1.637   7.857  0.6011  0.7792  0.1847
  127MOL    C2527997   2.949   1.697   7.964 -0.0761 -0.1071 -0.1820
  127MOL    C2627998   3.087   1.734   7.955  0.8051  0.0830 -0.0843
  127MOL    C2727999   3.153   1.719   7.833 -0.0545 -0.2679 -0.1389
  127MOL    C2828000   3.083   1.644   7.732 -0.5911  0.0563  0.5648
  127MOL    C2928001   2.950   1.602   7.739  0.3091 -0.2526 -0.5027
  127MOL    O3028002   2.894   1.519   7.645  1.4854 -0.6180  0.0427
  127MOL    H3128003   2.775   1.617   7.860  0.9855 -1.3258  0.7472
  127MOL    H3228004   2.889   1.720   8.050  1.4729 -0.0850  0.9243
  127MOL    H3328005   3.251   1.758   7.810 -0.5492  0.8056 -0.4527
  127MOL    H3428006   3.133   1.613   7.641 -1.2516  0.9850 -0.1268
  127MOL    C3528007   2.708   1.506   7.319  0.1820  0.0092 -0.0354
  127MOL    C3628008   2.768   1.471   7.439  0.2714  0.4611 -0.2867
  127MOL    C3728009   2.827   1.566   7.531 -0.0113 -0.3713 -0.1984
  127MOL    C3828010   2.824   1.703   7.491 -0.1642  0.1789 -0.1576
  127MOL    C3928011   2.757   1.736   7.376  0.3528  0.6488  0.5338
  127MOL    C4028012   2.705   1.641   7.290 -0.0443 -0.5649  0.0647
  127MOL    O4128013   2.636   1.677   7.181  0.0744  0.1728 -0.1624
  127MOL    H4228014   2.663   1.437   7.249 -0.8053  0.7741 -0.1842
  127MOL    H4328015   2.781   1.367   7.464  0.4460 -0.0796 -2.5007
  127MOL    H4428016   2.874   1.776   7.552  1.0818 -0.6672 -0.1357
  127MOL    H4528017   2.752   1.839   7.345 -3.1839 -0.0792 -1.5811
  127MOL    C4628018   2.376   1.925   7.219  0.1501 -0.2849 -0.9421
  127MOL    C4728019   2.505   1.870   7.203  0.4133  0.2379  0.6981
  127MOL    C4828020   2.515   1.732   7.190 -0.2019 -0.1612 -0.3278
  127MOL    C4928021   2.407   1.647   7.205  0.1142 -0.3045  0.6225
  127MOL    C5028022   2.278   1.705   7.231  0.7155 -0.4140  0.3539
  127MOL    C5128023   2.262   1.849   7.237 -0.7578 -0.3436 -0.6746
  127MOL    O5228024   2.145   1.907   7.264  0.2621 -0.9126 -0.2213
  127MOL    H5328025   2.352   2.030   7.208  0.9900  0.0929  0.6533
  127MOL    H5428026   2.596   1.929   7.203  0.3231  0.4346  3.1227
  127MOL    H5528027   2.421   1.540   7.213  1.7883 -0.0010  1.8120
  127MOL    H5628028   2.200   1.631   7.243  1.0967 -0.6951  1.1407
  127MOL    C5728029   2.141   2.235   7.429  0.2518 -0.0909 -0.2963
  127MOL    C5828030   2.145   2.140   7.327  1.1404  0.3207  0.2001
  127MOL    C5928031   2.149   2.004   7.362 -0.3085  0.2999 -0.1455
  127MOL    C6028032   2.142   1.961   7.499 -0.3487 -0.3213  0.1221
  127MOL    C6128033   2.159   2.061   7.600  0.5721  0.1184 -0.1087
  127MOL    C6228034   2.158   2.199   7.567  0.0027 -0.3833 -0.3252
  127MOL    O6328035   2.159   2.297   7.665 -0.3436  0.0451 -0.4306
  127MOL    H6428036   2.121   2.337   7.397 -0.4099 -0.7134 -1.9267
  127MOL    H6528037   2.137   2.173   7.224 -2.8525  0.1930  0.3969
  127MOL    H6628038   2.151   1.856   7.523 -0.4299 -0.3675 -0.0511
  127MOL    H6728039   2.176   2.030   7.702  2.9290 -0.2281 -0.5710
  127MOL    C6828040   2.268   2.637   7.574 -0.3709  0.0542 -1.2581
  127MOL    C6928041   2.185   2.526   7.599  0.2727  0.0372 -0.1053
  127MOL    C7028042   2.242   2.403   7.642  0.0296 -0.1181  0.7469
  127MOL    C7128043   2.378   2.397   7.671 -0.3501 -0.0511  0.5549
  127MOL    C7228044   2.460   2.506   7.647 -0.7095  0.6070 -0.1789
  127MOL    C7328045   2.408   2.626   7.595 -0.2887 -0.3768 -0.4468
  127MOL    O7428046   2.490   2.731   7.578 -0.1175  0.4916 -0.0793
  127MOL    H7528047   2.223   2.733   7.550 -1.9315  0.1194  1.6742
  127MOL    H7628048   2.078   2.530   7.582  0.3974 -1.0871 -1.2383
  127MOL    H7728049   2.429   2.308   7.703  1.6822 -0.3969 -3.4026
  127MOL    H7828050   2.565   2.499   7.670 -0.3601 -0.1532 -1.9270
  127MOL    C7928051   2.549   3.078   7.653  0.4215 -0.2448 -0.4384
  127MOL    C8028052   2.506   2.962   7.592 -0.6016 -0.2895 -0.6685
  127MOL    C8128053   2.492   2.843   7.661  0.1716  0.2093 -0.2932
  127MOL    C8228054   2.509   2.841   7.802  0.4374 -0.2472 -0.7148
  127MOL    C8328055   2.535   2.959   7.871 -0.1260 -0.2439  0.5507
  127MOL    C8428056   2.552   3.078   7.796 -0.1334 -0.7484  0.1341
  127MOL    O8528057   2.564   3.193   7.868  0.5668  0.0496 -0.3132
  127MOL    H8628058   2.571   3.164   7.592 -2.3746  0.3440 -0.6457
  127MOL    H8728059   2.505   2.971   7.484  0.7114 -1.1727 -0.7780
  127MOL    H8828060   2.490   2.754   7.863 -0.2042 -0.4567 -1.2130
  127MOL    H8928061   2.560   2.955   7.976  3.0067  2.3102 -0.0222
  127MOL    C9028062   2.245   3.353   7.967 -0.1315  0.8183  0.2136
  127MOL    C9128063   2.337   3.253   7.943  0.4227  0.5606  0.2663
  127MOL    C9228064   2.456   3.280   7.871 -0.3436 -0.2957 -0.2943
  127MOL    C9328065   2.469   3.413   7.820 -0.4350 -0.0816  0.2289
  127MOL    C9428066   2.367   3.511   7.839 -0.5552 -0.0792  0.0418
  127MOL    C9528067   2.255   3.483   7.912 -0.1829  0.4466 -0.5807
  127MOL    O9628068   2.154   3.575   7.930  0.2163  0.1436 -0.0548
  127MOL    H9728069   2.154   3.330   8.022  0.7026 -1.8179  0.5395
  127MOL    H9828070   2.344   3.160   7.998  0.4509 -0.4187 -1.3765
  127MOL    H9928071   2.552   3.447   7.760  0.6724  0.6503  2.1238
  127MOL   H10028072   2.385   3.607   7.793 -0.3830 -0.0449  0.1813
  127MOL   C10128073   1.863   3.496   7.721 -0.6325 -0.2633  0.5164
  127MOL   C10228074   1.997   3.529   7.755 -0.2646  0.1507 -0.3197
  127MOL   C10328075   2.030   3.535   7.892  0.9017 -0.2824  0.5344
  127MOL   C10428076   1.932   3.512   7.992  0.6643 -0.3720  0.3813
  127MOL   C10528077   1.797   3.485   7.954  0.4759  0.4308 -0.9063
  127MOL   C10628078   1.762   3.475   7.818 -0.4193 -0.1065  0.0603
  127MOL   O10728079   1.635   3.457   7.776  0.4656  0.3590  0.0387
  127MOL   H10828080   1.847   3.478   7.616  0.0327 -1.6971  0.6419
  127MOL   H10928081   2.074   3.540   7.680  0.0361  1.5680  0.1871
  127MOL   H11028082   1.959   3.531   8.094 -4.2330  1.6004  1.4548
  127MOL   H11128083   1.722   3.486   8.031  0.6294 -1.5227 -0.7177
  127MOL   C11228084   1.463   3.123   7.811  0.3365  0.0798 -0.5001
  127MOL   C11328085   1.521   3.247   7.852 -0.5831 -0.0390  0.3573
  127MOL   C11428086   1.584   3.329   7.755  0.4201 -0.3712  0.5915
  127MOL   C11528087   1.587   3.284   7.620  0.8011  0.2299  0.6360
  127MOL   C11628088   1.523   3.166   7.587  0.3653 -0.2845 -0.5507
  127MOL   C11728089   1.479   3.075   7.681 -0.0777 -0.3892 -0.1695
  127MOL   O11828090   1.428   2.957   7.646 -0.2118 -0.2400 -0.2928
  127MOL   H11928091   1.412   3.063   7.885  1.2720  1.7303  1.5289
  127MOL   H12028092   1.506   3.282   7.953 -2.9050 -0.0878  0.0690
  127MOL   H12128093   1.632   3.335   7.536 -0.0969  1.0313  0.6288
  127MOL   H12228094   1.522   3.132   7.484 -0.0660  0.0091 -0.6412
  127MOL   C12328095   1.724   2.736   7.678 -0.3661  0.4335  0.1573
  127MOL   C12428096   1.624   2.829   7.711 -0.9780 -0.3672  0.9365
  127MOL   C12528097   1.524   2.865   7.616  0.1134 -0.2473  0.6136
  127MOL   C12628098   1.533   2.810   7.488  0.2668 -0.2595  0.4301
  127MOL   C12728099   1.628   2.711   7.458 -0.6340  0.5001  1.1353
  127MOL   C12828100   1.723   2.670   7.557 -0.5137 -0.2800 -0.1334
  127MOL   O12928101   1.821   2.582   7.524 -0.2377  0.1672  0.4058
  127MOL   H13028102   1.809   2.721   7.742  0.4904  0.1899 -1.0187
  127MOL   H13128103   1.631   2.884   7.803  2.2109  1.8813 -0.5540
  127MOL   H13228104   1.473   2.843   7.405  0.2697 -0.9447  0.1523
  127MOL   H13328105   1.631   2.670   7.358  1.6525  0.0941  1.3440
  127MOL   C13428106   1.786   2.280   7.323 -0.1953 -0.0868  0.1227
  127MOL   C13528107   1.826   2.409   7.374  0.3591 -0.2698 -0.0575
  127MOL   C13628108   1.780   2.459   7.490 -0.3468  0.2912  0.8349
  127MOL   C13728109   1.690   2.377   7.567 -0.3644  0.6349 -0.0403
  127MOL   C13828110   1.655   2.248   7.523  0.1387  1.3710  0.2125
  127MOL   C13928111   1.705   2.193   7.404 -0.2396  0.0539  0.0306
  127MOL   O14028112   1.678   2.061   7.373  0.5525  0.0768  0.1856
  127MOL   H14128113   1.811   2.247   7.224 -0.3060  3.0348 -1.0122
  127MOL   H14228114   1.893   2.462   7.308 -0.4412 -2.2160 -2.5368
  127MOL   H14328115   1.645   2.418   7.656 -1.0873  0.1774 -0.1891
  127MOL   H14428116   1.577   2.196   7.577  3.1883 -2.6511  1.0032
  127MOL   C14528117   1.446   2.018   7.095 -0.0855  0.7204  0.1440
  127MOL   C14628118   1.499   2.039   7.223 -0.3559  0.5810  0.0827
  127MOL   C14728119   1.636   2.017   7.252 -0.2833 -0.1923  0.4442
  127MOL   C14828120   1.719   1.968   7.156  0.1889  0.2283  0.4416
  127MOL   C14928121   1.663   1.943   7.025 -0.4574 -0.2539 -0.1888
  127MOL   C15028122   1.530   1.968   6.993  0.4122  0.0272 -0.4661
  127MOL   O15128123   1.480   1.948   6.871 -0.3085 -0.0765  0.3338
  127MOL   H15228124   1.341   2.033   7.076  0.2792  3.3627 -0.0210
  127MOL   H15328125   1.437   2.068   7.307 -0.0642  0.6139  0.2858
  127MOL   H15428126   1.826   1.953   7.166  0.4939  1.6038 -0.5362
  127MOL   H15528127   1.730   1.915   6.944  2.8571  1.1227  1.9443
  127MOL   C15628128   1.193   1.717   6.835 -0.0415 -0.1017 -0.5630
  127MOL   C15728129   1.265   1.839   6.848 -0.4764  0.3913  0.6882
  127MOL   C15828130   1.406   1.835   6.847  0.1024  0.0843  0.1200
  127MOL   C15928131   1.473   1.710   6.832 -0.1512 -0.7741 -0.2507
  127MOL   C16028132   1.401   1.592   6.798  0.0402 -0.0867  0.9607
  127MOL   C16128133   1.257   1.597   6.799 -1.1467  0.0607  0.8137
  127MOL   O16228134   1.179   1.490   6.775 -0.0012  0.1112 -0.0453
  127MOL   H16328135   1.085   1.712   6.839  0.0247  0.0174  1.4852
  127MOL   H16428136   1.210   1.932   6.860 -3.0141 -1.2923  2.6541
  127MOL   H16528137   1.579   1.701   6.847 -0.3746  0.3675  2.3282
  127MOL   H16628138   1.451   1.500   6.772  0.3627  0.4884 -0.5373
  127MOL   C16728139   1.053   1.281   6.510  0.2062 -0.1326  0.5425
  127MOL   C16828140   1.075   1.340   6.636  0.4315  0.4558  0.4399
  127MOL   C16928141   1.167   1.439   6.649 -0.4846  0.1027 -0.3944
  127MOL   C17028142   1.239   1.482   6.537  0.0250 -0.1807  0.2444
  127MOL   C17128143   1.206   1.432   6.413  0.5786  0.2154  0.3963
  127MOL   C17228144   1.111   1.330   6.396  0.2914 -0.8544  0.3638
  127MOL   O17328145   1.082   1.279   6.273 -0.0105  0.0606 -0.1034
  127MOL   H17428146   0.976   1.205   6.504  0.3262 -0.3650  1.7498
  127MOL   H17528147   1.015   1.309   6.720  1.1241 -0.7974  0.4810
  127MOL   H17628148   1.322   1.551   6.542  1.6322 -2.0088 -0.5298
  127MOL   H17728149   1.262   1.464   6.326 -0.5688  3.6206  0.8426
  127MOL   C17828150   0.784   1.475   6.164 -0.6768 -0.4324 -0.0552
  127MOL   C17928151   0.903   1.445   6.230  0.3315 -0.3031  0.0546
  127MOL   C18028152   0.961   1.317   6.216  0.4968  0.1648  0.0362
  127MOL   C18128153   0.888   1.224   6.143 -0.1810  0.2243  0.4277
  127MOL   C18228154   0.769   1.256   6.074  0.3342 -0.2436  0.1426
  127MOL   C18328155   0.723   1.390   6.073 -0.8937  0.1656  0.1874
  127MOL   O18428156   0.619   1.419   5.990  0.7694 -0.6669 -0.0381
  127MOL   H18528157   0.750   1.578   6.170 -1.0570 -0.5066 -0.9033
  127MOL   H18628158   0.948   1.522   6.292 -0.6479  0.8314 -0.6240
  127MOL   H18728159   0.924   1.123   6.156 -1.0603  0.0160  1.2948
  127MOL   H18828160   0.713   1.181   6.020  0.3702  0.3762 -0.7693
  127MOL   C18928161   0.370   1.643   6.149 -0.1543 -0.7513 -0.2259
  127MOL   C19028162   0.454   1.526   6.133  0.1984  0.8558 -0.0799
  127MOL   C19128163   0.537   1.523   6.019  0.2727 -0.0087  0.0171
  127MOL   C19228164   0.528   1.625   5.926 -0.3929 -0.3786 -0.0511
  127MOL   C19328165   0.445   1.736   5.941  0.0585 -0.2695 -0.6092
  127MOL   C19428166   0.361   1.743   6.055  0.1646 -0.1445  0.4709
  127MOL   O19528167   0.271   1.845   6.063  0.1527  0.4851  0.3851
  127MOL   H19628168   0.299   1.645   6.230 -1.5540  0.3578 -1.4520
  127MOL   H19728169   0.454   1.455   6.213  0.8841  0.8886 -0.0472
  127MOL   H19828170   0.586   1.618   5.836 -0.8733  0.8156 -0.4566
  127MOL   H19928171   0.429   1.818   5.873 -0.7663 -0.8532 -1.1369
  127MOL   C20028172   8.187   1.863   6.220 -0.2634 -0.2281  0.2441
  127MOL   C20128173   0.065   1.899   6.185 -0.3141  0.7295  0.1953
  127MOL   C20228174   0.138   1.815   6.089 -0.2082 -0.4017 -0.2846
  127MOL   C20328175   0.066   1.722   6.012 -0.6460 -0.0543  0.1403
  127MOL   C20428176   8.185   1.693   6.038  0.4500 -0.9130  0.2765
  127MOL   C20528177   8.121   1.762   6.147  0.2935 -0.1215  0.0949
  127MOL   O20628178   7.988   1.726   6.173 -0.0161  0.1285 -0.5033
  127MOL   H20728179   8.137   1.915   6.301  0.2207 -1.5451  1.4073
  127MOL   H20828180   0.116   1.974   6.244 -2.3826  1.3951  1.1928
  127MOL   H20928181   0.110   1.673   5.926  0.5941  0.3941  0.5169
  127MOL   H21028182   8.141   1.614   5.979  0.0145 -0.5695  0.1351
  127MOL   C21128183   7.793   1.627   6.472 -0.3734  0.2286 -0.0873
  127MOL   C21228184   7.829   1.699   6.350 -0.2839 -0.3222 -0.5453
  127MOL   C21328185   7.953   1.663   6.289 -0.5983 -0.4709 -0.0564
  127MOL   C21428186   8.039   1.571   6.357 -0.8117 -0.9307 -0.0744
  127MOL   C21528187   8.004   1.504   6.476  0.6284 -0.3821 -0.9379
  127MOL   C21628188   7.880   1.533   6.536  0.3428 -0.0876 -0.4935
  127MOL   O21728189   7.839   1.464   6.646  0.1083  0.1996 -0.5267
  127MOL   H21828190   7.693   1.651   6.503 -0.9866  0.3002 -2.0220
  127MOL   H21928191   7.763   1.775   6.312 -1.7642 -0.6120  1.3770
  127MOL   H22028192   8.132   1.538   6.311  0.7709  1.0635  1.5931
  127MOL   H22128193   8.070   1.429   6.517  0.0307 -0.1525  0.4594
  127MOL   H22228194   7.765   1.502   6.690  0.5179 -0.5947  0.8873
  128MOL     C128195   5.156   2.778   6.294 -0.3949  0.3778 -0.0574
  128MOL     C228196   5.277   2.852   6.317  0.5021 -0.2325  0.1907
  128MOL     C328197   5.398   2.785   6.321 -0.7185  0.1603 -0.0234
  128MOL     C428198   5.407   2.647   6.295  0.5611 -0.1221  0.4385
  128MOL     C528199   5.289   2.577   6.262 -0.4289  0.0501 -0.0300
  128MOL     C628200   5.162   2.640   6.262  0.1933 -0.9659  0.0277
  128MOL     O728201   5.051   2.573   6.232 -0.4162  0.8316 -0.2034
  128MOL     H828202   5.053   2.809   6.282 -1.1188 -1.6943  0.6191
  128MOL     H928203   5.286   2.958   6.331  1.3546 -0.1182 -1.1330
  128MOL    H1028204   5.506   2.604   6.288 -0.5074 -2.5875 -0.0597
  128MOL    H1128205   5.279   2.472   6.236 -1.2451  0.2160 -0.4139
  128MOL    H1228206   5.484   2.850   6.331 -0.6302 -0.0840  0.8318
  128MOL    C1328207   4.778   2.580   6.477 -0.2036  0.5538 -0.0660
  128MOL    C1428208   4.853   2.610   6.364  0.5889 -0.1535 -0.5680
  128MOL    C1528209   4.970   2.533   6.336 -0.8107 -0.6746 -0.1432
  128MOL    C1628210   4.997   2.419   6.411  0.6743  0.1779  0.5166
  128MOL    C1728211   4.924   2.387   6.528  0.6644 -0.5239 -0.4408
  128MOL    C1828212   4.812   2.469   6.559 -0.1784  0.3576 -0.7380
  128MOL    O1928213   4.739   2.442   6.676  0.0502  0.7615 -0.0722
  128MOL    H2028214   4.691   2.641   6.496 -0.2934  0.2152  0.6392
  128MOL    H2128215   4.817   2.693   6.304  1.3846  0.0580 -0.7618
  128MOL    H2228216   5.076   2.350   6.385 -0.7845 -1.0719 -0.7181
  128MOL    H2328217   4.940   2.299   6.588  2.2294  1.8432  2.7327
  128MOL    C2428218   4.397   2.323   6.579 -0.2642 -0.2302 -0.1706
  128MOL    C2528219   4.535   2.346   6.580  0.3506 -0.6482  0.1878
  128MOL    C2628220   4.601   2.437   6.670  0.0328  0.4374  1.0785
  128MOL    C2728221   4.521   2.518   6.749  0.1581  0.6056  0.1419
  128MOL    C2828222   4.381   2.506   6.738  0.1202 -0.1034 -0.3232
  128MOL    C2928223   4.318   2.402   6.663 -0.4405  0.1370 -0.1123
  128MOL    O3028224   4.188   2.395   6.660  0.2712  0.1407 -0.8556
  128MOL    H3128225   4.342   2.261   6.510  0.3416 -1.2204  0.2316
  128MOL    H3228226   4.600   2.289   6.515 -0.0707 -2.9023  1.7142
  128MOL    H3328227   4.569   2.583   6.820  0.9374 -1.4149  1.5041
  128MOL    H3428228   4.323   2.571   6.801 -0.7174 -0.8769 -0.2859
  128MOL    C3528229   4.019   2.094   6.779 -0.2245  0.1639 -0.4583
  128MOL    C3628230   4.071   2.189   6.692  0.1092 -0.0341 -0.7458
  128MOL    C3728231   4.131   2.306   6.747  0.8257 -0.3967 -0.5843
  128MOL    C3828232   4.119   2.328   6.883 -0.1273 -0.3211  0.0636
  128MOL    C3928233   4.062   2.231   6.974 -0.6461 -0.0232  0.6340
  128MOL    C4028234   4.020   2.110   6.921  0.2790 -0.2743  0.1413
  128MOL    O4128235   3.978   2.008   7.001  0.0329 -0.1939  0.0307
  128MOL    H4228236   3.989   1.998   6.740 -0.5446 -0.0791  0.3817
  128MOL    H4328237   4.090   2.164   6.589 -0.0206  0.5761 -0.9192
  128MOL    H4428238   4.143   2.423   6.929 -1.6152  0.7106 -1.2463
  128MOL    H4528239   4.071   2.248   7.080  1.3776 -2.7469  0.9521
  128MOL    C4628240   4.305   1.909   7.158  0.0250  0.4759  0.1761
  128MOL    C4728241   4.211   1.961   7.060 -0.1297 -0.2399  0.3963
  128MOL    C4828242   4.075   1.963   7.092 -0.5510 -0.1449  0.2144
  128MOL    C4928243   4.032   1.912   7.215  0.0232 -0.0637 -0.2164
  128MOL    C5028244   4.122   1.861   7.308  0.7308 -0.4485  0.4347
  128MOL    C5128245   4.258   1.849   7.278 -0.2581 -0.3650  1.2737
  128MOL    O5228246   4.355   1.791   7.356  0.4259 -0.1646  0.7780
  128MOL    H5328247   4.411   1.911   7.136 -0.5368  3.5543 -2.7020
  128MOL    H5428248   4.249   2.009   6.971 -2.3330  3.0708  1.1601
  128MOL    H5528249   3.927   1.897   7.232  0.3806  0.7453  2.9751
  128MOL    H5628250   4.081   1.819   7.398  0.8778  2.3774  1.8780
  128MOL    C5728251   4.264   1.633   7.678  0.1467 -0.5461 -0.3938
  128MOL    C5828252   4.293   1.732   7.586 -0.0310 -0.3678  0.4862
  128MOL    C5928253   4.326   1.692   7.450 -0.5565 -0.1734 -0.1800
  128MOL    C6028254   4.314   1.555   7.418 -0.5627 -0.5430 -0.4095
  128MOL    C6128255   4.282   1.460   7.517 -0.2467 -0.0656 -0.4473
  128MOL    C6228256   4.251   1.495   7.648 -0.5211 -0.2653  1.0121
  128MOL    O6328257   4.209   1.407   7.740  0.1425 -0.5818  0.1841
  128MOL    H6428258   4.248   1.667   7.779  2.4320 -2.1473  0.5446
  128MOL    H6528259   4.302   1.836   7.613 -0.4261  0.8807 -3.8299
  128MOL    H6628260   4.333   1.512   7.321 -0.9987  1.0844 -1.2322
  128MOL    H6728261   4.290   1.358   7.483 -0.5840 -0.9345  1.9454
  128MOL    C6828262   4.476   1.237   7.914 -0.5296 -0.1314  0.0387
  128MOL    C6928263   4.394   1.272   7.809 -0.2309  0.6490  0.1070
  128MOL    C7028264   4.290   1.362   7.840  0.0599  0.0783  0.1159
  128MOL    C7128265   4.274   1.418   7.966 -0.2485 -0.3952 -1.0566
  128MOL    C7228266   4.359   1.379   8.070 -0.4864 -0.3304 -0.0330
  128MOL    C7328267   4.466   1.294   8.043  0.0059 -0.7696 -0.1456
  128MOL    O7428268   4.560   1.262   8.139  0.9503 -0.1556  0.4338
  128MOL    H7528269   4.556   1.166   7.899 -0.8853 -0.5918  0.3242
  128MOL    H7628270   4.398   1.233   7.708  2.7080  0.4318  0.2627
  128MOL    H7728271   4.198   1.493   7.986 -1.1836 -1.8708  1.1321
  128MOL    H7828272   4.339   1.422   8.167  1.3500 -1.9836  1.1094
  128MOL    C7928273   4.755   1.526   0.047  0.2344  0.5673 -0.4784
  128MOL    C8028274   4.640   1.447   0.022 -0.4832 -0.1887  0.0379
  128MOL    C8128275   4.661   1.353   8.169  0.1386  0.3101 -1.4841
  128MOL    C8228276   4.784   1.330   8.105 -0.3765 -0.0622  0.1445
  128MOL    C8328277   4.896   1.408   8.152  0.2603 -0.2908  0.4682
  128MOL    C8428278   4.882   1.507   8.251  0.6822 -0.8915 -0.4702
  128MOL    O8528279   4.985   1.583   0.041 -0.3306  0.3345 -0.0176
  128MOL    H8628280   4.749   1.600   0.126  2.6729 -1.8863  2.1213
  128MOL    H8728281   4.541   1.458   0.064 -1.6247 -0.2644 -2.4812
  128MOL    H8828282   4.804   1.254   8.031  0.0261  0.7137 -0.5601
  128MOL    H8928283   4.993   1.388   8.107 -1.4129 -1.2893 -2.8314
  128MOL    C9028284   5.153   1.397   0.313 -0.0056 -0.8523  0.1821
  128MOL    C9128285   5.097   1.421   0.184 -0.1920 -0.3184 -0.0329
  128MOL    C9228286   5.047   1.550   0.159 -0.1399  0.6169  0.1649
  128MOL    C9328287   5.035   1.638   0.267  0.2335 -0.5802  0.0661
  128MOL    C9428288   5.086   1.621   0.397 -0.1469  0.1158  0.3775
  128MOL    C9528289   5.147   1.493   0.416  0.1108 -0.2987  0.0084
  128MOL    O9628290   5.181   1.460   0.544  0.1481  0.5368  0.2269
  128MOL    H9728291   5.196   1.299   0.331  2.7096 -0.2489 -2.7005
  128MOL    H9828292   5.099   1.349   0.104 -1.8955  0.7921 -1.1134
  128MOL    H9928293   4.990   1.735   0.257  0.8074 -0.3118  0.0851
  128MOL   H10028294   5.081   1.689   0.480  0.5736  2.1610 -1.1896
  128MOL   C10128295   4.948   1.507   0.838 -0.5852 -0.2338 -0.3510
  128MOL   C10228296   5.055   1.528   0.744  0.0370  0.1735 -0.3046
  128MOL   C10328297   5.077   1.443   0.634  0.4974 -0.3512 -0.0929
  128MOL   C10428298   4.979   1.345   0.607  0.7758  0.3940 -0.8526
  128MOL   C10528299   4.879   1.317   0.704  0.0039  0.5602  0.1678
  128MOL   C10628300   4.865   1.399   0.817 -0.0504  0.3621  0.4033
  128MOL   O10728301   4.772   1.364   0.904  0.2044 -0.0645 -0.0191
  128MOL   H10828302   4.936   1.576   0.920  0.7565 -0.4799  0.0679
  128MOL   H10928303   5.124   1.609   0.763 -1.4913  1.5370 -0.5319
  128MOL   H11028304   4.981   1.276   0.524 -1.2158 -0.7181 -0.0044
  128MOL   H11128305   4.811   1.235   0.687  1.2380 -0.8909  1.9880
  128MOL   C11228306   4.438   1.502   0.826 -0.1543  0.8756  0.0300
  128MOL   C11328307   4.560   1.432   0.815 -0.2489  0.6229  0.7238
  128MOL   C11428308   4.660   1.442   0.907 -0.3184 -0.0472 -0.5803
  128MOL   C11528309   4.645   1.526   1.023  0.1319 -0.2497 -0.3850
  128MOL   C11628310   4.523   1.602   1.029 -0.1615  0.0289 -0.0073
  128MOL   C11728311   4.419   1.587   0.935  0.1199  0.0587 -0.5537
  128MOL   O11828312   4.293   1.640   0.959 -0.0313 -0.0226  0.0269
  128MOL   H11928313   4.366   1.498   0.746 -0.0787  1.7768 -0.0855
  128MOL   H12028314   4.565   1.372   0.725 -0.1445  0.1942  1.0119
  128MOL   H12128315   4.726   1.521   1.094  0.1580  0.8626 -0.3411
  128MOL   H12228316   4.496   1.659   1.116  2.4586  0.9058  0.2682
  128MOL   C12328317   4.112   1.462   1.232 -1.2074  0.4280  0.5661
  128MOL   C12428318   4.212   1.534   1.164 -0.5900  0.4566  0.1109
  128MOL   C12528319   4.197   1.560   1.023  0.5294  0.3547 -0.1123
  128MOL   C12628320   4.092   1.504   0.950 -0.3711 -0.2750  0.2216
  128MOL   C12728321   4.004   1.409   1.014 -0.4762 -0.0563 -0.8079
  128MOL   C12828322   4.015   1.391   1.157 -0.7842  0.4430  0.0807
  128MOL   O12928323   3.932   1.304   1.224 -0.4275 -0.2254  0.5261
  128MOL   H13028324   4.125   1.454   1.339  2.5561 -0.9668  0.0929
  128MOL   H13128325   4.300   1.568   1.216 -0.6086 -0.0412  0.4800
  128MOL   H13228326   4.095   1.521   0.843 -1.4553 -2.6557 -0.2112
  128MOL   H13328327   3.917   1.369   0.964  0.5179 -1.6537 -1.2885
  128MOL   C13428328   4.131   0.990   1.239  0.4748  0.1956 -0.1563
  128MOL   C13528329   4.095   1.123   1.204 -0.0422 -0.1205 -0.1798
  128MOL   C13628330   3.969   1.177   1.249  0.3425 -0.2339  1.0287
  128MOL   C13728331   3.891   1.098   1.331  0.5225 -0.0456 -0.1391
  128MOL   C13828332   3.927   0.966   1.367  0.3908 -0.3706 -0.3422
  128MOL   C13928333   4.047   0.913   1.323  0.0101  0.5438  0.8117
  128MOL   O14028334   4.080   0.783   1.355 -0.3022 -0.4644 -0.0776
  128MOL   H14128335   4.227   0.954   1.204  0.5851  1.5895 -1.3372
  128MOL   H14228336   4.164   1.177   1.141  0.1053  1.5259  1.3424
  128MOL   H14328337   3.794   1.130   1.368  0.3921 -2.0519  1.3629
  128MOL   H14428338   3.857   0.899   1.416  1.6518 -1.2474  0.2920
  128MOL   C14528339   3.794   0.544   1.342  0.2169  0.6345  0.2847
  128MOL   C14628340   3.882   0.642   1.392  0.2379 -0.9733  0.5703
  128MOL   C14728341   3.991   0.689   1.311  0.2157  0.3694 -0.4356
  128MOL   C14828342   4.011   0.629   1.189  0.1115 -0.6267 -0.0226
  128MOL   C14928343   3.925   0.527   1.143  0.2977  0.5765  0.4546
  128MOL   C15028344   3.814   0.483   1.220 -0.2603 -0.5291 -0.3092
  128MOL   O15128345   3.725   0.390   1.174  0.1236  0.4924  0.2931
  128MOL   H15228346   3.731   0.502   1.418  0.6619 -1.5453 -0.5017
  128MOL   H15328347   3.868   0.672   1.495  0.2499  1.4879 -0.1174
  128MOL   H15428348   4.095   0.670   1.136 -0.9233  1.7035  0.0827
  128MOL   H15528349   3.944   0.485   1.046 -0.3086  0.4023  0.4076
  128MOL   C15628350   3.554   0.436   0.842 -0.1237 -0.1297  0.0934
  128MOL   C15728351   3.660   0.416   0.932  0.5575 -0.5039 -0.8409
  128MOL   C15828352   3.637   0.427   1.075  0.4355  0.7219 -0.4093
  128MOL   C15928353   3.503   0.441   1.117  0.3763 -0.7617 -0.1254
  128MOL   C16028354   3.404   0.476   1.022 -0.3373 -0.6337 -0.5805
  128MOL   C16128355   3.427   0.487   0.884 -0.2904  0.1899  0.2240
  128MOL   O16228356   3.337   0.532   0.794  0.3714  0.0745  0.2410
  128MOL   H16328357   3.572   0.414   0.738  0.6799 -0.0502  0.2133
  128MOL   H16428358   3.757   0.378   0.903  1.0706  0.4280 -0.4030
  128MOL   H16528359   3.478   0.428   1.221  1.6897 -1.1863  0.1431
  128MOL   H16628360   3.305   0.502   1.057  0.7453  3.7281 -0.5140
  128MOL   C16728361   3.146   0.816   0.956 -0.2481  0.5779 -0.0941
  128MOL   C16828362   3.248   0.725   0.924 -0.5395 -0.2857  0.0565
  128MOL   C16928363   3.241   0.620   0.829 -0.1016  0.0929  0.0300
  128MOL   C17028364   3.121   0.613   0.758 -0.6179  0.1784  0.1628
  128MOL   C17128365   3.014   0.702   0.784 -0.4265  0.2879 -0.2467
  128MOL   C17228366   3.027   0.803   0.881 -1.1904 -0.0939  1.3797
  128MOL   O17328367   2.928   0.893   0.907 -0.0592  0.0781  0.7615
  128MOL   H17428368   3.154   0.893   1.032  0.3371  1.1891 -0.7681
  128MOL   H17528369   3.344   0.745   0.969  0.4097 -0.2259 -1.9313
  128MOL   H17628370   3.111   0.532   0.688 -0.2296  0.4643 -0.2173
  128MOL   H17728371   2.920   0.691   0.732  0.7696  2.4433 -2.9530
  128MOL   C17828372   2.812   0.931   1.254  1.0128 -0.3106  0.1563
  128MOL   C17928373   2.879   0.951   1.132 -0.8515 -0.6871  0.0038
  128MOL   C18028374   2.858   0.872   1.017  0.4201 -0.1223 -0.5682
  128MOL   C18128375   2.778   0.754   1.029 -0.6237  0.1168 -0.1292
  128MOL   C18228376   2.719   0.725   1.151  0.0587  0.1312  0.0978
  128MOL   C18328377   2.732   0.813   1.263 -0.3949 -0.6880 -0.0123
  128MOL   O18428378   2.666   0.800   1.384  0.1721  0.0096 -0.0216
  128MOL   H18528379   2.826   0.985   1.346 -1.7554  0.6177  0.0742
  128MOL   H18628380   2.945   1.036   1.129 -0.4711 -0.9551  0.6729
  128MOL   H18728381   2.758   0.693   0.942  0.3471 -1.0061  0.4107
  128MOL   H18828382   2.654   0.638   1.155 -0.2484  0.4679  3.7114
  128MOL   C18928383   2.480   0.544   1.558  0.1756 -0.0112  0.3214
  128MOL   C19028384   2.514   0.668   1.502  0.4309 -0.2345 -0.1823
  128MOL   C19128385   2.636   0.681   1.439  0.4497  0.4298  0.6978
  128MOL   C19228386   2.738   0.585   1.456 -0.0840 -0.8054  0.4670
  128MOL   C19328387   2.706   0.467   1.522  0.4560  0.1043 -0.0155
  128MOL   C19428388   2.571   0.440   1.577  0.1961 -0.1999  0.0126
  128MOL   O19528389   2.532   0.319   1.631  0.7697 -0.1456 -0.4757
  128MOL   H19628390   2.374   0.527   1.573 -0.1805  1.9220  0.0426
  128MOL   H19728391   2.448   0.752   1.486 -0.1310 -0.4542  0.9379
  128MOL   H19828392   2.843   0.594   1.431 -0.1748 -2.3368 -0.5400
  128MOL   H19928393   2.773   0.383   1.529 -1.9821 -1.8628  0.5514
  128MOL   C20028394   2.755   0.020   1.634  0.0993 -0.2665  0.0916
  128MOL   C20128395   2.674   0.125   1.585  0.6683 -0.1846 -0.2290
  128MOL   C20228396   2.624   0.222   1.676  0.1101 -0.6794 -0.0098
  128MOL   C20328397   2.675   0.239   1.811 -0.0936  0.9139 -0.3326
  128MOL   C20428398   2.758   0.134   1.859  0.6679  0.3702 -0.2468
  128MOL   C20528399   2.791   0.020   1.774  0.1985  0.4207  0.3107
  128MOL   O20628400   2.852   8.165   1.837  0.2092  0.2974  0.2297
  128MOL   H20728401   2.789   8.189   1.577  2.3816 -0.2435  1.3396
  128MOL   H20828402   2.653   0.117   1.480  2.3803  1.4880 -0.7265
  128MOL   H20928403   2.641   0.319   1.875  0.0735  0.8511 -0.1654
  128MOL   H21028404   2.788   0.131   1.962 -0.9430 -2.1001  0.1972
  128MOL   C21128405   2.623   7.876   1.771 -0.8136  0.8324 -1.1375
  128MOL   C21228406   2.674   8.004   1.816  0.2722 -0.0171  0.0812
  128MOL   C21328407   2.809   8.038   1.801 -0.6422  0.2513 -0.1950
  128MOL   C21428408   2.895   7.940   1.749 -0.4361  1.3080  0.6729
  128MOL   C21528409   2.847   7.813   1.703  0.1282 -0.1930 -0.1814
  128MOL   C21628410   2.710   7.780   1.718  0.3072 -0.0291  0.3120
  128MOL   O21728411   2.668   7.655   1.692  0.1261  0.2531  0.2943
  128MOL   H21828412   2.518   7.854   1.789 -0.5102 -0.7988 -1.2810
  128MOL   H21928413   2.595   8.070   1.850  2.6234  1.4793  2.9892
  128MOL   H22028414   2.996   7.967   1.722  0.1381  0.0348  1.5614
  128MOL   H22128415   2.916   7.748   1.651  0.9202  1.6665 -1.5189
  128MOL   H22228416   2.574   7.655   1.684  0.0635  0.4892  1.0387
  129MOL     C128417   3.410   5.664   3.071 -0.1085  0.5405 -0.6226
  129MOL     C228418   3.467   5.777   3.137 -0.2198  0.0958 -0.0508
  129MOL     C328419   3.470   5.901   3.062  0.4240  0.2137 -0.4099
  129MOL     C428420   3.406   5.909   2.936 -0.3209  0.1032 -0.1547
  129MOL     C528421   3.350   5.795   2.875  0.8119 -0.5208  0.2961
  129MOL     C628422   3.361   5.673   2.938  0.0138  0.3810 -0.2243
  129MOL     O728423   3.312   5.572   2.863 -0.4190 -0.1489  0.2048
  129MOL     H828424   3.409   5.570   3.124 -0.3854  1.5103  1.1387
  129MOL     H928425   3.514   5.769   3.234  0.1675  1.3099 -0.1261
  129MOL    H1028426   3.384   6.002   2.885 -0.9225 -0.7160 -1.3950
  129MOL    H1128427   3.304   5.801   2.777  0.0760 -1.0206  0.6045
  129MOL    H1228428   3.515   5.987   3.110 -1.7463  2.6168 -2.5310
  129MOL    C1328429   3.384   5.222   2.928  0.6562 -0.7411  0.2234
  129MOL    C1428430   3.392   5.354   2.878  0.4744 -0.0893  0.2950
  129MOL    C1528431   3.302   5.449   2.923  0.2602  0.1951  0.3394
  129MOL    C1628432   3.208   5.421   3.028 -0.3834  0.0839 -0.3021
  129MOL    C1728433   3.198   5.288   3.072 -0.0222 -0.3330 -0.4129
  129MOL    C1828434   3.291   5.192   3.033  0.1914  0.3838 -0.5461
  129MOL    O1928435   3.300   5.074   3.103  0.1894  0.1448  0.0661
  129MOL    H2028436   3.465   5.153   2.910  1.5926 -0.2191  2.2773
  129MOL    H2128437   3.446   5.385   2.790  0.5864 -0.4110  0.2462
  129MOL    H2228438   3.141   5.500   3.061  1.6757  0.5334  3.0871
  129MOL    H2328439   3.121   5.272   3.146  0.0397 -1.3169 -0.5535
  129MOL    C2428440   3.237   4.725   3.048 -0.3664 -0.0542 -0.1425
  129MOL    C2528441   3.301   4.840   3.090  0.4677 -0.5346  0.7132
  129MOL    C2628442   3.237   4.961   3.064 -0.3509  0.2410  0.6697
  129MOL    C2728443   3.118   4.970   2.984 -0.4111 -0.3381 -0.4035
  129MOL    C2828444   3.061   4.848   2.946 -0.6549 -0.0933 -0.5857
  129MOL    C2928445   3.117   4.727   2.982 -0.2377  0.0923  0.1702
  129MOL    O3028446   3.064   4.609   2.949  0.0653  0.2002 -0.3233
  129MOL    H3128447   3.281   4.628   3.064  1.7637  1.1570  1.7133
  129MOL    H3228448   3.402   4.827   3.125  0.6481 -2.6105 -0.4935
  129MOL    H3328449   3.070   5.066   2.976 -1.4382 -0.6973  1.1356
  129MOL    H3428450   2.971   4.843   2.886 -2.4489  0.3831  1.9332
  129MOL    C3528451   3.127   4.547   2.588  0.3294 -0.7363  0.0125
  129MOL    C3628452   3.066   4.601   2.709  0.0016  0.4671  0.4870
  129MOL    C3728453   3.116   4.555   2.832  1.0220 -0.0810  0.6992
  129MOL    C3828454   3.230   4.472   2.833 -0.1090 -0.2318  0.3596
  129MOL    C3928455   3.291   4.422   2.714  0.3022 -0.3162 -0.2311
  129MOL    C4028456   3.239   4.460   2.591  0.4663  0.7546  0.3401
  129MOL    O4128457   3.312   4.405   2.487  0.0806  0.1463 -0.5205
  129MOL    H4228458   3.084   4.584   2.496  5.2051  2.2849 -1.2154
  129MOL    H4328459   2.983   4.670   2.707 -0.6807 -0.3745 -3.3408
  129MOL    H4428460   3.275   4.457   2.930  0.7971  1.5738  0.2367
  129MOL    H4528461   3.370   4.349   2.724  0.9544  0.4951  0.6101
  129MOL    C4628462   3.154   4.351   2.158 -0.5860  0.0020 -0.2252
  129MOL    C4728463   3.234   4.400   2.261  0.3376  0.2382 -0.4651
  129MOL    C4828464   3.239   4.339   2.389  0.6567 -1.2500 -0.4473
  129MOL    C4928465   3.171   4.220   2.420  0.4416 -0.8348 -0.3721
  129MOL    C5028466   3.091   4.167   2.313 -0.1373 -0.1346  0.1054
  129MOL    C5128467   3.083   4.231   2.184 -0.2910  0.3435  0.0845
  129MOL    O5228468   2.997   4.186   2.085 -0.2533  0.0492  0.4044
  129MOL    H5328469   3.134   4.399   2.063 -1.6822 -1.2344 -0.6202
  129MOL    H5428470   3.299   4.484   2.245  1.3788 -0.4271  0.1710
  129MOL    H5528471   3.171   4.179   2.520  0.2808  0.2629  0.0834
  129MOL    H5628472   3.040   4.074   2.328 -1.0859  0.3985  0.2411
  129MOL    C5728473   3.009   3.881   1.880  1.1124  0.2088  0.0172
  129MOL    C5828474   2.965   3.976   1.976 -0.3263 -0.2225  0.1269
  129MOL    C5928475   3.053   4.086   2.002  0.8374  0.2127  0.1981
  129MOL    C6028476   3.177   4.096   1.936 -0.2711  0.7759 -0.0433
  129MOL    C6128477   3.220   3.999   1.840 -0.6578 -0.0174  0.0074
  129MOL    C6228478   3.133   3.894   1.812 -0.5939  0.1968  0.8391
  129MOL    O6328479   3.178   3.807   1.716 -0.1354  0.0053 -0.1887
  129MOL    H6428480   2.954   3.790   1.862  1.0836  0.3390 -0.5571
  129MOL    H6528481   2.871   3.961   2.026 -1.1975 -0.0005 -1.4012
  129MOL    H6628482   3.229   4.186   1.965  1.5899 -0.0270 -0.8668
  129MOL    H6728483   3.317   4.008   1.794  0.3069  0.2233  2.0314
  129MOL    C6828484   2.987   3.921   1.406 -0.0550  0.1830 -0.1054
  129MOL    C6928485   3.023   3.911   1.545 -0.0539  0.0436  0.1140
  129MOL    C7028486   3.135   3.829   1.589 -0.0667  0.2380 -0.1653
  129MOL    C7128487   3.219   3.764   1.488 -0.5825  0.0562 -0.5305
  129MOL    C7228488   3.185   3.786   1.355 -0.2526 -0.2959 -0.5957
  129MOL    C7328489   3.073   3.863   1.312 -0.3515 -0.7265 -0.1738
  129MOL    O7428490   3.056   3.874   1.183  0.7978  0.0467 -0.0986
  129MOL    H7528491   2.906   3.986   1.380 -0.1057  1.2388  2.4918
  129MOL    H7628492   2.963   3.964   1.617  1.4402  0.7316  0.8677
  129MOL    H7728493   3.299   3.698   1.516 -1.8201 -1.5673 -0.7295
  129MOL    H7828494   3.253   3.733   1.290  0.1486  1.4383 -1.6232
  129MOL    C7928495   3.295   4.116   1.029  0.1063 -0.1289  0.1300
  129MOL    C8028496   3.186   4.063   1.107 -0.8139  0.3381  0.5093
  129MOL    C8128497   3.158   3.925   1.109 -1.3261  0.4976  0.3617
  129MOL    C8228498   3.248   3.841   1.031 -0.0693 -0.7448  0.2909
  129MOL    C8328499   3.354   3.896   0.953  0.0242 -0.2582  0.2540
  129MOL    C8428500   3.384   4.031   0.960 -0.7445 -0.2861  0.4485
  129MOL    O8528501   3.501   4.074   0.903  0.2216  0.4318  0.5231
  129MOL    H8628502   3.319   4.221   1.034  0.8599 -0.3562  1.8046
  129MOL    H8728503   3.120   4.120   1.171  0.1403 -1.2617  3.0043
  129MOL    H8828504   3.224   3.736   1.022  0.1692 -0.7759  0.0257
  129MOL    H8928505   3.411   3.835   0.885 -1.9066 -3.2612  1.2359
  129MOL    C9028506   3.771   4.232   1.095 -0.3864  0.3515  0.4507
  129MOL    C9128507   3.658   4.215   1.016  0.9405  0.0201 -0.5712
  129MOL    C9228508   3.615   4.084   0.978 -0.5104  0.2766  0.0769
  129MOL    C9328509   3.696   3.975   1.020 -0.3650 -0.1909 -0.3219
  129MOL    C9428510   3.811   3.994   1.091  0.1912  0.1430  0.4945
  129MOL    C9528511   3.846   4.122   1.138  0.1523 -0.1561  0.4438
  129MOL    O9628512   3.958   4.151   1.202 -0.0314  0.7221  0.1641
  129MOL    H9728513   3.807   4.330   1.122 -0.5006  0.6830 -0.6002
  129MOL    H9828514   3.610   4.302   0.973  0.1919 -0.5683 -0.9440
  129MOL    H9928515   3.672   3.882   0.971  1.0014 -1.9294  2.2243
  129MOL   H10028516   3.880   3.913   1.112 -1.5992 -1.7618 -0.7535
  129MOL   C10128517   4.089   3.894   1.418 -0.8105  0.1812  0.5612
  129MOL   C10228518   4.081   3.987   1.313 -0.0575  0.0448 -0.1184
  129MOL   C10328519   3.981   4.082   1.317  0.7848  0.2590 -0.2824
  129MOL   C10428520   3.888   4.093   1.421  0.7852  0.0170  0.5342
  129MOL   C10528521   3.912   4.022   1.534  0.6255  0.3930 -0.1108
  129MOL   C10628522   4.015   3.924   1.538 -0.1548  0.0354 -0.5164
  129MOL   O10728523   4.057   3.863   1.653  0.3454  0.2879 -0.1029
  129MOL   H10828524   4.164   3.817   1.417 -3.3511 -2.3649 -1.6200
  129MOL   H10928525   4.143   3.985   1.225 -0.1654 -0.5713 -0.1827
  129MOL   H11028526   3.801   4.157   1.421  0.6141 -0.1882 -1.4148
  129MOL   H11128527   3.854   4.046   1.622  0.2016 -0.2705 -0.2053
  129MOL   C11228528   3.868   3.560   1.752  0.2154 -0.2075 -0.3090
  129MOL   C11328529   3.961   3.648   1.685 -0.1056  0.1601 -0.1237
  129MOL   C11428530   3.966   3.784   1.718 -0.2172  0.2471 -0.0802
  129MOL   C11528531   3.876   3.829   1.812 -0.1614 -0.4350 -0.5971
  129MOL   C11628532   3.782   3.752   1.885 -0.1240  0.2667 -0.0460
  129MOL   C11728533   3.779   3.612   1.852 -0.2247  0.4776 -0.2523
  129MOL   O11828534   3.707   3.524   1.922  0.1685 -0.2767 -0.3779
  129MOL   H11928535   3.878   3.454   1.732 -0.9147 -0.8190  2.1147
  129MOL   H12028536   4.025   3.599   1.613  0.2802 -2.1615  1.7342
  129MOL   H12128537   3.876   3.936   1.831 -1.5115 -0.6892  0.9720
  129MOL   H12228538   3.726   3.806   1.959  1.0935 -0.4521  1.4201
  129MOL   C12328539   3.407   3.465   1.712 -0.3091 -0.4619  0.4706
  129MOL   C12428540   3.541   3.463   1.759  0.8301 -0.2511  0.2745
  129MOL   C12528541   3.574   3.516   1.883  0.3989 -0.1484 -0.2556
  129MOL   C12628542   3.474   3.556   1.976 -0.2864  0.5941 -0.3891
  129MOL   C12728543   3.339   3.561   1.932 -0.4052  0.0403 -0.0728
  129MOL   C12828544   3.307   3.523   1.799 -0.1040 -0.4316  0.2973
  129MOL   O12928545   3.175   3.509   1.768  0.0560  0.1810  0.1416
  129MOL   H13028546   3.378   3.422   1.618  2.5718 -1.1637 -0.1275
  129MOL   H13128547   3.616   3.421   1.695  0.8831  0.3920 -0.0874
  129MOL   H13228548   3.512   3.599   2.067  0.3348 -1.5790  0.4023
  129MOL   H13328549   3.263   3.598   1.999 -2.0579  1.8009 -2.7776
  129MOL   C13428550   2.899   3.268   1.777  0.1274  0.6505 -0.2355
  129MOL   C13528551   2.974   3.388   1.776 -0.7911  0.4904  0.7909
  129MOL   C13628552   3.114   3.390   1.789  0.2409  0.1482  0.1090
  129MOL   C13728553   3.175   3.269   1.826  0.6368 -0.1569 -0.2297
  129MOL   C13828554   3.096   3.153   1.841 -0.1542 -0.7658  0.0575
  129MOL   C13928555   2.962   3.153   1.815  0.1332  0.2953  0.3825
  129MOL   O14028556   2.892   3.039   1.834 -0.3306 -0.0663 -0.3246
  129MOL   H14128557   2.792   3.281   1.768  0.1594  1.9211  1.0844
  129MOL   H14228558   2.925   3.479   1.742  1.1456  0.4012 -2.4509
  129MOL   H14328559   3.279   3.270   1.853  0.4829 -2.7565  0.6233
  129MOL   H14428560   3.144   3.069   1.891  0.3193 -0.0184  0.8880
  129MOL   C14528561   2.693   3.002   2.141 -0.4525  0.5576  0.2633
  129MOL   C14628562   2.729   3.044   2.013  0.1949 -0.0303 -0.2681
  129MOL   C14728563   2.853   3.005   1.961 -0.0165 -0.5948 -0.1006
  129MOL   C14828564   2.930   2.905   2.029  0.3790 -0.7055 -0.4756
  129MOL   C14928565   2.893   2.862   2.157  0.3808  0.3151 -0.7431
  129MOL   C15028566   2.771   2.909   2.214 -0.0189 -0.3176 -0.1060
  129MOL   O15128567   2.730   2.874   2.340 -0.1882  0.7589  0.4711
  129MOL   H15228568   2.609   3.056   2.180  0.4800  4.0026 -2.2638
  129MOL   H15328569   2.669   3.118   1.963 -2.7266 -0.3922  2.5430
  129MOL   H15428570   3.027   2.887   1.984  0.7521  1.9413 -0.8139
  129MOL   H15528571   2.955   2.801   2.221 -2.8110 -1.3881  0.8731
  129MOL   C15628572   2.869   3.126   2.579 -0.5120 -0.2116  1.0470
  129MOL   C15728573   2.863   3.030   2.476 -0.4438 -0.1620  0.2767
  129MOL   C15828574   2.738   2.972   2.444 -0.4367 -0.1242  0.8106
  129MOL   C15928575   2.619   3.040   2.494  0.1980 -0.8195 -0.5754
  129MOL   C16028576   2.630   3.142   2.589  0.6587 -0.5604  0.2937
  129MOL   C16128577   2.754   3.186   2.629 -0.2694 -0.3533  0.1394
  129MOL   O16228578   2.760   3.282   2.722  0.0186 -0.3750 -0.3755
  129MOL   H16328579   2.968   3.164   2.602 -0.5890  0.1588  0.7536
  129MOL   H16428580   2.948   2.982   2.429  0.1320 -0.1037  1.2445
  129MOL   H16528581   2.520   3.006   2.467 -0.1080 -0.6179  0.2686
  129MOL   H16628582   2.552   3.182   2.651 -0.0228 -1.0829 -0.2149
  129MOL   C16728583   2.944   3.607   2.737  0.1184 -0.6112 -0.0169
  129MOL   C16828584   2.882   3.485   2.775  0.0556  0.0476  0.5316
  129MOL   C16928585   2.806   3.407   2.685 -0.1774 -0.2764 -0.6173
  129MOL   C17028586   2.780   3.459   2.554  0.7207 -0.5533  0.4239
  129MOL   C17128587   2.837   3.580   2.519 -0.1574  0.0529  0.0869
  129MOL   C17228588   2.923   3.655   2.610 -0.5946  0.3012 -0.0711
  129MOL   O17328589   2.983   3.775   2.582  0.1638 -0.2989  1.0873
  129MOL   H17428590   3.010   3.650   2.811 -2.2413  1.6377  0.8661
  129MOL   H17528591   2.907   3.451   2.874  1.2182 -1.2440 -0.1947
  129MOL   H17628592   2.716   3.413   2.480  1.6756  0.9413 -1.3832
  129MOL   H17728593   2.822   3.625   2.422  2.8550  0.0753 -0.4047
  129MOL   C17828594   3.140   3.811   2.257  0.8162 -0.2924 -0.0292
  129MOL   C17928595   3.041   3.808   2.359  0.3822 -0.4570 -0.0350
  129MOL   C18028596   3.082   3.767   2.484 -0.2892 -0.5021  0.3413
  129MOL   C18128597   3.212   3.732   2.514 -0.3307  0.5486  0.0171
  129MOL   C18228598   3.307   3.727   2.407  0.3432  0.5852  0.2816
  129MOL   C18328599   3.270   3.770   2.281  0.0091  0.2184 -0.5416
  129MOL   O18428600   3.364   3.782   2.186 -0.0111  0.6033 -0.0422
  129MOL   H18528601   3.119   3.843   2.157 -0.9994  2.5331  1.1970
  129MOL   H18628602   2.941   3.825   2.322  1.1085 -0.5839 -2.1449
  129MOL   H18728603   3.240   3.702   2.614  0.6120  1.3121 -0.0072
  129MOL   H18828604   3.405   3.687   2.426 -0.7056 -2.7933 -1.1257
  129MOL   C18928605   3.490   4.128   2.209  0.2629 -0.1861  0.0601
  129MOL   C19028606   3.442   4.009   2.250 -0.9367  0.6338 -0.3064
  129MOL   C19128607   3.433   3.899   2.160  0.3369  0.4720  0.1157
  129MOL   C19228608   3.475   3.920   2.024 -0.0918  0.4856  0.3430
  129MOL   C19328609   3.529   4.044   1.986  0.0711 -0.1812  0.2331
  129MOL   C19428610   3.536   4.152   2.078  0.7769  0.2474 -0.0778
  129MOL   O19528611   3.578   4.275   2.033  0.2131 -0.9734  0.7173
  129MOL   H19628612   3.501   4.204   2.285  0.3710 -1.6773  1.5421
  129MOL   H19728613   3.398   3.999   2.349  0.7957 -0.2401  0.4064
  129MOL   H19828614   3.459   3.841   1.952 -0.0995  0.0510  0.8118
  129MOL   H19928615   3.571   4.053   1.887 -0.9144  1.2606 -0.0774
  129MOL   C20028616   3.353   4.408   1.771  0.4000 -0.4907 -0.5826
  129MOL   C20128617   3.446   4.323   1.837 -0.5199  0.6284 -0.2148
  129MOL   C20228618   3.487   4.356   1.969 -0.1493  0.3099  0.5488
  129MOL   C20328619   3.441   4.475   2.027 -0.2014  0.0440  0.2154
  129MOL   C20428620   3.333   4.540   1.970  0.2852 -0.0405 -0.6227
  129MOL   C20528621   3.288   4.514   1.841 -0.3633  0.2706  0.2493
  129MOL   O20628622   3.185   4.592   1.786 -0.4302 -0.5823  0.1274
  129MOL   H20728623   3.333   4.387   1.667  0.3828  1.4210 -0.9746
  129MOL   H20828624   3.495   4.241   1.788 -0.4223  1.6292 -1.8324
  129MOL   H20928625   3.481   4.509   2.122 -1.1166 -0.8830  0.9402
  129MOL   H21028626   3.281   4.624   2.011 -0.1078  0.4921 -2.1706
  129MOL   C21128627   2.821   4.578   1.846  0.3358 -0.1068 -1.3442
  129MOL   C21228628   2.955   4.620   1.846  0.4359 -0.7926  0.7478
  129MOL   C21328629   3.060   4.540   1.797 -0.3327  0.5532 -0.2215
  129MOL   C21428630   3.032   4.406   1.774  0.6710  0.8687 -0.2436
  129MOL   C21528631   2.901   4.355   1.797 -0.3357 -0.2313 -0.4067
  129MOL   C21628632   2.792   4.440   1.824 -0.0052 -0.0292  0.6077
  129MOL   O21728633   2.663   4.393   1.839 -0.6112 -0.5102  0.9976
  129MOL   H21828634   2.747   4.650   1.875 -0.8554 -1.4252 -1.0423
  129MOL   H21928635   2.982   4.723   1.867  0.5550 -0.1770 -2.2353
  129MOL   H22028636   3.102   4.333   1.734  0.7084  0.2744  0.8870
  129MOL   H22128637   2.882   4.252   1.771  2.3644 -0.2678 -2.4904
  129MOL   H22228638   2.593   4.456   1.844 -0.7828 -0.2133 -3.2364
  130MOL     C128639   5.045   8.151   2.423 -0.1072  0.4483 -0.1288
  130MOL     C228640   4.990   8.221   2.311  0.1473 -0.5281 -0.0391
  130MOL     C328641   5.037   8.196   2.184 -0.0473 -0.0969 -0.2294
  130MOL     C428642   5.132   8.095   2.155  0.2405 -0.3046  0.4655
  130MOL     C528643   5.187   8.027   2.263 -0.0692 -0.5475 -0.4295
  130MOL     C628644   5.136   8.045   2.395  0.4769  0.3270 -0.2384
  130MOL     O728645   5.191   7.966   2.495 -0.3647  0.3891 -0.2234
  130MOL     H828646   5.010   8.167   2.524  0.0328  1.2642 -0.2046
  130MOL     H928647   4.911   0.040   2.324  0.2961 -0.2394 -0.7339
  130MOL    H1028648   5.166   8.087   2.053  1.1014  0.1957  0.7158
  130MOL    H1128649   5.263   7.954   2.240 -1.3412 -1.8941 -0.4400
  130MOL    H1228650   4.992   8.248   2.101  0.6852 -1.7549 -1.6975
  130MOL    C1328651   5.043   7.794   2.791  0.8457 -0.5285 -0.2062
  130MOL    C1428652   5.105   7.898   2.712  0.0336  0.3450 -0.3052
  130MOL    C1528653   5.111   7.884   2.573 -0.1883  0.9005  0.4500
  130MOL    C1628654   5.048   7.770   2.523 -0.4846  0.4973 -0.3373
  130MOL    C1728655   4.960   7.690   2.592 -0.3075  0.3721 -0.6121
  130MOL    C1828656   4.958   7.696   2.735 -0.6050  0.3337  1.0412
  130MOL    O1928657   4.889   7.601   2.805 -0.1452 -0.1933  0.6686
  130MOL    H2028658   5.041   7.802   2.898  1.2346  0.2535 -0.2571
  130MOL    H2128659   5.168   7.977   2.750  2.5701 -1.7858  0.0525
  130MOL    H2228660   5.063   7.760   2.416  1.0213  4.5960 -0.5805
  130MOL    H2328661   4.893   7.623   2.540  0.2306  1.9317 -3.4742
  130MOL    C2428662   4.742   7.655   3.139 -0.2037  0.5162  0.2360
  130MOL    C2528663   4.843   7.647   3.043 -0.1237  1.0298  0.3781
  130MOL    C2628664   4.804   7.640   2.902  0.3334 -0.8167  0.1646
  130MOL    C2728665   4.670   7.668   2.867 -0.1281  1.0417 -0.8674
  130MOL    C2828666   4.571   7.686   2.969  0.2256  0.1783  0.2644
  130MOL    C2928667   4.608   7.675   3.107  0.1624  0.8285  0.4068
  130MOL    O3028668   4.521   7.691   3.210  0.1717 -0.6062 -0.4458
  130MOL    H3128669   4.768   7.641   3.243  0.5749  0.3492  0.0194
  130MOL    H3228670   4.945   7.628   3.073 -1.1955 -0.8419  2.9734
  130MOL    H3328671   4.632   7.667   2.766 -0.7323  1.2436 -0.6473
  130MOL    H3428672   4.468   7.691   2.935  0.9315  3.0764 -1.6552
  130MOL    C3528673   4.252   7.441   3.272 -0.4052  0.3790  0.2773
  130MOL    C3628674   4.385   7.501   3.269 -0.1362  0.4689 -0.0051
  130MOL    C3728675   4.397   7.628   3.209  0.2782 -0.2853  0.4329
  130MOL    C3828676   4.283   7.698   3.166 -0.8522  0.2198  0.5194
  130MOL    C3928677   4.159   7.635   3.163  0.2114 -0.0658 -0.5312
  130MOL    C4028678   4.142   7.504   3.212 -0.2109  0.5772 -0.5104
  130MOL    O4128679   4.020   7.437   3.187 -0.1665 -0.2493 -0.2206
  130MOL    H4228680   4.242   7.341   3.312  1.9616  0.1184  0.2427
  130MOL    H4328681   4.471   7.455   3.315  0.5999  1.5179 -0.3272
  130MOL    H4428682   4.285   7.796   3.119  0.1955 -0.3565 -0.6598
  130MOL    H4528683   4.082   7.701   3.125  2.0521  2.8239  0.5916
  130MOL    C4628684   3.790   7.321   3.453 -0.0506  0.4786  0.3170
  130MOL    C4728685   3.859   7.405   3.364  0.2030 -0.2784 -0.0814
  130MOL    C4828686   3.963   7.354   3.284 -0.9913 -0.3100 -0.8418
  130MOL    C4928687   3.988   7.220   3.284  0.3704 -0.1442 -0.7936
  130MOL    C5028688   3.918   7.135   3.366  0.0272 -0.6296  0.1282
  130MOL    C5128689   3.830   7.183   3.457  0.2919  0.1596 -0.2562
  130MOL    O5228690   3.765   7.094   3.539 -0.2245  0.3341  0.3649
  130MOL    H5328691   3.709   7.354   3.517 -0.2454  0.9182 -0.1441
  130MOL    H5428692   3.833   7.509   3.358  0.0551 -0.2936  0.2643
  130MOL    H5528693   4.069   7.175   3.228  0.3707  2.8165 -3.3548
  130MOL    H5628694   3.946   7.032   3.380  0.5112 -0.4185  0.7367
  130MOL    C5728695   3.572   7.257   3.810 -0.0894  0.3113  0.1650
  130MOL    C5828696   3.677   7.210   3.733 -0.3430 -0.5348 -0.8236
  130MOL    C5928697   3.660   7.136   3.616  0.2843 -0.0686  0.4006
  130MOL    C6028698   3.527   7.115   3.570 -0.2429 -0.0606 -0.5546
  130MOL    C6128699   3.416   7.161   3.648 -0.4446  0.1182  0.3028
  130MOL    C6228700   3.437   7.229   3.767 -0.0577  0.8467  0.4706
  130MOL    O6328701   3.331   7.270   3.841  0.4105 -0.2230 -0.4107
  130MOL    H6428702   3.592   7.308   3.904  1.6219  1.0274 -0.5720
  130MOL    H6528703   3.778   7.239   3.758 -1.2966  1.1293  1.2127
  130MOL    H6628704   3.506   7.061   3.479  0.6118 -1.0065 -0.2045
  130MOL    H6728705   3.314   7.142   3.619 -0.1771 -0.0472 -0.5604
  130MOL    C6828706   3.123   7.008   3.979 -0.1552  0.4898  0.2925
  130MOL    C6928707   3.233   7.091   3.964  0.3279  0.7231 -0.2553
  130MOL    C7028708   3.228   7.189   3.857  0.1588 -0.0560  0.7035
  130MOL    C7128709   3.110   7.200   3.781  0.7095 -0.1673 -0.4193
  130MOL    C7228710   2.995   7.117   3.804  0.5692  0.3288 -0.1201
  130MOL    C7328711   3.001   7.021   3.909  0.2809 -0.2091 -0.1947
  130MOL    O7428712   2.899   6.934   3.919  0.0714  0.5380 -0.2314
  130MOL    H7528713   3.128   6.949   4.069  1.0358  1.8311  1.1285
  130MOL    H7628714   3.315   7.082   4.035 -0.1246  0.7093  0.2732
  130MOL    H7728715   3.100   7.273   3.702 -0.4863 -1.9776 -1.9815
  130MOL    H7828716   2.919   7.128   3.729  0.4594  1.4108  0.1322
  130MOL    C7928717   2.990   6.616   3.733  0.4464  0.2109  0.8317
  130MOL    C8028718   2.972   6.753   3.767 -0.7100  0.1007  0.4025
  130MOL    C8128719   2.934   6.794   3.899 -0.2314 -0.0090  0.0373
  130MOL    C8228720   2.942   6.705   4.008 -0.9399  0.4108  0.3465
  130MOL    C8328721   2.965   6.571   3.977 -0.2435 -0.1687 -0.2324
  130MOL    C8428722   2.990   6.528   3.843  0.3504  0.2064 -0.1743
  130MOL    O8528723   3.018   6.404   3.819 -0.8846 -0.0840  0.3526
  130MOL    H8628724   3.012   6.578   3.635 -0.4514 -0.5031  0.8994
  130MOL    H8728725   2.968   6.824   3.685 -0.8103 -1.8788 -1.3569
  130MOL    H8828726   2.918   6.750   4.103  2.3010 -0.8853  1.8241
  130MOL    H8928727   2.952   6.503   4.059  1.2518 -1.3920 -0.9715
  130MOL    C9028728   2.799   6.121   3.856  1.0183 -0.4718  0.3967
  130MOL    C9128729   2.908   6.202   3.871 -0.3476 -0.8527  0.3022
  130MOL    C9228730   2.913   6.315   3.794  0.1039  0.1280  0.1794
  130MOL    C9328731   2.805   6.348   3.707 -0.2469  0.4786 -0.6039
  130MOL    C9428732   2.693   6.263   3.686 -0.3135 -0.6917  0.4476
  130MOL    C9528733   2.688   6.148   3.771  0.1015 -0.0104 -0.4325
  130MOL    O9628734   2.580   6.064   3.762  0.0698 -0.1543  0.2101
  130MOL    H9728735   2.800   6.034   3.920  0.6127 -1.6484 -1.1526
  130MOL    H9828736   2.981   6.176   3.946 -0.4831  1.1204  1.1580
  130MOL    H9928737   2.810   6.440   3.651  0.0081  1.0497  0.3435
  130MOL   H10028738   2.616   6.293   3.616  0.8215 -1.4147 -1.1356
  130MOL   C10128739   2.519   5.871   3.459 -0.0060  0.2116 -0.4971
  130MOL   C10228740   2.525   5.973   3.554 -0.2446  0.5023 -0.0234
  130MOL   C10328741   2.592   5.963   3.671 -0.8643  0.1322 -0.4870
  130MOL   C10428742   2.678   5.854   3.690  0.1831  0.1049  0.4852
  130MOL   C10528743   2.690   5.753   3.591  0.1542  0.0919  0.2131
  130MOL   C10628744   2.597   5.754   3.490 -0.4348 -0.2503 -1.2650
  130MOL   O10728745   2.590   5.647   3.405 -0.4687 -0.1596  0.1277
  130MOL   H10828746   2.460   5.880   3.369 -1.1497  0.3731  0.2568
  130MOL   H10928747   2.465   6.062   3.541 -0.1755  0.6186  0.4706
  130MOL   H11028748   2.739   5.856   3.779 -0.3235  0.3619  0.8311
  130MOL   H11128749   2.752   5.665   3.601  1.6731  1.3070  1.9451
  130MOL   C11228750   2.271   5.491   3.467 -0.1923 -0.8694 -0.7002
  130MOL   C11328751   2.396   5.550   3.486  0.6917  0.9791 -0.4292
  130MOL   C11428752   2.469   5.596   3.378 -0.4048 -0.1323 -0.8187
  130MOL   C11528753   2.424   5.569   3.250 -0.0903  0.1355  0.1102
  130MOL   C11628754   2.304   5.505   3.229 -0.1609 -0.8280  0.7027
  130MOL   C11728755   2.225   5.474   3.337  0.1639  0.2695 -0.2796
  130MOL   O11828756   2.105   5.406   3.312  0.6963 -0.5018 -0.1228
  130MOL   H11928757   2.210   5.455   3.549 -0.9145  0.2621 -0.7314
  130MOL   H12028758   2.447   5.562   3.581 -1.6471  0.5070  0.9368
  130MOL   H12128759   2.484   5.590   3.163 -2.0269 -0.2320 -1.3490
  130MOL   H12228760   2.257   5.486   3.134  1.1943 -1.9845  0.2580
  130MOL   C12328761   1.761   5.525   3.367  0.7808 -0.5961  0.1553
  130MOL   C12428762   1.878   5.448   3.379 -0.2052 -0.3999  0.0725
  130MOL   C12528763   1.982   5.466   3.290 -0.1226 -0.1967  0.0987
  130MOL   C12628764   1.960   5.546   3.174 -0.8699 -0.4639 -0.1365
  130MOL   C12728765   1.844   5.614   3.154 -0.1061 -0.6198 -0.4978
  130MOL   C12828766   1.745   5.611   3.253  0.1257 -0.5445 -0.5757
  130MOL   O12928767   1.637   5.698   3.253  0.4202 -0.0380  0.1472
  130MOL   H13028768   1.688   5.525   3.446  0.3780 -0.6804 -0.2129
  130MOL   H13128769   1.891   5.378   3.460  1.9180 -0.5375 -0.3684
  130MOL   H13228770   2.041   5.559   3.103 -0.3074  0.5197  0.6668
  130MOL   H13328771   1.832   5.681   3.070  0.3597 -0.7237 -0.6498
  130MOL   C13428772   1.534   6.012   3.416  0.2184  0.1398  0.5717
  130MOL   C13528773   1.543   5.879   3.379  0.1653  0.2875  0.1236
  130MOL   C13628774   1.647   5.826   3.306 -0.2185 -0.1840 -0.2283
  130MOL   C13728775   1.750   5.920   3.270 -0.3961  0.0157  0.6597
  130MOL   C13828776   1.744   6.055   3.315  0.1521 -0.0502 -0.9175
  130MOL   C13928777   1.635   6.104   3.391  0.1822  0.7556 -0.3083
  130MOL   O14028778   1.617   6.234   3.427  0.3427 -0.1433  0.0764
  130MOL   H14128779   1.446   6.036   3.473  0.4769 -1.3641  1.6450
  130MOL   H14228780   1.457   5.818   3.402  0.3621  0.6444  1.8889
  130MOL   H14328781   1.839   5.878   3.226 -1.9792 -3.2513  0.4745
  130MOL   H14428782   1.827   6.119   3.290 -0.2421  0.1689 -1.6932
  130MOL   C14528783   1.450   6.393   3.132  0.1198 -0.6870 -0.2128
  130MOL   C14628784   1.500   6.293   3.220  0.8107  0.1457 -0.3085
  130MOL   C14728785   1.580   6.329   3.333 -0.2132 -0.2867 -0.3218
  130MOL   C14828786   1.619   6.461   3.342 -0.2871 -0.1201 -0.0659
  130MOL   C14928787   1.576   6.559   3.253  0.5305  0.1250 -0.0330
  130MOL   C15028788   1.485   6.528   3.152  0.1856 -0.7129  0.4600
  130MOL   O15128789   1.444   6.622   3.059 -0.3975 -0.3819  0.1707
  130MOL   H15228790   1.392   6.355   3.050 -0.9241 -1.2355  0.7603
  130MOL   H15328791   1.457   6.196   3.202 -0.7499  0.0257  3.6997
  130MOL   H15428792   1.686   6.491   3.422  0.7009  1.0200 -1.2977
  130MOL   H15528793   1.618   6.659   3.251  0.9916 -0.0650  0.1620
  130MOL   C15628794   1.086   6.691   3.133 -0.5860  0.5796 -0.7584
  130MOL   C15728795   1.202   6.621   3.099 -0.3574 -0.4013 -0.0668
  130MOL   C15828796   1.328   6.691   3.092  0.1309  0.0629 -0.1805
  130MOL   C15928797   1.336   6.826   3.134 -0.2603 -0.2170  0.5260
  130MOL   C16028798   1.221   6.894   3.164 -0.3235 -0.0484  0.1957
  130MOL   C16128799   1.099   6.830   3.168 -0.5384 -0.9207  0.2362
  130MOL   O16228800   0.988   6.907   3.207 -0.2250  0.5259 -0.9032
  130MOL   H16328801   0.998   6.628   3.137 -0.2589  0.1649 -0.1618
  130MOL   H16428802   1.191   6.515   3.082  0.0358 -0.7882  2.0180
  130MOL   H16528803   1.424   6.888   3.133 -0.9058  0.7184  1.2384
  130MOL   H16628804   1.239   6.998   3.187  1.8485 -0.7272  1.7025
  130MOL   C16728805   0.664   6.736   3.169  0.1781 -0.1222 -0.4531
  130MOL   C16828806   0.793   6.771   3.228 -0.2863  0.6502 -0.4998
  130MOL   C16928807   0.869   6.869   3.159  0.2328  0.8200 -0.4532
  130MOL   C17028808   0.817   6.939   3.051 -0.4216  0.4866 -0.0353
  130MOL   C17128809   0.693   6.910   2.999 -0.7771 -0.6484 -0.0016
  130MOL   C17228810   0.605   6.818   3.068 -0.1850 -0.2538 -0.4868
  130MOL   O17328811   0.491   6.776   3.007 -0.2711  0.5075  0.4465
  130MOL   H17428812   0.599   6.653   3.194 -3.0287  1.2207 -3.8635
  130MOL   H17528813   0.831   6.726   3.319 -0.4865  1.4503 -0.0167
  130MOL   H17628814   0.871   7.017   2.999 -0.0327 -0.9249 -1.8040
  130MOL   H17728815   0.670   6.966   2.910  0.0905 -0.2940 -0.0069
  130MOL   C17828816   0.267   6.972   2.789  0.2901  0.0856  0.5772
  130MOL   C17928817   0.365   6.885   2.829 -0.3356  0.0343 -0.8835
  130MOL   C18028818   0.402   6.872   2.964  0.8513  0.7120  0.0131
  130MOL   C18128819   0.334   6.956   3.059 -0.1233 -0.3487  0.3209
  130MOL   C18228820   0.237   7.050   3.014 -0.2747  0.4636 -0.1967
  130MOL   C18328821   0.197   7.055   2.881  0.0441  0.2247  0.2481
  130MOL   O18428822   0.098   7.150   2.850 -0.0605 -0.4799  0.1895
  130MOL   H18528823   0.227   6.972   2.688  2.0853  2.3902 -0.1912
  130MOL   H18628824   0.412   6.815   2.761  0.9062 -0.2003  0.1939
  130MOL   H18728825   0.368   6.950   3.161  1.1376 -2.5390 -0.1995
  130MOL   H18828826   0.189   7.107   3.093 -1.8399  0.0707 -0.8347
  130MOL   C18928827   8.225   7.283   2.535  0.0070 -0.5337  0.2459
  130MOL   C19028828   8.237   7.217   2.662  0.1579  0.2675 -0.2703
  130MOL   C19128829   0.102   7.218   2.732 -0.2677 -0.0162 -0.2117
  130MOL   C19228830   0.208   7.297   2.684  0.4584  0.3224  0.2328
  130MOL   C19328831   0.198   7.371   2.560  0.5285 -0.7786  0.1227
  130MOL   C19428832   0.075   7.362   2.484  0.4284 -0.4740 -0.1940
  130MOL   O19528833   0.057   7.424   2.366 -0.9468  0.0197  0.3949
  130MOL   H19628834   8.133   7.268   2.479  0.9348 -0.5635 -1.3044
  130MOL   H19728835   8.160   7.155   2.705  0.2606  0.3944  0.1028
  130MOL   H19828836   0.300   7.312   2.739  0.8597  1.2247 -0.6665
  130MOL   H19928837   0.275   7.443   2.538 -0.7923  0.8098  0.6115
  130MOL   C20028838   8.055   7.605   2.190 -0.8938 -0.1677 -0.0834
  130MOL   C20128839   8.160   7.522   2.226 -0.0868  0.6313  0.2838
  130MOL   C20228840   8.205   7.509   2.358 -0.7524 -0.3932 -0.0839
  130MOL   C20328841   8.140   7.584   2.460 -0.2189 -0.1600  0.5489
  130MOL   C20428842   8.029   7.660   2.427 -0.1370  0.7061  0.6323
  130MOL   C20528843   7.985   7.669   2.291 -0.1947  0.6485  0.0962
  130MOL   O20628844   7.864   7.736   2.254  0.2702  0.1304 -0.3985
  130MOL   H20728845   8.018   7.622   2.090 -3.0128 -0.5313  0.6084
  130MOL   H20828846   8.209   7.476   2.142  1.1925  1.9763  0.2581
  130MOL   H20928847   8.175   7.579   2.562  1.0705  1.6361  0.2260
  130MOL   H21028848   7.977   7.720   2.500 -0.7275  0.2652  0.5743
  130MOL   C21128849   7.570   7.519   2.238  0.3082 -0.0529  0.0583
  130MOL   C21228850   7.697   7.571   2.218  0.1544  0.1194 -0.8304
  130MOL   C21328851   7.743   7.691   2.287 -0.0196  0.1661  0.0785
  130MOL   C21428852   7.654   7.755   2.368 -0.0682 -0.0884 -0.5516
  130MOL   C21528853   7.528   7.695   2.393  0.7799  0.2891  1.3387
  130MOL   C21628854   7.481   7.584   2.328  0.1099 -0.6443 -0.1399
  130MOL   O21728855   7.354   7.534   2.343  0.1226  0.2714 -0.2266
  130MOL   H21828856   7.536   7.426   2.194 -2.5244 -0.5170  3.0407
  130MOL   H21928857   7.764   7.510   2.159  1.0166  0.8537 -0.6223
  130MOL   H22028858   7.688   7.844   2.419  2.2779 -0.0262 -2.1489
  130MOL   H22128859   7.455   7.749   2.453 -2.1205 -1.7567 -0.2229
  130MOL   H22228860   7.283   7.594   2.362  1.2086  1.3874  0.3683
  131MOL     C128861   3.473   2.117   3.011 -0.5564  0.5215  0.3990
  131MOL     C228862   3.574   2.062   3.089  0.0727 -0.6760  0.4248
  131MOL     C328863   3.578   2.105   3.224 -0.4912 -0.3887  0.4071
  131MOL     C428864   3.486   2.199   3.272  0.4014  0.2694 -0.2606
  131MOL     C528865   3.393   2.258   3.185  0.2900  0.1961 -0.2962
  131MOL     C628866   3.383   2.216   3.055  0.0877 -0.7060  0.0865
  131MOL     O728867   3.305   2.275   2.957  0.0245  0.0643  0.2610
  131MOL     H828868   3.472   2.075   2.911  1.8184  1.5310 -0.0806
  131MOL     H928869   3.638   1.989   3.041  0.7494  1.5882 -2.2410
  131MOL    H1028870   3.490   2.241   3.371 -2.0098 -0.8418  0.3460
  131MOL    H1128871   3.341   2.344   3.224  0.9498 -0.4267  2.0418
  131MOL    H1228872   3.660   2.076   3.289  1.0705 -0.4675 -1.5500
  131MOL    C1328873   2.961   2.138   3.020 -0.0281 -0.4548  0.4159
  131MOL    C1428874   3.098   2.144   2.986  0.0051 -0.1934  1.1497
  131MOL    C1528875   3.172   2.268   2.980 -0.6428 -0.2907  0.1639
  131MOL    C1628876   3.095   2.388   3.000  0.0520  0.1606 -0.6766
  131MOL    C1728877   2.959   2.380   3.020 -0.0271  0.0520  0.3742
  131MOL    C1828878   2.887   2.259   3.030 -0.2847  0.2298 -0.0466
  131MOL    O1928879   2.751   2.250   3.053  0.0895  0.1323  0.7063
  131MOL    H2028880   2.919   2.044   3.053 -0.7235 -0.9495 -1.7985
  131MOL    H2128881   3.147   2.051   2.961 -1.9582 -0.5928 -1.4722
  131MOL    H2228882   3.144   2.482   3.018 -0.8918  0.2577  1.4509
  131MOL    H2328883   2.905   2.472   3.039 -0.1129  0.0505  0.1420
  131MOL    C2428884   2.623   2.226   3.392 -0.0334 -1.0269  0.3693
  131MOL    C2528885   2.686   2.190   3.271 -0.0148  0.3400 -0.1499
  131MOL    C2628886   2.699   2.288   3.174 -0.4151  0.5237 -0.2454
  131MOL    C2728887   2.659   2.419   3.194  0.5615 -0.1786 -1.0903
  131MOL    C2828888   2.604   2.454   3.318 -0.9490  0.5136 -0.2186
  131MOL    C2928889   2.582   2.361   3.417 -0.0137  0.4192 -0.1101
  131MOL    O3028890   2.513   2.386   3.526  0.3737 -0.4496  0.1902
  131MOL    H3128891   2.603   2.153   3.468 -2.0821  1.9398  2.8256
  131MOL    H3228892   2.709   2.087   3.246  1.1987  1.2285 -2.8869
  131MOL    H3328893   2.674   2.502   3.127  1.4366  1.7827  1.4430
  131MOL    H3428894   2.572   2.556   3.336  1.5184  1.0604  1.2917
  131MOL    C3528895   2.178   2.215   3.463 -0.2442  0.2386  0.4096
  131MOL    C3628896   2.306   2.273   3.442  0.1485 -0.0302 -0.4284
  131MOL    C3728897   2.384   2.329   3.544 -0.4609 -1.0795 -0.0108
  131MOL    C3828898   2.324   2.323   3.676  0.3143 -0.1238  0.2285
  131MOL    C3928899   2.203   2.260   3.704 -0.2830  0.0111 -0.0241
  131MOL    C4028900   2.125   2.212   3.596 -0.3602  0.6580 -0.3511
  131MOL    O4128901   1.999   2.162   3.608  0.4022 -0.6357 -0.0856
  131MOL    H4228902   2.114   2.178   3.384 -1.5430 -0.0908  1.6026
  131MOL    H4328903   2.340   2.281   3.340 -1.2595 -0.5658 -0.9533
  131MOL    H4428904   2.379   2.372   3.755  0.5727 -0.4090  0.2282
  131MOL    H4528905   2.159   2.255   3.803 -2.4034 -1.9428 -1.0072
  131MOL    C4628906   1.882   1.981   3.902 -0.4516  0.0639 -0.4069
  131MOL    C4728907   1.929   2.095   3.827  0.4338 -0.1992  0.2079
  131MOL    C4828908   1.973   2.066   3.696  0.2513 -0.5692  0.8403
  131MOL    C4928909   1.965   1.933   3.644 -0.0200 -0.3598 -0.3062
  131MOL    C5028910   1.922   1.823   3.721  1.3340 -0.9281 -0.2784
  131MOL    C5128911   1.875   1.848   3.853 -0.1466 -0.0984 -0.2917
  131MOL    O5228912   1.830   1.750   3.935 -0.5847  0.3217  0.4566
  131MOL    H5328913   1.849   1.994   4.004 -0.0918  0.8388 -0.3855
  131MOL    H5428914   1.932   2.195   3.867 -1.4540 -0.6044  1.3806
  131MOL    H5528915   1.996   1.927   3.541  1.5121  0.7867  0.0527
  131MOL    H5628916   1.923   1.722   3.683 -0.7254 -0.4899 -1.6007
  131MOL    C5728917   2.145   1.620   4.089  0.0592 -0.4129  0.1412
  131MOL    C5828918   2.061   1.707   4.018 -0.8406  0.0870  0.0617
  131MOL    C5928919   1.925   1.676   4.002  0.0898  1.2397  0.2642
  131MOL    C6028920   1.874   1.562   4.063 -0.5097 -0.1050 -0.1622
  131MOL    C6128921   1.955   1.481   4.138 -0.3820  0.4288  0.3349
  131MOL    C6228922   2.093   1.501   4.150  0.6454 -0.9250  0.9358
  131MOL    O6328923   2.172   1.425   4.229  0.8449  0.0319 -0.0202
  131MOL    H6428924   2.248   1.648   4.106 -0.0361 -0.4887  0.8341
  131MOL    H6528925   2.106   1.789   3.964 -0.9740  0.3429  0.3353
  131MOL    H6628926   1.768   1.548   4.046  0.0636 -1.9116 -2.4799
  131MOL    H6728927   1.909   1.388   4.167  1.5532  0.0054  2.1298
  131MOL    C6828928   2.236   1.072   4.286 -0.0854 -0.2169 -0.0056
  131MOL    C6928929   2.200   1.206   4.308 -0.2032 -0.1090 -0.1637
  131MOL    C7028930   2.180   1.293   4.200 -0.0745  0.2541 -0.2284
  131MOL    C7128931   2.191   1.240   4.067  0.6076  0.5960 -0.8048
  131MOL    C7228932   2.217   1.102   4.045  0.3865  0.8850 -0.5427
  131MOL    C7328933   2.236   1.017   4.151 -0.1338  0.2078  0.4856
  131MOL    O7428934   2.268   0.881   4.135 -0.5123 -0.1333  0.1563
  131MOL    H7528935   2.256   1.007   4.371  1.5142 -0.4344 -0.5248
  131MOL    H7628936   2.203   1.237   4.411  2.4972  0.8452 -0.4826
  131MOL    H7728937   2.165   1.301   3.982  0.3617  0.1884 -1.0235
  131MOL    H7828938   2.211   1.068   3.943 -1.9152 -1.5143  0.3402
  131MOL    C7928939   1.986   0.698   4.000  0.3008  0.7754 -0.3020
  131MOL    C8028940   2.073   0.760   4.090  0.2934 -0.1145  0.0800
  131MOL    C8128941   2.192   0.814   4.042 -0.3639  0.5677 -0.9530
  131MOL    C8228942   2.232   0.802   3.909 -0.4384 -0.9046  0.3433
  131MOL    C8328943   2.139   0.750   3.817 -0.4474  0.3670  0.1274
  131MOL    C8428944   2.018   0.694   3.867 -0.4364  0.4296 -0.0397
  131MOL    O8528945   1.934   0.625   3.781  0.1483 -0.6113 -0.3172
  131MOL    H8628946   1.897   0.651   4.038  1.1854  0.7116  1.7453
  131MOL    H8728947   2.055   0.785   4.194  2.9401  0.9398  0.3197
  131MOL    H8828948   2.323   0.848   3.872 -0.9598 -0.4941 -0.4334
  131MOL    H8928949   2.157   0.753   3.710 -0.3009  0.1919  0.1472
  131MOL    C9028950   1.659   0.824   3.640 -0.5896  0.3785  0.0229
  131MOL    C9128951   1.786   0.781   3.678 -1.0757 -0.2001 -0.1678
  131MOL    C9228952   1.803   0.669   3.759 -0.2581  0.6462  0.7260
  131MOL    C9328953   1.693   0.607   3.818  0.1641  0.0364 -0.3558
  131MOL    C9428954   1.566   0.650   3.793  0.4030 -0.0560  0.1370
  131MOL    C9528955   1.547   0.755   3.701 -0.4708  0.3807  0.2703
  131MOL    O9628956   1.422   0.792   3.670 -0.3983  0.0434  0.1006
  131MOL    H9728957   1.639   0.913   3.582 -2.5285 -0.8520 -1.2585
  131MOL    H9828958   1.877   0.825   3.638  1.5660 -4.5404  0.7943
  131MOL    H9928959   1.703   0.523   3.885 -0.2136  1.6266  1.7335
  131MOL   H10028960   1.480   0.601   3.836 -0.0201  1.4887  1.0772
  131MOL   C10128961   1.324   1.060   3.925  0.1335 -0.1607 -0.6080
  131MOL   C10228962   1.404   0.992   3.828  0.1067 -0.2011  0.0391
  131MOL   C10328963   1.355   0.865   3.770 -0.5456  0.5218  0.2395
  131MOL   C10428964   1.221   0.825   3.796 -0.3023  0.6021 -0.8434
  131MOL   C10528965   1.148   0.897   3.890 -0.1015 -0.1297  0.3430
  131MOL   C10628966   1.196   1.015   3.953  0.3500 -0.0349  0.5778
  131MOL   O10728967   1.137   1.057   4.066 -0.5119 -0.4092 -0.0362
  131MOL   H10828968   1.356   1.157   3.960  0.7467  0.0038 -1.5927
  131MOL   H10928969   1.504   1.028   3.811  0.4593 -1.2942 -0.2384
  131MOL   H11028970   1.174   0.740   3.750  2.5705 -0.1117 -2.5787
  131MOL   H11128971   1.047   0.863   3.903  0.2849 -1.9166 -1.0888
  131MOL   C11228972   0.792   1.122   4.155  0.9181 -0.9457  0.3877
  131MOL   C11328973   0.919   1.074   4.158 -0.1114  0.4918 -0.3477
  131MOL   C11428974   1.009   1.108   4.059  0.2699 -0.1585 -0.3541
  131MOL   C11528975   0.975   1.202   3.962 -0.0031 -0.7105  0.3055
  131MOL   C11628976   0.849   1.258   3.959  0.1785  1.3304  0.0057
  131MOL   C11728977   0.756   1.217   4.054 -0.5656  0.2731 -1.0984
  131MOL   O11828978   0.631   1.275   4.061 -0.6215 -0.1541 -0.4350
  131MOL   H11928979   0.719   1.097   4.229 -0.8371  0.4097 -0.8496
  131MOL   H12028980   0.947   1.010   4.240 -0.6779  0.1534 -0.4168
  131MOL   H12128981   1.048   1.235   3.889  1.3594 -1.4785  1.3039
  131MOL   H12228982   0.826   1.334   3.886  0.7324  1.1681 -0.3429
  131MOL   C12328983   0.352   1.293   3.825 -0.3884  0.0936 -0.1008
  131MOL   C12428984   0.452   1.331   3.911 -0.0512  0.7374 -0.5418
  131MOL   C12528985   0.529   1.235   3.975  0.6323  0.2809 -0.1904
  131MOL   C12628986   0.500   1.097   3.954 -0.5030 -0.3137 -0.2428
  131MOL   C12728987   0.385   1.060   3.878  0.1366 -0.1189 -0.4589
  131MOL   C12828988   0.313   1.158   3.810 -0.6741  0.7150  0.4374
  131MOL   O12928989   0.224   1.119   3.710  0.0974 -0.0877 -0.0325
  131MOL   H13028990   0.304   1.372   3.768  1.8001  2.0689  0.7121
  131MOL   H13128991   0.463   1.433   3.944 -0.2029 -0.1600  2.4328
  131MOL   H13228992   0.562   1.016   3.991 -0.9573 -0.1170  0.9685
  131MOL   H13328993   0.363   0.955   3.865 -4.0479  0.7412 -1.0937
  131MOL   C13428994   0.080   1.347   3.456 -0.2980  0.2103 -0.1322
  131MOL   C13528995   0.169   1.258   3.524 -0.0636 -1.1653  0.2705
  131MOL   C13628996   0.145   1.208   3.650  0.9335 -0.2429 -1.3101
  131MOL   C13728997   0.019   1.241   3.712 -0.7694  0.1504 -0.1934
  131MOL   C13828998   8.181   1.322   3.642 -0.2440 -0.0391  0.3519
  131MOL   C13928999   8.210   1.381   3.518  0.4251 -0.0834  0.3210
  131MOL   O14029000   8.123   1.468   3.456 -0.1354  0.0513  0.0750
  131MOL   H14129001   0.115   1.396   3.367 -1.8791  2.0640  0.2210
  131MOL   H14229002   0.269   1.235   3.492 -0.1062  0.2229 -0.9288
  131MOL   H14329003   8.246   1.201   3.809  0.7425  1.0290  0.6158
  131MOL   H14429004   8.086   1.351   3.685 -0.0339  1.2881 -0.0628
  131MOL   C14529005   7.906   1.282   3.225  0.1829  0.2380 -0.2399
  131MOL   C14629006   7.957   1.337   3.347  0.1355 -0.4942 -0.2302
  131MOL   C14729007   8.068   1.424   3.337  0.3712 -0.5560  0.1496
  131MOL   C14829008   8.120   1.463   3.211  0.0349 -0.5551  0.0655
  131MOL   C14929009   8.067   1.406   3.093  0.2573  0.4663 -0.0832
  131MOL   C15029010   7.953   1.320   3.102 -0.8142  0.5068  0.6821
  131MOL   O15129011   7.903   1.262   2.987  0.3792  0.5834 -0.4270
  131MOL   H15229012   7.822   1.214   3.231 -0.0938  0.5819 -0.1647
  131MOL   H15329013   7.934   1.299   3.445  0.3971 -0.0489  0.0061
  131MOL   H15429014   8.204   1.531   3.211  2.4980 -3.4374  2.2561
  131MOL   H15529015   8.104   1.435   2.997 -0.2534 -2.1815 -1.1256
  131MOL   C15629016   7.634   1.024   2.959  0.5216  0.3056 -0.4111
  131MOL   C15729017   7.709   1.141   2.955 -0.2528  0.2007 -0.2628
  131MOL   C15829018   7.843   1.143   2.985 -0.3911  0.0219 -0.0647
  131MOL   C15929019   7.904   1.021   3.022  0.1222  0.3113  0.0958
  131MOL   C16029020   7.830   0.902   3.018 -0.2518  0.2568  0.6837
  131MOL   C16129021   7.691   0.905   2.998  0.4940 -0.2608  0.8768
  131MOL   O16229022   7.621   0.796   3.011  0.4023  0.5074 -0.2578
  131MOL   H16329023   7.530   1.028   2.928  0.8249  1.9595 -1.3121
  131MOL   H16429024   7.659   1.231   2.921 -0.1939  0.3852  0.1304
  131MOL   H16529025   8.006   1.020   3.058  0.9150  0.7007 -2.0634
  131MOL   H16629026   7.884   0.813   3.046 -0.6270 -0.4459 -0.7892
  131MOL   C16729027   7.279   0.695   2.923  0.8368 -0.5297  0.2676
  131MOL   C16829028   7.394   0.719   3.001 -0.1298 -0.0154  0.4659
  131MOL   C16929029   7.509   0.772   2.939 -0.2726 -0.2046  0.2957
  131MOL   C17029030   7.511   0.791   2.802  0.0634  0.6910  0.2193
  131MOL   C17129031   7.403   0.760   2.723  0.1430  0.9080 -0.3632
  131MOL   C17229032   7.286   0.714   2.786 -0.1357 -0.0485  0.2792
  131MOL   O17329033   7.172   0.674   2.715  0.1296 -0.4152  0.2959
  131MOL   H17429034   7.193   0.652   2.973  1.4807 -2.2063 -0.0369
  131MOL   H17529035   7.383   0.731   3.107 -1.1244  0.0436  0.3662
  131MOL   H17629036   7.598   0.838   2.757  2.0745  0.0491  3.2843
  131MOL   H17729037   7.406   0.768   2.615  0.1112 -0.7454 -0.4937
  131MOL   C17829038   7.036   0.388   2.537  0.4477 -0.6375  0.0410
  131MOL   C17929039   7.048   0.516   2.594  0.3393 -0.3031  0.4923
  131MOL   C18029040   7.167   0.545   2.668 -0.3946 -0.5048 -0.1811
  131MOL   C18129041   7.269   0.447   2.678 -0.3721  0.0342  0.1857
  131MOL   C18229042   7.260   0.326   2.609 -0.1413  0.0344 -0.1094
  131MOL   C18329043   7.142   0.301   2.538  0.2728 -0.0316 -0.2494
  131MOL   O18429044   7.141   0.183   2.461  0.2054  0.1996  0.1593
  131MOL   H18529045   6.955   0.360   2.472  2.7247 -1.4193 -2.5559
  131MOL   H18629046   6.971   0.592   2.593  1.7051  1.1173  0.6824
  131MOL   H18729047   7.365   0.466   2.723 -0.1832  1.7848 -0.9043
  131MOL   H18829048   7.337   0.251   2.615  2.0626  2.1623 -0.8428
  131MOL   C18929049   7.032   8.148   2.642  0.3100 -0.2784 -0.3332
  131MOL   C19029050   7.112   8.252   2.600 -0.6339  0.4492 -0.0083
  131MOL   C19129051   7.059   0.086   2.504 -0.2763 -1.0834  0.0185
  131MOL   C19229052   6.926   0.075   2.465  0.0223 -0.6815 -0.0334
  131MOL   C19329053   6.855   8.216   2.493 -0.0327  0.1904 -0.2820
  131MOL   C19429054   6.904   8.127   2.589  0.4295  0.0783  0.2565
  131MOL   O19529055   6.827   8.013   2.615  0.0829 -0.1805 -0.0568
  131MOL   H19629056   7.054   8.076   2.720  0.4081  1.1797  1.0240
  131MOL   H19729057   7.213   0.006   2.638 -0.7247 -0.5875  0.4494
  131MOL   H19829058   6.888   0.147   2.394  1.0909  2.3384  2.3454
  131MOL   H19929059   6.754   8.211   2.456 -0.3135  3.4895 -0.1181
  131MOL   C20029060   6.609   8.111   2.906 -0.0290 -0.1288  0.1916
  131MOL   C20129061   6.664   8.108   2.779 -0.6148  0.2437 -0.4472
  131MOL   C20229062   6.760   8.013   2.739  0.5487  0.2608 -0.4884
  131MOL   C20329063   6.790   7.913   2.837  0.0124 -0.0309 -0.3772
  131MOL   C20429064   6.737   7.907   2.964 -0.1332  0.1726  0.1744
  131MOL   C20529065   6.650   8.016   3.002  0.0307 -0.3326  0.3581
  131MOL   O20629066   6.595   8.029   3.128  0.2239 -0.4807  0.0643
  131MOL   H20729067   6.531   8.182   2.930  0.1334 -0.3050  1.2873
  131MOL   H20829068   6.632   8.182   2.708 -0.0544  0.9147 -0.0077
  131MOL   H20929069   6.865   7.838   2.817 -0.8443 -0.5510 -1.7208
  131MOL   H21029070   6.768   7.829   3.032  0.0498 -1.6244 -1.9135
  131MOL   C21129071   6.326   7.781   3.204 -0.0957 -0.4696 -0.6269
  131MOL   C21229072   6.453   7.843   3.191 -0.3751 -0.7458  0.4240
  131MOL   C21329073   6.468   7.980   3.158 -0.2857  0.2048  0.4731
  131MOL   C21429074   6.348   8.053   3.139  0.1946 -0.1306 -0.0663
  131MOL   C21529075   6.219   7.988   3.151 -0.1580 -0.4052  0.1579
  131MOL   C21629076   6.212   7.853   3.171  0.0182 -0.6237 -0.2981
  131MOL   O21729077   6.094   7.792   3.174  0.3829  0.2658 -0.2801
  131MOL   H21829078   6.331   7.674   3.219  0.9120 -0.4339 -0.6452
  131MOL   H21929079   6.547   7.790   3.200 -1.6733 -3.3848 -0.8361
  131MOL   H22029080   6.354   8.160   3.126 -1.0139 -0.1009 -0.4599
  131MOL   H22129081   6.127   8.037   3.124  0.8676 -0.3191 -3.4014
  131MOL   H22229082   6.022   7.831   3.126 -0.3604  1.0842  1.4368
  132MOL     C129083   3.596   6.894   4.090  0.2026  0.1708 -0.4960
  132MOL     C229084   3.491   6.856   4.002 -0.2286  0.3695  0.2145
  132MOL     C329085   3.508   6.842   3.867 -0.1571 -0.2440 -0.4199
  132MOL     C429086   3.632   6.859   3.814  1.2143  0.3866  1.2004
  132MOL     C529087   3.742   6.890   3.897  0.1791  0.1128 -0.4353
  132MOL     C629088   3.724   6.914   4.036 -0.3443 -0.3187  0.3141
  132MOL     O729089   3.822   6.955   4.119  0.0871 -0.4200  0.2946
  132MOL     H829090   3.575   6.914   4.194 -0.2008  0.2358 -0.5907
  132MOL     H929091   3.395   6.840   4.050 -0.9771  1.1547 -1.0019
  132MOL    H1029092   3.655   6.853   3.709  1.7649  0.9214  1.2866
  132MOL    H1129093   3.839   6.902   3.852  0.9706 -2.0841  0.6029
  132MOL    H1229094   3.425   6.814   3.803 -1.3368  0.4222  0.7946
  132MOL    C1329095   3.733   7.313   4.196 -0.1530 -0.0979 -0.0713
  132MOL    C1429096   3.771   7.194   4.123 -0.4337 -0.2983  0.1166
  132MOL    C1529097   3.793   7.071   4.187 -0.0683 -0.0656 -0.2626
  132MOL    C1629098   3.776   7.064   4.326  0.5049  0.0024 -1.0725
  132MOL    C1729099   3.741   7.180   4.404  0.5724 -0.5367 -0.5123
  132MOL    C1829100   3.723   7.306   4.337 -0.4799 -0.8446  0.2612
  132MOL    O1929101   3.699   7.422   4.412  0.3758  0.4580  0.0424
  132MOL    H2029102   3.723   7.405   4.140 -1.0058 -1.4707 -2.2434
  132MOL    H2129103   3.785   7.207   4.017  3.0319  1.0788  0.6851
  132MOL    H2229104   3.779   6.966   4.372 -0.6496  0.0779 -0.8031
  132MOL    H2329105   3.731   7.159   4.510  1.7738 -2.3782 -0.7428
  132MOL    C2429106   4.005   7.478   4.599  0.2486 -0.5329  0.2657
  132MOL    C2529107   3.917   7.468   4.493 -0.1417 -0.0273 -0.4200
  132MOL    C2629108   3.785   7.447   4.523 -0.6059  0.8611 -0.1253
  132MOL    C2729109   3.740   7.439   4.658  0.1770 -0.3172 -0.2923
  132MOL    C2829110   3.831   7.452   4.762 -0.4990  0.7735 -0.5034
  132MOL    C2929111   3.969   7.474   4.735 -0.1201  0.9530 -0.6351
  132MOL    O3029112   4.061   7.499   4.833  0.2916 -0.2700 -0.4243
  132MOL    H3129113   4.106   7.494   4.564 -0.2761  1.9350 -0.2486
  132MOL    H3229114   3.950   7.467   4.390  3.5127 -0.4334  0.6843
  132MOL    H3329115   3.634   7.422   4.671 -0.2582  3.9191  2.6301
  132MOL    H3429116   3.800   7.460   4.866  1.0218  0.9607 -0.0537
  132MOL    C3529117   4.131   7.191   5.025  0.6320 -0.0040 -0.5779
  132MOL    C3629118   4.134   7.288   4.923  0.3670  0.0657 -0.2598
  132MOL    C3729119   4.068   7.410   4.939 -0.2410  0.5534 -0.1115
  132MOL    C3829120   4.010   7.444   5.063  0.4843  0.2884 -0.1572
  132MOL    C3929121   4.004   7.352   5.165 -0.4211  0.3546  0.2756
  132MOL    C4029122   4.077   7.229   5.154  0.1033  0.0401  0.2774
  132MOL    O4129123   4.082   7.148   5.262 -0.9074  0.6726  0.0453
  132MOL    H4229124   4.178   7.095   5.008 -1.1455 -0.9600 -0.1498
  132MOL    H4329125   4.184   7.270   4.829 -0.7135  1.2048 -1.0735
  132MOL    H4429126   3.965   7.542   5.074  0.9659  0.8521 -2.9139
  132MOL    H4529127   3.973   7.364   5.268  2.2893  0.2324  1.1697
  132MOL    C4629128   3.810   6.893   5.282  0.0361  0.4005  0.0702
  132MOL    C4729129   3.922   6.965   5.234  0.2288  0.6685  0.0655
  132MOL    C4829130   3.969   7.085   5.301  0.3735  0.4947  0.2594
  132MOL    C4929131   3.912   7.118   5.424 -0.1357  0.9357 -0.4655
  132MOL    C5029132   3.796   7.051   5.467 -0.6262  0.0186 -0.2184
  132MOL    C5129133   3.742   6.945   5.394 -0.1718 -0.2644  0.3408
  132MOL    O5229134   3.636   6.881   5.451  0.4700  0.1826  0.2978
  132MOL    H5329135   3.789   6.799   5.233 -0.2289  0.5395 -0.0822
  132MOL    H5429136   3.963   6.923   5.144  1.4007  2.5347 -0.2913
  132MOL    H5529137   3.955   7.196   5.485  0.7444 -0.7130  1.0563
  132MOL    H5629138   3.749   7.076   5.561 -0.4367 -0.0343 -0.1091
  132MOL    C5729139   3.277   6.810   5.403 -0.0009 -0.2848 -0.6748
  132MOL    C5829140   3.403   6.802   5.455 -0.2865 -0.1192 -0.4243
  132MOL    C5929141   3.508   6.877   5.391 -0.0456  0.3565  0.2202
  132MOL    C6029142   3.486   6.929   5.265  0.4307  0.2722  0.1239
  132MOL    C6129143   3.363   6.913   5.204  0.2199 -0.1615  0.1367
  132MOL    C6229144   3.254   6.866   5.277  0.6684 -1.0559  0.1285
  132MOL    O6329145   3.129   6.861   5.213 -0.3239 -0.4172 -0.6560
  132MOL    H6429146   3.196   6.766   5.459  1.7019 -1.3067  1.0092
  132MOL    H6529147   3.430   6.758   5.550 -0.0343  0.1511 -0.3685
  132MOL    H6629148   3.570   6.970   5.211 -0.0545  0.3900 -0.5376
  132MOL    H6729149   3.357   6.957   5.105 -1.7250  2.3488  1.3019
  132MOL    C6829150   2.993   6.530   5.116 -0.0080  0.0367 -0.0431
  132MOL    C6929151   3.037   6.634   5.196 -0.3678  0.2618 -0.3441
  132MOL    C7029152   3.094   6.750   5.143  0.3765  0.5213 -0.3847
  132MOL    C7129153   3.101   6.760   5.003  0.0281 -0.4978  0.0159
  132MOL    C7229154   3.059   6.658   4.924 -0.4776  0.5623  0.1936
  132MOL    C7329155   3.004   6.543   4.976  0.1577  0.1741  0.4706
  132MOL    O7429156   2.961   6.438   4.895 -0.3602 -0.1956 -0.5576
  132MOL    H7529157   2.939   6.449   5.162  2.0907  0.2573  2.9410
  132MOL    H7629158   3.031   6.625   5.303  1.3500  0.3523 -0.2335
  132MOL    H7729159   3.151   6.844   4.957 -0.7313  0.1074  0.2753
  132MOL    H7829160   3.081   6.662   4.819  0.1042  1.1229  0.3324
  132MOL    C7929161   3.134   6.299   4.608 -0.5094 -0.2691 -0.1159
  132MOL    C8029162   3.031   6.351   4.686 -0.0828 -0.3257  0.0687
  132MOL    C8129163   3.053   6.367   4.823 -1.0565 -0.0085  0.8755
  132MOL    C8229164   3.176   6.332   4.884 -0.2953 -0.1786 -0.6778
  132MOL    C8329165   3.277   6.277   4.799  0.1480  0.4016  0.0020
  132MOL    C8429166   3.259   6.257   4.664 -0.3217 -0.2884 -0.1574
  132MOL    O8529167   3.356   6.190   4.589  0.2874 -0.0429 -0.1763
  132MOL    H8629168   3.113   6.278   4.504 -0.4661  1.3765 -0.4621
  132MOL    H8729169   2.943   6.379   4.630 -0.3689 -0.7263  0.3108
  132MOL    H8829170   3.173   6.349   4.991  1.1986  0.3852 -0.7113
  132MOL    H8929171   3.369   6.250   4.849 -0.8506 -0.9214  1.1464
  132MOL    C9029172   3.703   6.198   4.465  0.1103  0.7331  0.3452
  132MOL    C9129173   3.578   6.157   4.513  0.8608  0.8030 -0.0412
  132MOL    C9229174   3.480   6.248   4.558  0.8959  0.4302  0.1216
  132MOL    C9329175   3.510   6.387   4.560 -0.6152  0.4159 -0.8257
  132MOL    C9429176   3.637   6.422   4.516 -0.2977 -0.6200  0.6833
  132MOL    C9529177   3.738   6.332   4.466 -0.8024 -0.4454 -0.7327
  132MOL    O9629178   3.866   6.382   4.441 -0.1637  0.0771  0.1124
  132MOL    H9729179   3.776   6.128   4.427 -0.2771 -0.5180  1.8434
  132MOL    H9829180   3.551   6.053   4.509 -1.4123  1.3286  1.0119
  132MOL    H9929181   3.424   6.446   4.591 -1.4818 -0.2974 -1.8330
  132MOL   H10029182   3.654   6.528   4.526 -0.3233 -0.5801  0.3085
  132MOL   C10129183   3.900   6.589   4.135  0.2030 -0.5274  0.1549
  132MOL   C10229184   3.866   6.559   4.269  0.3923 -0.1491  0.4612
  132MOL   C10329185   3.887   6.423   4.313  0.2270  0.0795  0.4656
  132MOL   C10429186   3.930   6.321   4.225  0.3622  0.0761  0.2261
  132MOL   C10529187   3.959   6.354   4.088  0.2209  0.3581 -0.0860
  132MOL   C10629188   3.940   6.489   4.044  0.4848 -0.3794 -0.4356
  132MOL   O10729189   3.989   6.519   3.925 -0.5020  0.3752 -0.6899
  132MOL   H10829190   3.895   6.688   4.091  0.3395 -0.6894 -0.2206
  132MOL   H10929191   3.828   6.630   4.341 -0.5135 -0.1937  0.0412
  132MOL   H11029192   3.948   6.228   4.277 -0.7830 -1.4323 -1.9672
  132MOL   H11129193   4.009   6.292   4.016 -2.9776 -1.8496 -0.4770
  132MOL   C11229194   3.720   6.455   3.675 -0.0033 -0.2493  0.0865
  132MOL   C11329195   3.798   6.448   3.794  0.2051  0.3502  0.4047
  132MOL   C11429196   3.906   6.534   3.814 -0.2739 -0.5100  0.1106
  132MOL   C11529197   3.923   6.640   3.723  0.4655  0.1856 -0.9313
  132MOL   C11629198   3.845   6.649   3.607 -0.7484  0.2208 -0.2744
  132MOL   C11729199   3.743   6.550   3.585  0.7150 -0.3128  0.1062
  132MOL   O11829200   3.669   6.547   3.468  0.1910 -0.4861 -0.1385
  132MOL   H11929201   3.656   6.370   3.661 -0.7296  0.2381  0.4071
  132MOL   H12029202   3.783   6.362   3.857  3.5511 -0.5693  0.0450
  132MOL   H12129203   3.992   6.718   3.752 -0.2569  0.0977  1.1643
  132MOL   H12229204   3.849   6.732   3.539 -0.2485  0.7361  0.3704
  132MOL   C12329205   3.310   6.578   3.549  0.3625 -0.8397  0.9017
  132MOL   C12429206   3.440   6.520   3.535  0.4085  0.6088 -0.4292
  132MOL   C12529207   3.543   6.594   3.478  0.3626 -0.6264  0.0584
  132MOL   C12629208   3.519   6.726   3.427  0.2762 -0.1719 -0.1972
  132MOL   C12729209   3.392   6.781   3.440 -0.2668 -0.5050 -0.2183
  132MOL   C12829210   3.291   6.713   3.511 -0.0722  0.2082  0.0322
  132MOL   O12929211   3.176   6.785   3.546 -0.8405  0.1315  0.0424
  132MOL   H13029212   3.220   6.533   3.588  0.7250 -0.5875  2.0460
  132MOL   H13129213   3.459   6.415   3.556 -0.1029  0.2036 -1.9255
  132MOL   H13229214   3.605   6.777   3.384 -0.8690  2.1572  0.1935
  132MOL   H13329215   3.364   6.878   3.403  0.2858 -0.9112 -1.7463
  132MOL   C13429216   2.917   6.924   3.326  0.1697 -0.1542  0.0274
  132MOL   C13529217   3.005   6.908   3.435  0.0016  0.3344 -0.8240
  132MOL   C13629218   3.088   6.791   3.446 -0.6517 -0.3271 -1.0156
  132MOL   C13729219   3.077   6.692   3.337 -0.1674 -0.9391  0.1807
  132MOL   C13829220   3.002   6.719   3.223 -0.4905  0.2763 -0.2915
  132MOL   C13929221   2.924   6.836   3.217  0.4928 -0.1545  0.4852
  132MOL   O14029222   2.838   6.858   3.116  0.3800  0.1748 -0.6585
  132MOL   H14129223   2.862   7.017   3.315  0.8494  0.3801  0.9944
  132MOL   H14229224   3.013   6.978   3.517 -1.5482  1.0898 -1.3042
  132MOL   H14329225   3.137   6.602   3.340  1.4809  0.1311  0.3294
  132MOL   H14429226   3.002   6.650   3.140  0.3548  0.1958 -0.2274
  132MOL   C14529227   2.973   6.850   2.773 -0.0548 -0.3847 -0.3978
  132MOL   C14629228   2.908   6.800   2.887  0.1773 -0.0192  0.1519
  132MOL   C14729229   2.895   6.890   2.992 -0.1088 -0.6489  0.2938
  132MOL   C14829230   2.943   7.023   2.983  0.0287 -0.3255  0.1784
  132MOL   C14929231   3.006   7.076   2.866  0.3277 -0.5483 -0.1961
  132MOL   C15029232   3.018   6.983   2.761  0.1691 -0.1858  0.0372
  132MOL   O15129233   3.073   7.025   2.641 -1.0183 -0.2057 -0.4514
  132MOL   H15229234   2.997   6.776   2.697 -0.1126 -0.3264 -0.4731
  132MOL   H15329235   2.885   6.695   2.895  1.3115 -0.2653  0.1683
  132MOL   H15429236   2.930   7.087   3.069 -0.2665  0.4147 -0.4159
  132MOL   H15529237   3.035   7.178   2.847 -0.2766 -0.7228 -2.2355
  132MOL   C15629238   3.327   7.279   2.579 -0.3639  0.0328 -0.5550
  132MOL   C15729239   3.215   7.202   2.559 -0.3926  0.5129 -0.6373
  132MOL   C15829240   3.195   7.091   2.642 -0.2623  0.2654  0.1805
  132MOL   C15929241   3.299   7.054   2.737 -0.4844 -0.8495 -0.2947
  132MOL   C16029242   3.415   7.132   2.756  0.1318 -0.0446 -0.0364
  132MOL   C16129243   3.426   7.252   2.675 -0.1430  0.1052  0.2473
  132MOL   O16229244   3.539   7.331   2.686  0.0704  0.4018 -0.2379
  132MOL   H16329245   3.344   7.359   2.508  0.9321  0.0330 -0.2476
  132MOL   H16429246   3.130   7.227   2.497 -0.3754  0.6633 -0.6005
  132MOL   H16529247   3.285   6.970   2.804  2.1721 -0.0412  1.3729
  132MOL   H16629248   3.488   7.114   2.833 -0.8067  1.2995  1.1964
  132MOL   C16729249   3.683   7.382   3.023 -0.1221  0.1080 -0.2906
  132MOL   C16829250   3.661   7.332   2.891 -0.5871  0.0973  0.8233
  132MOL   C16929251   3.571   7.394   2.808 -1.0940  0.2552 -0.2226
  132MOL   C17029252   3.495   7.504   2.859  0.5766 -0.2098 -0.3435
  132MOL   C17129253   3.518   7.552   2.984 -0.2506 -0.4165 -0.2332
  132MOL   C17229254   3.613   7.493   3.068  0.2582  0.3230 -0.4543
  132MOL   O17329255   3.642   7.544   3.193 -0.1889  0.9081 -0.3686
  132MOL   H17429256   3.766   7.355   3.087 -1.0180 -0.1122  0.7984
  132MOL   H17529257   3.732   7.265   2.845  0.9004  1.9797  0.3582
  132MOL   H17629258   3.421   7.549   2.795  1.4859 -0.9341 -1.9279
  132MOL   H17729259   3.462   7.635   3.025 -0.6827  1.2107 -3.9361
  132MOL   C17829260   3.379   7.488   3.455 -0.1934 -0.4224 -0.6239
  132MOL   C17929261   3.492   7.461   3.373  0.1283 -0.1877 -0.0093
  132MOL   C18029262   3.536   7.561   3.278  0.1494  0.4616 -0.1510
  132MOL   C18129263   3.480   7.686   3.285 -0.3953 -0.5526 -0.3929
  132MOL   C18229264   3.383   7.716   3.374  0.2653 -0.8092 -0.0644
  132MOL   C18329265   3.317   7.613   3.446 -0.5586 -0.5726  1.3918
  132MOL   O18429266   3.199   7.639   3.519  0.2563 -0.1639  0.2034
  132MOL   H18529267   3.332   7.414   3.519 -0.5965 -0.4778 -0.9858
  132MOL   H18629268   3.537   7.363   3.377  1.4560  0.4474  0.9728
  132MOL   H18729269   3.519   7.767   3.226  4.3024 -1.0503  1.8304
  132MOL   H18829270   3.358   7.819   3.395  0.0261 -0.8082 -0.3544
  132MOL   C18929271   2.949   7.875   3.396  0.0148  0.3560 -0.2871
  132MOL   C19029272   3.050   7.817   3.476  0.3512 -0.4660 -0.5127
  132MOL   C19129273   3.095   7.690   3.445  0.4199 -0.5131 -0.2194
  132MOL   C19229274   3.053   7.625   3.333  0.4190  0.5060  0.0161
  132MOL   C19329275   2.951   7.680   3.249 -0.5306  0.5920  0.8600
  132MOL   C19429276   2.898   7.805   3.281  0.5015 -0.2929 -0.1026
  132MOL   O19529277   2.798   7.861   3.207 -0.1447 -0.1333 -0.2945
  132MOL   H19629278   2.906   7.971   3.420  0.7055  0.1975  1.6731
  132MOL   H19729279   3.097   7.871   3.557  0.9972 -0.4901 -0.8716
  132MOL   H19829280   3.089   7.527   3.305 -1.6441 -0.5903  1.0463
  132MOL   H19929281   2.902   7.624   3.171 -0.4462 -1.7963  2.4647
  132MOL   C20029282   2.959   8.032   2.923 -0.1693  0.2268  0.3153
  132MOL   C20129283   2.951   7.955   3.041 -0.1882 -0.5009 -0.2718
  132MOL   C20229284   2.819   7.936   3.099 -0.3128 -0.3281 -0.0278
  132MOL   C20329285   2.712   8.008   3.050 -0.0990 -0.4432 -0.1285
  132MOL   C20429286   2.725   8.091   2.938 -0.7196  0.2808  0.4107
  132MOL   C20529287   2.846   8.100   2.871  0.4806  0.1189  0.5967
  132MOL   O20629288   2.864   8.196   2.776  0.1577 -1.1685  0.9063
  132MOL   H20729289   3.054   8.059   2.879 -0.8211  1.9804 -0.0542
  132MOL   H20829290   3.035   7.897   3.077  0.2516  0.5291  0.3818
  132MOL   H20929291   2.617   7.989   3.098 -1.3567  0.1739 -2.2990
  132MOL   H21029292   2.651   8.164   2.909 -1.1709 -1.0173 -1.8184
  132MOL   C21129293   3.060   0.205   2.939 -0.8668 -0.0978 -0.4426
  132MOL   C21229294   2.952   0.121   2.904 -0.2758  0.5740 -0.5044
  132MOL   C21329295   2.953   0.042   2.788 -0.1197  0.0468  0.1332
  132MOL   C21429296   3.064   0.038   2.705 -0.9196  0.7488  0.2709
  132MOL   C21529297   3.172   0.119   2.736 -0.1012  0.3664 -0.2014
  132MOL   C21629298   3.172   0.201   2.850  0.0786  0.1564  0.7583
  132MOL   O21729299   3.282   0.277   2.873  0.1955  0.9560 -0.0394
  132MOL   H21829300   3.070   0.274   3.022  0.9779 -0.2897 -0.4723
  132MOL   H21929301   2.885   0.102   2.986 -0.3395 -0.3554 -0.7769
  132MOL   H22029302   3.066   8.221   2.624  1.7622 -1.0811  1.8675
  132MOL   H22129303   3.264   0.107   2.680 -1.1169 -0.8675 -1.6510
  132MOL   H22229304   3.328   0.291   2.792  1.2275  2.0308  0.7241
  133MOL     C129305   2.041   3.686   7.299 -0.8457 -0.5857  0.3271
  133MOL     C229306   2.014   3.579   7.390  0.4317  0.9436  0.3389
  133MOL     C329307   2.112   3.485   7.417 -0.9241 -0.5153 -0.1765
  133MOL     C429308   2.238   3.495   7.347 -0.0125 -0.2304  0.1419
  133MOL     C529309   2.254   3.594   7.246 -0.5191  0.0122  0.0287
  133MOL     C629310   2.156   3.689   7.228  0.1297 -1.1484 -1.2716
  133MOL     O729311   2.179   3.776   7.127 -0.2031  0.0332 -0.0725
  133MOL     H829312   1.969   3.766   7.290  0.1677  0.3915  0.8158
  133MOL     H929313   1.918   3.582   7.439  0.8669 -0.6027  1.3364
  133MOL    H1029314   2.321   3.427   7.365  0.4915  0.5348  0.7262
  133MOL    H1129315   2.345   3.600   7.189 -1.0377 -0.6843 -0.8767
  133MOL    H1229316   2.098   3.409   7.492 -2.8879  0.5675  0.5951
  133MOL    C1329317   2.189   4.156   7.108 -0.6616  0.5154  0.2577
  133MOL    C1429318   2.163   4.021   7.084  0.1884 -0.9855 -0.3284
  133MOL    C1529319   2.218   3.910   7.160 -0.2848  0.4537 -0.6290
  133MOL    C1629320   2.323   3.941   7.252  0.1718  0.5967 -0.8425
  133MOL    C1729321   2.350   4.079   7.275  0.0481  0.4371 -0.2060
  133MOL    C1829322   2.283   4.180   7.207  0.5503 -0.0335  0.3880
  133MOL    O1929323   2.285   4.310   7.244 -0.3642 -0.1246 -0.3864
  133MOL    H2029324   2.146   4.234   7.046 -2.1326 -2.1051 -2.0969
  133MOL    H2129325   2.098   3.991   7.003  1.2659 -1.9588 -0.8530
  133MOL    H2229326   2.376   3.858   7.298  0.7040  1.4799  0.1439
  133MOL    H2329327   2.417   4.101   7.356 -1.6399 -2.7915  2.1745
  133MOL    C2429328   2.101   4.318   7.557 -0.2944  0.7419  0.2832
  133MOL    C2529329   2.188   4.281   7.456 -0.7648  0.2008 -0.0862
  133MOL    C2629330   2.181   4.341   7.332  0.3918  0.7720  0.1606
  133MOL    C2729331   2.077   4.432   7.302 -0.5742 -0.2646 -0.2904
  133MOL    C2829332   1.979   4.458   7.396  0.1101  0.7147 -0.2661
  133MOL    C2929333   1.992   4.398   7.519 -0.5843 -0.2533  0.5365
  133MOL    O3029334   1.899   4.430   7.612 -0.1640  0.9808  0.0799
  133MOL    H3129335   2.115   4.288   7.660  0.9040 -0.1489 -0.1312
  133MOL    H3229336   2.268   4.215   7.487 -0.4674  0.0400 -1.1697
  133MOL    H3329337   2.068   4.467   7.200 -2.0085 -1.5941 -0.6350
  133MOL    H3429338   1.888   4.511   7.370 -0.9306 -2.3418 -3.2588
  133MOL    C3529339   1.775   4.268   7.914 -0.4960  0.4884 -0.6316
  133MOL    C3629340   1.845   4.351   7.828 -0.2935 -0.5541  0.0540
  133MOL    C3729341   1.830   4.338   7.690  0.1769 -0.4919  0.2361
  133MOL    C3829342   1.749   4.231   7.636  0.8466 -0.4887 -0.2916
  133MOL    C3929343   1.676   4.149   7.725  1.0461 -0.1230  0.2144
  133MOL    C4029344   1.689   4.163   7.864 -0.2538  0.3482  0.2873
  133MOL    O4129345   1.622   4.087   7.949  0.6930 -0.6432 -0.2818
  133MOL    H4229346   1.791   4.283   8.020 -0.7695 -0.9153 -0.3757
  133MOL    H4329347   1.904   4.428   7.875  0.2186 -0.9925  0.1368
  133MOL    H4429348   1.736   4.213   7.530  1.5037 -1.4516 -0.2191
  133MOL    H4529349   1.611   4.076   7.678  0.3169  0.1524  0.7910
  133MOL    C4629350   1.874   3.854   8.096  0.3095 -0.0338  0.2124
  133MOL    C4729351   1.823   3.955   8.022  0.3719  0.3619  0.6394
  133MOL    C4829352   1.685   3.993   8.028  0.3913 -0.2242  0.5284
  133MOL    C4929353   1.608   3.930   8.137  0.0855 -0.4682  0.4693
  133MOL    C5029354   1.664   3.831   8.222 -0.4908 -0.1684  0.2887
  133MOL    C5129355   1.799   3.791   8.201 -0.3775 -1.1856 -0.3235
  133MOL    O5229356   1.862   3.693   0.021 -0.2236 -0.5729 -0.3042
  133MOL    H5329357   1.973   3.817   8.075  0.0113 -1.8217  1.8146
  133MOL    H5429358   1.887   4.001   7.948  0.8168 -0.1777  0.6799
  133MOL    H5529359   1.503   3.954   8.151 -0.3871 -2.1749  0.0306
  133MOL    H5629360   1.603   3.780   0.041  0.8472 -1.5994  0.4409
  133MOL    C5729361   2.200   3.756   0.149 -0.4496  0.5094 -0.4593
  133MOL    C5829362   2.091   3.718   0.059 -0.1928  0.0144 -0.0473
  133MOL    C5929363   1.961   3.741   0.102  0.1458  0.1337  0.0594
  133MOL    C6029364   1.925   3.801   0.220 -0.8005 -0.1545  0.1624
  133MOL    C6129365   2.025   3.835   0.306  0.5086 -0.2921 -0.7535
  133MOL    C6229366   2.161   3.806   0.275 -0.7291 -0.0520  0.7411
  133MOL    O6329367   2.255   3.842   0.370 -0.6957 -0.5721 -0.4879
  133MOL    H6429368   2.302   3.747   0.116  0.2212 -1.7653  2.0729
  133MOL    H6529369   2.114   3.665   8.222 -1.0138 -1.9916  0.8722
  133MOL    H6629370   1.821   3.806   0.248 -0.3733 -0.7350  1.9216
  133MOL    H6729371   2.000   3.878   0.402 -0.7816 -1.6107 -0.4840
  133MOL    C6829372   2.322   4.188   0.276 -0.2296  0.0659 -0.1538
  133MOL    C6929373   2.276   4.057   0.270  0.4302  0.3714  0.5503
  133MOL    C7029374   2.298   3.968   0.378  0.0738 -0.3680 -0.4207
  133MOL    C7129375   2.357   4.011   0.496 -0.4619  0.5059  0.5076
  133MOL    C7229376   2.413   4.141   0.500 -0.4169  0.6418 -0.3755
  133MOL    C7329377   2.384   4.232   0.395  0.3214  0.0098  0.7832
  133MOL    O7429378   2.421   4.367   0.391  0.0873 -0.1498 -0.2302
  133MOL    H7529379   2.302   4.261   0.199  0.5528 -0.0457 -0.4679
  133MOL    H7629380   2.230   4.029   0.176  0.8466 -1.6905  0.9274
  133MOL    H7729381   2.359   3.942   0.579 -0.1982  1.6177  1.4459
  133MOL    H7829382   2.462   4.164   0.594 -1.4671 -0.7526  0.5229
  133MOL    C7929383   2.264   4.593   0.644 -0.4552  0.1805 -0.2495
  133MOL    C8029384   2.274   4.495   0.542 -0.0178 -0.3368  0.2513
  133MOL    C8129385   2.403   4.446   0.498 -0.8073 -0.1269  0.0546
  133MOL    C8229386   2.517   4.489   0.566  0.3138 -0.3457 -0.4997
  133MOL    C8329387   2.503   4.582   0.674  0.5306 -0.1613 -0.1607
  133MOL    C8429388   2.381   4.640   0.709  0.8589  0.4003 -0.1335
  133MOL    O8529389   2.382   4.740   0.803 -0.1085  0.6116 -0.2430
  133MOL    H8629390   2.166   4.627   0.673  0.1101  1.7548 -0.1695
  133MOL    H8729391   2.181   4.480   0.488  0.2196  0.5816 -0.4283
  133MOL    H8829392   2.616   4.457   0.539  0.6082  0.2969 -0.1748
  133MOL    H8929393   2.592   4.613   0.728  1.3051  0.3675 -1.7270
  133MOL    C9029394   2.199   5.051   0.858 -0.2576  0.5195 -0.6890
  133MOL    C9129395   2.258   4.927   0.876  0.2538  0.2431  0.0222
  133MOL    C9229396   2.326   4.859   0.767 -0.2124  0.3451 -0.5231
  133MOL    C9329397   2.333   4.926   0.642  0.3051 -0.0237 -0.4914
  133MOL    C9429398   2.280   5.051   0.631  0.4067 -0.3127 -0.1085
  133MOL    C9529399   2.210   5.116   0.732  0.9463 -0.0429  0.6361
  133MOL    O9629400   2.166   5.248   0.728  0.6846 -0.0387  0.3718
  133MOL    H9729401   2.160   5.104   0.943 -2.8124 -1.9822 -0.2151
  133MOL    H9829402   2.243   4.871   0.967 -0.5131 -1.3735 -1.0924
  133MOL    H9929403   2.383   4.886   0.556  2.0762  0.8973  0.0849
  133MOL   H10029404   2.305   5.110   0.544 -0.4692  1.3778  0.7457
  133MOL   C10129405   2.275   5.560   0.901  0.1024 -0.0449 -0.2864
  133MOL   C10229406   2.189   5.459   0.849  0.1485  0.4738  0.5459
  133MOL   C10329407   2.245   5.345   0.789  0.0866  0.9990 -0.5879
  133MOL   C10429408   2.383   5.331   0.782 -0.1666  0.4960 -0.6318
  133MOL   C10529409   2.466   5.426   0.841 -0.1616 -0.9376  0.2404
  133MOL   C10629410   2.413   5.546   0.896 -0.1203 -0.4225  0.2336
  133MOL   O10729411   2.506   5.638   0.954 -0.4888  0.0475 -0.0401
  133MOL   H10829412   2.226   5.642   0.952  0.9379 -0.9490  2.0343
  133MOL   H10929413   2.084   5.474   0.865  0.4462  1.1081  1.9762
  133MOL   H11029414   2.436   5.247   0.739 -2.6795 -2.3848  1.6839
  133MOL   H11129415   2.573   5.414   0.842 -0.3786 -2.8830  0.4020
  133MOL   C11229416   2.574   5.851   0.657  0.0538  0.8101 -0.1550
  133MOL   C11329417   2.535   5.738   0.735 -0.0855  0.1739 -0.1929
  133MOL   C11429418   2.547   5.742   0.879 -0.5752  0.2963  0.0931
  133MOL   C11529419   2.604   5.860   0.940  0.5218  0.6451 -0.5081
  133MOL   C11629420   2.646   5.970   0.857  0.4594 -0.6546 -0.6173
  133MOL   C11729421   2.626   5.964   0.719 -0.9350 -0.0394  0.8296
  133MOL   O11829422   2.670   6.073   0.649 -0.1531  0.1255  0.3545
  133MOL   H11929423   2.569   5.837   0.550  2.0068  1.0686 -0.2950
  133MOL   H12029424   2.507   5.654   0.674 -0.1508  1.2594 -1.6881
  133MOL   H12129425   2.598   5.864   1.048  0.9786 -3.5471 -0.2371
  133MOL   H12229426   2.687   6.057   0.907  0.3859  0.6125 -2.6897
  133MOL   C12329427   2.585   6.212   0.322  0.1008  0.4586 -0.4119
  133MOL   C12429428   2.652   6.160   0.430 -0.8667 -0.4470  0.3021
  133MOL   C12529429   2.592   6.105   0.540  0.4894 -0.0222 -0.0223
  133MOL   C12629430   2.448   6.115   0.540  0.2122 -0.1858 -0.1557
  133MOL   C12729431   2.376   6.175   0.434  0.2574  0.0878  0.0106
  133MOL   C12829432   2.448   6.231   0.329  0.4998 -0.4930  0.3584
  133MOL   O12929433   2.386   6.293   0.224 -0.2986  0.3275  0.1149
  133MOL   H13029434   2.641   6.243   0.236  0.4466  1.8973  0.3155
  133MOL   H13129435   2.759   6.168   0.431 -0.9015  0.4159 -1.1943
  133MOL   H13229436   2.398   6.077   0.628  0.4024 -1.8423 -0.7307
  133MOL   H13329437   2.269   6.194   0.439  0.0314 -1.0192 -0.4777
  133MOL   C13429438   2.489   6.162   8.143  0.7745 -0.0128 -0.1629
  133MOL   C13529439   2.479   6.244   0.006 -0.5032 -0.0122 -0.0270
  133MOL   C13629440   2.389   6.218   0.109  0.5075  0.5601 -0.7063
  133MOL   C13729441   2.308   6.104   0.100  0.3079  0.7908  0.1630
  133MOL   C13829442   2.300   6.030   8.235 -0.6447 -1.1062 -0.3844
  133MOL   C13929443   2.387   6.060   8.131  0.0345 -0.4422 -0.0730
  133MOL   O14029444   2.375   5.988   8.012 -0.5164  0.1233  0.0256
  133MOL   H14129445   2.554   6.196   8.063  0.5127 -0.9466 -0.7794
  133MOL   H14229446   2.549   6.326   0.013 -1.2234  0.7718 -1.8791
  133MOL   H14329447   2.247   6.092   0.189 -1.5836  1.7287 -0.9756
  133MOL   H14429448   2.230   5.951   8.218 -1.3237 -0.8013  0.9268
  133MOL   C14529449   2.197   5.972   7.697  0.7257 -0.2631 -0.2006
  133MOL   C14629450   2.276   5.936   7.806 -0.7979  0.3635 -0.5683
  133MOL   C14729451   2.275   6.019   7.925 -0.0355  0.1129 -0.7602
  133MOL   C14829452   2.199   6.142   7.917  0.1794 -0.2262 -0.2726
  133MOL   C14929453   2.115   6.181   7.811 -0.1641 -0.3201  0.2356
  133MOL   C15029454   2.115   6.090   7.704  0.2244  0.0657 -0.0964
  133MOL   O15129455   2.045   6.128   7.593 -0.4948 -0.3931 -0.1769
  133MOL   H15229456   2.187   5.904   7.613  1.2728 -1.1554  0.4488
  133MOL   H15329457   2.324   5.840   7.795 -0.0761  0.5350  0.9715
  133MOL   H15429458   2.203   6.208   8.002 -1.6454 -0.4345 -0.0034
  133MOL   H15529459   2.058   6.273   7.811 -0.3174 -0.4077 -0.9266
  133MOL   C15629460   1.766   5.939   7.446 -0.1973 -0.3741  0.0890
  133MOL   C15729461   1.890   6.003   7.461 -0.0111 -0.4332  0.1065
  133MOL   C15829462   1.915   6.088   7.573  0.0191  0.4541 -0.1056
  133MOL   C15929463   1.817   6.118   7.663 -0.4585 -0.6210  0.2121
  133MOL   C16029464   1.691   6.056   7.640 -0.2191 -0.2451  0.3429
  133MOL   C16129465   1.660   5.971   7.531  0.1545 -0.1350  0.6023
  133MOL   O16229466   1.536   5.906   7.510  0.3404 -0.5394  0.0705
  133MOL   H16329467   1.740   5.874   7.363  1.0073 -2.8871  1.6122
  133MOL   H16429468   1.976   5.968   7.405  0.3458 -0.5662  0.7353
  133MOL   H16529469   1.828   6.195   7.738 -2.2451  1.5567 -1.6945
  133MOL   H16629470   1.614   6.092   7.706 -0.0306 -0.7091  0.8136
  133MOL   C16729471   1.487   5.616   7.723  0.2062  0.3337 -0.2444
  133MOL   C16829472   1.537   5.694   7.619  0.0580  0.1712  0.7841
  133MOL   C16929473   1.494   5.826   7.615 -0.3063  0.3967  0.3579
  133MOL   C17029474   1.410   5.873   7.720 -0.2024 -0.0661  0.4323
  133MOL   C17129475   1.383   5.798   7.837 -0.4057 -0.0676 -0.2202
  133MOL   C17229476   1.423   5.666   7.838  0.3626 -0.2890  0.7065
  133MOL   O17329477   1.390   5.582   7.943 -0.2429 -0.5776 -0.0685
  133MOL   H17429478   1.498   5.509   7.725  0.6777  0.3768 -0.2649
  133MOL   H17529479   1.602   5.646   7.548  0.9754  0.9521  1.0825
  133MOL   H17629480   1.373   5.974   7.710  0.8207  0.4275  1.4545
  133MOL   H17729481   1.330   5.835   7.923 -3.0406  1.3415 -2.3705
  133MOL   C17829482   1.525   5.256   8.013 -0.0137 -0.0043  0.1657
  133MOL   C17929483   1.431   5.354   7.986  0.3324 -0.4132 -0.3874
  133MOL   C18029484   1.476   5.488   7.983 -0.2805 -0.6826 -0.2493
  133MOL   C18129485   1.611   5.519   8.011  0.7057 -0.6293  0.0640
  133MOL   C18229486   1.709   5.416   8.032  0.6098 -0.6359  0.0677
  133MOL   C18329487   1.662   5.283   8.038  0.4267 -0.7058  0.1124
  133MOL   O18429488   1.745   5.180   8.075 -0.1867  0.6392 -0.0109
  133MOL   H18529489   1.493   5.153   8.019 -0.0089  0.0714  1.6501
  133MOL   H18629490   1.329   5.321   7.972  0.4992 -1.1548  0.1220
  133MOL   H18729491   1.642   5.622   8.014  3.1378 -1.3322 -0.2985
  133MOL   H18829492   1.812   5.442   8.046  0.4050  1.0896 -1.4336
  133MOL   C18929493   1.917   5.249   0.142 -0.2178 -0.2837 -0.4263
  133MOL   C19029494   1.813   5.259   0.042 -0.2253  0.4119  0.4511
  133MOL   C19129495   1.843   5.201   8.169 -0.4795  0.1128 -0.1159
  133MOL   C19229496   1.972   5.146   8.144  0.8468  0.3664  0.4768
  133MOL   C19329497   2.068   5.126   8.248 -0.6018  0.0577 -0.5364
  133MOL   C19429498   2.044   5.192   0.124 -0.8387  0.1739  0.1084
  133MOL   O19529499   2.126   5.177   0.227 -0.4376 -0.1203  0.1586
  133MOL   H19629500   1.877   5.281   0.237 -0.2446 -0.2664 -0.4430
  133MOL   H19729501   1.717   5.308   0.047  0.7320  2.3685 -0.0457
  133MOL   H19829502   1.973   5.105   8.044 -1.5297  2.1288 -0.3184
  133MOL   H19929503   2.164   5.080   8.227 -0.8745 -1.2366  0.9811
  133MOL   C20029504   2.322   5.437   0.407  0.1748  0.0314  0.1652
  133MOL   C20129505   2.215   5.358   0.363 -0.4300 -0.6916 -1.2406
  133MOL   C20229506   2.221   5.267   0.257 -0.8716 -0.1294  0.3018
  133MOL   C20329507   2.346   5.262   0.187  0.3228 -0.2763 -0.6789
  133MOL   C20429508   2.457   5.333   0.231  0.4853 -0.6057  1.0059
  133MOL   C20529509   2.447   5.425   0.338  0.9973  0.1193  0.6326
  133MOL   O20629510   2.556   5.496   0.375  0.6069 -0.0304  0.2578
  133MOL   H20729511   2.316   5.498   0.496 -0.0970  2.2855 -1.3781
  133MOL   H20829512   2.124   5.357   0.422  1.4687 -2.1242  1.7830
  133MOL   H20929513   2.360   5.189   0.109 -0.7159 -1.0624 -0.1508
  133MOL   H21029514   2.549   5.318   0.176  1.4975  3.9553  1.2875
  133MOL   C21129515   2.512   5.811   0.203  0.3963 -0.0415  0.0595
  133MOL   C21229516   2.473   5.688   0.251  0.4187  0.8163 -0.2826
  133MOL   C21329517   2.580   5.613   0.311  0.5172  0.3391  0.1471
  133MOL   C21429518   2.713   5.655   0.309  0.3661 -1.0736  0.3406
  133MOL   C21529519   2.754   5.775   0.250 -0.2641 -0.1520 -0.4862
  133MOL   C21629520   2.648   5.854   0.209 -0.2807  0.2944 -0.0502
  133MOL   O21729521   2.677   5.970   0.145  0.7005 -0.1084  0.2599
  133MOL   H21829522   2.443   5.877   0.154  0.9898  0.5946  0.0638
  133MOL   H21929523   2.371   5.655   0.260  0.9339 -0.5601  0.6998
  133MOL   H22029524   2.795   5.592   0.342  0.6339  0.2628  2.3602
  133MOL   H22129525   2.857   5.801   0.233 -0.6787  1.4069 -0.6610
  133MOL   H22229526   2.602   6.010   0.104 -0.4575 -3.2503 -0.8148
  134MOL     C129527   6.267   7.013   7.399 -0.5723  0.0742  0.4011
  134MOL     C229528   6.346   7.023   7.520 -0.4264 -0.3720  0.4041
  134MOL     C329529   6.485   7.021   7.518  0.0815 -1.0329 -0.2931
  134MOL     C429530   6.547   7.008   7.393 -0.0233  0.3803  0.7095
  134MOL     C529531   6.472   7.012   7.272 -0.8153  1.0759 -0.7265
  134MOL     C629532   6.333   7.008   7.274 -0.2322  0.0363 -0.6292
  134MOL     O729533   6.269   6.987   7.158  0.1566 -0.6136  0.1587
  134MOL     H829534   6.160   7.027   7.405 -0.4751  0.8565  0.2642
  134MOL     H929535   6.305   7.038   7.618  0.6218 -0.7852  0.9126
  134MOL    H1029536   6.655   7.002   7.389 -0.1664 -3.0062  0.3957
  134MOL    H1129537   6.530   7.013   7.181 -1.0522  2.7353 -0.8858
  134MOL    H1229538   6.543   7.025   7.608  1.2489 -4.9359 -0.7509
  134MOL    C1329539   6.063   7.275   7.077  0.1251 -0.0996  0.9293
  134MOL    C1429540   6.176   7.203   7.117  0.1330  0.5674 -0.3694
  134MOL    C1529541   6.161   7.065   7.132  0.6995 -0.3059 -0.5283
  134MOL    C1629542   6.044   6.997   7.112 -0.5496 -0.5258  0.0416
  134MOL    C1729543   5.931   7.069   7.070 -0.3890  0.4402  0.0408
  134MOL    C1829544   5.938   7.205   7.054 -0.5099 -0.4363 -0.9742
  134MOL    O1929545   5.829   7.278   7.003 -0.3865 -0.7751 -0.0449
  134MOL    H2029546   6.061   7.381   7.055 -1.2257 -0.6271 -1.8198
  134MOL    H2129547   6.271   7.250   7.133  1.4293 -1.2973 -2.3489
  134MOL    H2229548   6.047   6.889   7.113 -0.0204 -0.5115  0.1397
  134MOL    H2329549   5.841   7.019   7.039  0.3142 -1.5207  1.0988
  134MOL    C2429550   5.515   7.216   7.171 -0.0504  1.0756  0.4010
  134MOL    C2529551   5.627   7.198   7.091 -0.4824 -0.4538  0.8410
  134MOL    C2629552   5.729   7.295   7.089 -0.0835  0.5143  0.2963
  134MOL    C2729553   5.727   7.403   7.176 -0.0891 -0.2807 -0.0139
  134MOL    C2829554   5.623   7.416   7.271 -0.1894  0.5629  0.4009
  134MOL    C2929555   5.517   7.323   7.262 -0.3517  0.3363  1.0131
  134MOL    O3029556   5.401   7.341   7.333  0.1249 -0.9852  0.1339
  134MOL    H3129557   5.422   7.161   7.168  0.4633  0.3072 -2.4156
  134MOL    H3229558   5.624   7.117   7.019 -0.9603  1.5035 -1.4181
  134MOL    H3329559   5.807   7.475   7.176  1.5365 -2.0443 -1.2569
  134MOL    H3429560   5.618   7.492   7.348  0.4048  3.4616 -2.3147
  134MOL    C3529561   5.240   7.638   7.184  0.1761 -0.3869  0.7355
  134MOL    C3629562   5.327   7.526   7.196  0.4922  0.9508 -0.3737
  134MOL    C3729563   5.341   7.464   7.317  0.0793  0.5257 -0.7104
  134MOL    C3829564   5.280   7.520   7.430 -0.3180 -0.3375  0.7987
  134MOL    C3929565   5.192   7.631   7.418 -0.1283 -0.9021 -0.3465
  134MOL    C4029566   5.184   7.704   7.296 -0.3471  0.1618  0.4196
  134MOL    O4129567   5.109   7.819   7.285  0.8301 -0.1908 -0.2828
  134MOL    H4229568   5.226   7.682   7.087  1.8398 -0.1572  0.5863
  134MOL    H4329569   5.368   7.488   7.104 -2.2312 -0.7635 -0.9453
  134MOL    H4429570   5.290   7.476   7.528  0.8346  2.2178  1.8893
  134MOL    H4529571   5.141   7.670   7.505  2.2581  3.2552 -0.6716
  134MOL    C4629572   5.301   8.132   7.270  0.1293  0.2877  0.6923
  134MOL    C4729573   5.257   8.005   7.230  0.6005 -0.1815  0.1609
  134MOL    C4829574   5.169   7.936   7.320 -0.0540  0.0808  0.3062
  134MOL    C4929575   5.138   7.991   7.443 -0.0222  0.7531  0.1041
  134MOL    C5029576   5.172   8.122   7.481 -0.0323  0.0201  0.6654
  134MOL    C5129577   5.257   8.190   7.390  0.5679  0.2432 -0.2772
  134MOL    O5229578   5.301   0.058   7.412  0.7880  0.0155 -0.1409
  134MOL    H5329579   5.369   8.191   7.212 -0.3327  0.6051  0.4740
  134MOL    H5429580   5.277   7.981   7.126 -3.8113 -0.9620 -0.6037
  134MOL    H5529581   5.064   7.941   7.503  1.3928  0.9393  2.0370
  134MOL    H5629582   5.144   8.166   7.575 -1.4260  1.5982 -0.4651
  134MOL    C5729583   5.357   0.192   7.747  0.0205 -0.4785  0.1673
  134MOL    C5829584   5.372   0.122   7.630  0.0686 -0.1319  0.5395
  134MOL    C5929585   5.277   0.124   7.531 -0.1882  0.0163 -0.0279
  134MOL    C6029586   5.155   0.196   7.555 -1.0763  0.1452  0.4248
  134MOL    C6129587   5.131   0.261   7.675 -0.1906 -0.8110 -0.1992
  134MOL    C6229588   5.235   0.270   7.766 -0.9154  0.3828 -0.5773
  134MOL    O6329589   5.215   0.337   7.879 -0.0512  0.4399  0.2847
  134MOL    H6429590   5.441   0.188   7.814  0.6980 -1.5738 -0.7271
  134MOL    H6529591   5.462   0.067   7.610 -0.6798 -0.4102 -2.2552
  134MOL    H6629592   5.074   0.190   7.484 -1.3809 -0.8059  0.8410
  134MOL    H6729593   5.035   0.308   7.691  0.9983  1.4210  0.6012
  134MOL    C6829594   5.317   0.682   7.795  0.0879  0.1408 -0.1594
  134MOL    C6929595   5.298   0.547   7.783 -0.6116 -0.2120  0.2978
  134MOL    C7029596   5.223   0.473   7.881  0.4149  0.0281 -0.1188
  134MOL    C7129597   5.172   0.550   7.988  0.3987  0.5982  0.0308
  134MOL    C7229598   5.210   0.684   8.009 -0.0069  0.4015 -0.6778
  134MOL    C7329599   5.280   0.752   7.910  0.4296 -0.2875 -0.7836
  134MOL    O7429600   5.300   0.887   7.934 -0.3550  0.2732  0.0040
  134MOL    H7529601   5.344   0.744   7.710  1.4702 -1.0091 -0.5907
  134MOL    H7629602   5.340   0.504   7.694 -0.3506  1.8220 -0.5806
  134MOL    H7729603   5.113   0.500   8.063  0.5643 -0.4015 -0.5020
  134MOL    H7829604   5.178   0.735   8.099 -1.2035 -0.8118 -0.3956
  134MOL    C7929605   5.648   0.988   7.991  0.1486 -0.0913 -0.6660
  134MOL    C8029606   5.525   0.956   7.929  0.5756 -1.0999 -0.3940
  134MOL    C8129607   5.412   0.920   8.007 -0.7435  0.0058  0.1792
  134MOL    C8229608   5.422   0.920   8.150  0.5536 -0.1228  0.0373
  134MOL    C8329609   5.541   0.965   8.207 -0.3143  0.0398  0.8450
  134MOL    C8429610   5.654   1.005   8.128 -0.6788 -0.2140  0.2039
  134MOL    O8529611   5.766   1.075   8.178  0.0668  0.4459  0.1654
  134MOL    H8629612   5.735   1.025   7.937  2.6447 -1.8558  2.0017
  134MOL    H8729613   5.518   0.962   7.821  0.6342  0.0824 -0.3386
  134MOL    H8829614   5.340   0.878   8.205  0.0266 -3.0546 -2.8490
  134MOL    H8929615   5.540   0.965   0.061  1.9853 -0.4014  0.8928
  134MOL    C9029616   6.088   1.052   0.086  0.8549 -0.4884 -0.0509
  134MOL    C9129617   5.972   1.107   0.021  0.1889 -0.8456 -0.1725
  134MOL    C9229618   5.872   1.015   8.231  0.8022 -0.0549 -0.0275
  134MOL    C9329619   5.891   0.880   8.239  0.3654 -0.7678 -0.0793
  134MOL    C9429620   6.006   0.827   0.040 -0.1086  0.5521  0.3286
  134MOL    C9529621   6.104   0.909   0.096  0.5119 -0.2273 -0.9933
  134MOL    O9629622   6.218   0.872   0.156 -0.0415  0.1705  0.3887
  134MOL    H9729623   6.171   1.111   0.122  0.7920  0.5675 -1.6192
  134MOL    H9829624   5.962   1.214   0.013  0.5290 -0.8611 -0.7620
  134MOL    H9929625   5.807   0.833   8.191  1.6635  0.7357 -4.0743
  134MOL   H10029626   6.021   0.720   0.038  0.0900  0.5980 -2.1598
  134MOL   C10129627   6.534   0.958   8.244  0.1465  0.0242  0.3897
  134MOL   C10229628   6.425   0.967   0.076  0.6217 -0.0662  0.8697
  134MOL   C10329629   6.327   0.862   0.072 -0.4557  0.6784  0.0986
  134MOL   C10429630   6.348   0.744   8.247  0.2359  0.9854 -0.1404
  134MOL   C10529631   6.455   0.744   8.156  0.5167 -0.2359  0.1011
  134MOL   C10629632   6.550   0.849   8.154  0.3507  0.1004 -0.3964
  134MOL   O10729633   6.657   0.855   8.075  0.0271  0.0657  0.5644
  134MOL   H10829634   6.603   1.041   8.243 -0.2246  0.3364 -1.7457
  134MOL   H10929635   6.406   1.058   0.132 -0.5892  0.3249 -0.1586
  134MOL   H11029636   6.277   0.664   0.003  1.5078 -0.3297 -1.3220
  134MOL   H11129637   6.461   0.649   8.106  0.2772 -0.8809  1.2854
  134MOL   C11229638   6.757   0.525   7.941 -0.6397 -0.4950 -0.1464
  134MOL   C11329639   6.699   0.654   7.948  1.0345 -0.8809 -0.5485
  134MOL   C11429640   6.723   0.737   8.056 -0.5894 -0.1474 -0.0594
  134MOL   C11529641   6.824   0.698   8.149  0.8516  0.1212  0.1509
  134MOL   C11629642   6.881   0.571   8.146  0.7570  0.0473 -0.4274
  134MOL   C11729643   6.851   0.486   8.036 -0.0142  0.5612 -0.2951
  134MOL   O11829644   6.916   0.365   8.021  0.0314  0.3570  0.3706
  134MOL   H11929645   6.735   0.449   7.867  0.7526  0.5053 -1.6204
  134MOL   H12029646   6.619   0.679   7.880  1.1889  1.6456  0.1432
  134MOL   H12129647   6.844   0.762   8.233  0.1720  1.3834 -0.6365
  134MOL   H12229648   6.942   0.527   8.222 -0.0260 -1.7756 -0.8235
  134MOL   C12329649   6.952   0.138   0.057  0.2728  0.0020 -0.2778
  134MOL   C12429650   6.980   0.238   8.215  0.5032 -0.2646  0.1647
  134MOL   C12529651   6.879   0.271   8.119 -0.6049  0.2209 -0.2330
  134MOL   C12629652   6.747   0.218   8.123  0.2338  0.3458 -0.5754
  134MOL   C12729653   6.721   0.127   8.229  0.4041 -0.0278  0.4300
  134MOL   C12829654   6.823   0.078   0.056 -0.0322 -0.7435 -0.2554
  134MOL   O12929655   6.798   8.232   0.140  0.1558  0.4258 -0.0633
  134MOL   H13029656   7.030   0.104   0.123 -0.9345  0.9934  1.7384
  134MOL   H13129657   7.076   0.287   8.209  0.8119 -1.0928 -2.0479
  134MOL   H13229658   6.671   0.230   8.046 -0.0456 -1.4001 -0.5928
  134MOL   H13329659   6.622   0.086   8.247 -0.4034  0.9989 -1.6212
  134MOL   C13429660   6.736   0.117   0.472  0.0787 -0.3855  0.6354
  134MOL   C13529661   6.816   0.073   0.365  0.2442 -0.3708  0.2141
  134MOL   C13629662   6.738   0.013   0.263  0.1830  0.3147 -0.3766
  134MOL   C13729663   6.599   8.239   0.270 -0.1729  0.0716 -1.0042
  134MOL   C13829664   6.528   0.040   0.381  0.0215  0.4606 -0.5470
  134MOL   C13929665   6.598   0.104   0.484  0.2489  0.1278  0.0831
  134MOL   O14029666   6.530   0.151   0.593  0.5345 -0.4601  0.1120
  134MOL   H14129667   6.793   0.157   0.554 -0.0999 -0.9190  1.0190
  134MOL   H14229668   6.919   0.103   0.356 -0.2610  1.5947  0.7464
  134MOL   H14329669   6.546   8.197   0.186 -0.0404  2.6933 -2.4395
  134MOL   H14429670   6.423   0.016   0.391  0.1589 -0.2380 -0.7877
  134MOL   C14529671   6.624   0.492   0.698 -0.0580 -0.0843 -1.0807
  134MOL   C14629672   6.572   0.392   0.613 -0.1113 -0.4406 -0.5962
  134MOL   C14729673   6.570   0.258   0.665  0.5979 -0.2509 -0.0055
  134MOL   C14829674   6.616   0.231   0.793 -0.5754 -0.4792  0.1583
  134MOL   C14929675   6.676   0.331   0.870  0.6476 -0.0826 -0.0372
  134MOL   C15029676   6.672   0.463   0.823  0.0928 -0.2083 -0.1249
  134MOL   O15129677   6.723   0.556   0.916 -0.7185  0.1191 -0.3402
  134MOL   H15229678   6.638   0.594   0.667  2.8600 -0.8478 -2.4038
  134MOL   H15329679   6.537   0.418   0.515  2.2035  0.1407 -1.2982
  134MOL   H15429680   6.631   0.133   0.836  0.8901  0.2169  1.2686
  134MOL   H15529681   6.715   0.320   0.970  2.3143  2.4568 -0.3369
  134MOL   C15629682   6.908   0.833   0.756 -0.0601  0.1515  0.4639
  134MOL   C15729683   6.868   0.706   0.801  1.1677  0.2939  0.0080
  134MOL   C15829684   6.750   0.683   0.876  0.4280  0.8694 -0.3280
  134MOL   C15929685   6.663   0.794   0.885 -0.7567  0.0980 -0.4063
  134MOL   C16029686   6.699   0.924   0.842  0.0036 -0.0288  0.7920
  134MOL   C16129687   6.824   0.943   0.778  0.6633  0.5613 -0.3983
  134MOL   O16229688   6.850   1.067   0.718 -0.1051  0.5782 -0.7241
  134MOL   H16329689   7.001   0.844   0.702  0.1652 -1.4536  0.5008
  134MOL   H16429690   6.932   0.620   0.784  1.3359  0.5819 -0.8277
  134MOL   H16529691   6.569   0.778   0.936 -0.3958 -2.4181 -0.4500
  134MOL   H16629692   6.619   0.995   0.856 -0.1396 -0.1276  0.4939
  134MOL   C16729693   7.197   1.127   0.841 -0.4768 -0.9962  0.4338
  134MOL   C16829694   7.063   1.083   0.846  0.0450  0.3165  1.1842
  134MOL   C16929695   6.978   1.108   0.731  0.5996 -0.0328  0.1248
  134MOL   C17029696   7.031   1.180   0.616  0.2741 -0.6546  0.3626
  134MOL   C17129697   7.158   1.227   0.618  0.2191  0.3461 -0.6118
  134MOL   C17229698   7.243   1.196   0.724 -0.1452 -0.2723 -0.2925
  134MOL   O17329699   7.368   1.254   0.727 -0.0905 -0.1794 -0.0241
  134MOL   H17429700   7.264   1.118   0.925 -1.0339  1.5630  1.1913
  134MOL   H17529701   7.032   1.049   0.944 -1.4408  0.3658  0.7431
  134MOL   H17629702   6.961   1.197   0.535  2.1193  1.3714 -0.8397
  134MOL   H17729703   7.187   1.277   0.527  2.5629  0.9901  0.4605
  134MOL   C17829704   7.501   1.432   0.435 -0.7939  0.1733  0.1531
  134MOL   C17929705   7.429   1.409   0.549 -0.0461  0.5159  0.3407
  134MOL   C18029706   7.442   1.286   0.611  0.0430  0.0901  0.0585
  134MOL   C18129707   7.532   1.192   0.569 -0.3275 -0.3407  0.5712
  134MOL   C18229708   7.603   1.212   0.450 -0.2089  0.8490 -0.6261
  134MOL   C18329709   7.584   1.336   0.380 -0.1483 -0.5562 -0.1624
  134MOL   O18429710   7.654   1.364   0.260 -0.1544  0.2158 -0.0246
  134MOL   H18529711   7.486   1.529   0.392 -0.5672 -0.4905 -1.4347
  134MOL   H18629712   7.356   1.475   0.594 -2.7836 -1.1698 -1.4723
  134MOL   H18729713   7.546   1.108   0.636 -0.5591 -0.9653 -0.1509
  134MOL   H18829714   7.669   1.132   0.423  0.1202  0.0779  2.3100
  134MOL   C18929715   7.657   1.304   8.150 -0.8357 -0.0254  0.1817
  134MOL   C19029716   7.678   1.353   0.023 -0.7615  0.5697 -0.6882
  134MOL   C19129717   7.613   1.308   0.134  0.0603  0.3900 -0.6114
  134MOL   C19229718   7.514   1.212   0.122  0.3713  0.3076 -0.0644
  134MOL   C19329719   7.487   1.158   8.247 -0.4246  0.3735 -0.4781
  134MOL   C19429720   7.558   1.206   8.137  0.0108  0.0926  0.0943
  134MOL   O19529721   7.531   1.168   8.008  0.0805 -0.0230  0.7416
  134MOL   H19629722   7.715   1.337   8.064 -0.0660  1.3317  1.1951
  134MOL   H19729723   7.753   1.426   0.052  2.3838 -1.6154 -3.0648
  134MOL   H19829724   7.454   1.184   0.207  2.4721 -1.7560  0.8020
  134MOL   H19929725   7.404   1.092   8.228 -1.2071  1.9708 -2.9563
  134MOL   C20029726   7.553   0.805   7.910 -0.3657  0.5969 -0.5698
  134MOL   C20129727   7.496   0.924   7.967  0.2452 -0.3972 -0.8714
  134MOL   C20229728   7.575   1.045   7.960 -0.4205  0.2901  0.2393
  134MOL   C20329729   7.702   1.046   7.890 -0.4963 -0.5502  0.3346
  134MOL   C20429730   7.754   0.920   7.848 -0.1611  0.2740  0.0267
  134MOL   C20529731   7.679   0.799   7.858 -0.4896 -0.0358  0.0087
  134MOL   O20629732   7.725   0.678   7.804 -0.0070 -0.1321  0.9413
  134MOL   H20729733   7.500   0.711   7.906 -2.1815  1.6212 -0.9575
  134MOL   H20829734   7.398   0.938   8.010  1.9981 -0.0804  3.2542
  134MOL   H20929735   7.765   1.132   7.874  1.6948 -1.6354  2.8751
  134MOL   H21029736   7.854   0.914   7.807 -0.1817 -3.1285  0.2985
  134MOL   C21129737   7.939   0.527   8.075  0.3173 -0.3390  0.5463
  134MOL   C21229738   7.877   0.633   7.993 -0.1864  0.7038  0.4044
  134MOL   C21329739   7.799   0.594   7.881 -0.3609 -0.5132  0.3637
  134MOL   C21429740   7.777   0.457   7.856  0.2451 -0.4015 -0.2772
  134MOL   C21529741   7.832   0.358   7.939 -0.5531  0.1850  0.5937
  134MOL   C21629742   7.918   0.394   8.043  0.4428  0.5858 -0.5627
  134MOL   O21729743   7.963   0.287   8.115 -0.3640  0.2593  0.2671
  134MOL   H21829744   7.987   0.554   8.167  2.0499 -0.5188 -0.2978
  134MOL   H21929745   7.882   0.737   8.022  0.7161  0.7546  0.0754
  134MOL   H22029746   7.715   0.421   7.775 -1.7783  1.6301  0.3307
  134MOL   H22129747   7.808   0.254   7.919 -1.0073  0.2959  0.5483
  134MOL   H22229748   7.926   0.207   8.080 -0.9424  0.3343  0.7038
  135MOL     C129749   5.066   3.845   6.816 -0.2909 -0.1015 -0.2355
  135MOL     C229750   5.041   3.792   6.687  0.2188 -0.0073  0.0493
  135MOL     C329751   4.929   3.712   6.668  0.2590  0.3907  0.1146
  135MOL     C429752   4.852   3.667   6.778  0.2025 -0.0057 -0.3834
  135MOL     C529753   4.882   3.716   6.910  0.5444 -0.2669  0.3210
  135MOL     C629754   4.987   3.809   6.930  0.0003 -1.0574 -0.9191
  135MOL     O729755   5.014   3.870   7.049  0.0904 -0.0014  0.0174
  135MOL     H829756   5.149   3.914   6.822  1.0688 -1.9411  2.8277
  135MOL     H929757   5.100   3.834   6.607  0.2987  2.1543  1.2085
  135MOL    H1029758   4.777   3.592   6.760 -0.0264  0.3532 -0.9295
  135MOL    H1129759   4.822   3.679   6.991 -1.3433  1.7250 -0.1285
  135MOL    H1229760   4.905   3.683   6.567  1.1824 -0.5358  0.1506
  135MOL    C1329761   5.198   3.600   7.230 -0.1372 -0.2174  0.1449
  135MOL    C1429762   5.133   3.673   7.124  0.4199 -0.5467  0.0750
  135MOL    C1529763   5.087   3.800   7.144  0.4838  0.2710  0.4505
  135MOL    C1629764   5.110   3.858   7.271  0.7556 -0.3083 -0.3720
  135MOL    C1729765   5.182   3.796   7.371  0.5517  0.4747  0.3853
  135MOL    C1829766   5.221   3.664   7.353 -0.0940  0.6124  0.0042
  135MOL    O1929767   5.287   3.597   7.452  0.9606 -0.7373 -0.6830
  135MOL    H2029768   5.239   3.504   7.204  1.2363  0.4775 -0.2770
  135MOL    H2129769   5.120   3.630   7.025 -2.2553  1.4065 -0.4870
  135MOL    H2229770   5.064   3.954   7.288  2.4504  0.6516 -1.0096
  135MOL    H2329771   5.203   3.843   7.466 -4.2137  1.9195  0.8653
  135MOL    C2429772   5.115   3.668   7.767  1.0554  0.1022 -0.5586
  135MOL    C2529773   5.215   3.662   7.670 -0.7957  0.7162  0.2837
  135MOL    C2629774   5.204   3.572   7.563 -0.9613 -0.3710  0.8030
  135MOL    C2729775   5.093   3.490   7.560  0.6707 -0.3033  0.5170
  135MOL    C2829776   5.001   3.480   7.666 -0.1850 -0.1239 -0.7483
  135MOL    C2929777   5.019   3.569   7.775 -0.2748  0.4770  0.0580
  135MOL    O3029778   4.944   3.567   7.889  0.0134 -0.0158 -0.6505
  135MOL    H3129779   5.135   3.733   7.852 -0.0085 -0.4468  0.1254
  135MOL    H3229780   5.291   3.738   7.682 -1.8274  1.9372 -0.7404
  135MOL    H3329781   5.091   3.418   7.479  1.2112  0.4485 -0.1820
  135MOL    H3429782   4.917   3.412   7.664 -1.3734  1.2760  0.4990
  135MOL    C3529783   5.024   3.289   8.126 -0.3794 -0.5075 -0.1512
  135MOL    C3629784   5.021   3.418   8.064 -0.2960 -0.1248 -0.6232
  135MOL    C3729785   4.938   3.444   7.955 -0.7064 -0.6657  0.8455
  135MOL    C3829786   4.844   3.345   7.920  0.9769 -0.1804 -0.1478
  135MOL    C3929787   4.847   3.214   7.974 -0.1538  0.2880 -0.7251
  135MOL    C4029788   4.940   3.185   8.080  0.3437 -0.3401 -0.0394
  135MOL    O4129789   4.945   3.057   8.130 -0.2975 -0.7572  0.2337
  135MOL    H4229790   5.098   3.271   8.203  0.1083  2.5496  0.1444
  135MOL    H4329791   5.092   3.494   8.093 -0.7866  0.3065 -0.5453
  135MOL    H4429792   4.780   3.358   7.834  2.4591 -3.0680 -1.7614
  135MOL    H4529793   4.793   3.133   7.927 -1.4060  2.1527 -2.5950
  135MOL    C4629794   4.695   2.784   8.089  0.0781  0.1891 -0.4311
  135MOL    C4729795   4.811   2.866   8.080 -0.3835 -0.2326  0.3143
  135MOL    C4829796   4.828   2.986   8.152  0.4848  0.2779 -0.0958
  135MOL    C4929797   4.722   3.026   8.241  0.2558  0.2288  0.0397
  135MOL    C5029798   4.606   2.948   8.252 -0.2200  0.1591 -0.3053
  135MOL    C5129799   4.592   2.824   8.182  0.9071 -0.8243 -0.1837
  135MOL    O5229800   4.484   2.739   8.195 -0.4756 -0.3362  0.1493
  135MOL    H5329801   4.691   2.693   8.031  0.3977 -0.3573  0.3796
  135MOL    H5429802   4.881   2.841   8.002 -0.7058  1.0100 -0.3935
  135MOL    H5529803   4.722   3.114   0.050  1.2401  1.6457 -1.9068
  135MOL    H5629804   4.522   2.991   0.050 -0.7049  0.2859 -1.1761
  135MOL    C5729805   4.607   2.427   0.085 -0.6732  0.1839 -0.3587
  135MOL    C5829806   4.611   2.550   0.020  0.2703 -0.5029 -0.1652
  135MOL    C5929807   4.491   2.617   8.246  0.4655 -0.2914 -0.3000
  135MOL    C6029808   4.365   2.546   0.018 -0.1581  1.1020  0.7975
  135MOL    C6129809   4.372   2.414   0.068  0.1121  0.1744  0.1165
  135MOL    C6229810   4.489   2.354   0.101 -0.9041  0.5468 -0.0914
  135MOL    O6329811   4.489   2.223   0.148  0.3794 -0.1488  0.0694
  135MOL    H6429812   4.701   2.380   0.110 -0.7759  1.4024  2.5469
  135MOL    H6529813   4.711   2.590   0.014 -0.8611  2.7571  1.5355
  135MOL    H6629814   4.266   2.584   0.002 -0.7675 -0.5786  0.4519
  135MOL    H6729815   4.285   2.349   0.072  0.5882 -0.5579 -0.9726
  135MOL    C6829816   4.805   2.052   0.225 -0.4569 -0.5289  0.0102
  135MOL    C6929817   4.688   2.131   0.242  0.4383 -0.9205  0.6877
  135MOL    C7029818   4.603   2.145   0.133  0.7764  0.1613  0.5341
  135MOL    C7129819   4.633   2.095   0.006  0.2009  0.2640 -0.6667
  135MOL    C7229820   4.750   2.020   8.251 -0.8960 -0.3578 -0.5782
  135MOL    C7329821   4.838   1.996   0.102  0.2036  0.0914 -0.5803
  135MOL    O7429822   4.952   1.926   0.089  0.1400  0.2012  0.5887
  135MOL    H7529823   4.883   2.053   0.299  0.8332  2.5994 -1.2702
  135MOL    H7629824   4.661   2.190   0.328 -1.2799  1.1677 -1.2265
  135MOL    H7729825   4.572   2.114   8.174 -0.8824  0.7490  0.1892
  135MOL    H7829826   4.776   1.992   8.150  1.0704 -1.3812  0.1752
  135MOL    C7929827   5.228   2.124   8.218 -0.4335  0.0320  0.1741
  135MOL    C8029828   5.117   2.087   0.039 -0.0835 -0.2722  0.4462
  135MOL    C8129829   5.050   1.968   8.254  0.2961 -0.6657 -0.2720
  135MOL    C8229830   5.085   1.894   8.140  0.8504  0.6112 -0.1880
  135MOL    C8329831   5.193   1.935   8.067  0.0057 -0.7038  0.4999
  135MOL    C8429832   5.267   2.049   8.110  0.2326  0.2224  0.0632
  135MOL    O8529833   5.387   2.091   8.051  0.0997 -0.1808 -0.5501
  135MOL    H8629834   5.293   2.207   8.240  2.2487 -2.0554  0.4320
  135MOL    H8729835   5.088   2.149   0.122 -1.0523  0.5633 -0.4987
  135MOL    H8829836   5.030   1.802   8.127  0.6125  0.6436  0.5701
  135MOL    H8929837   5.213   1.883   7.975 -1.9095 -0.8338  0.1294
  135MOL    C9029838   5.614   1.795   8.044  0.9592  0.6680 -1.1230
  135MOL    C9129839   5.540   1.904   8.093 -0.3597  0.5901  0.4466
  135MOL    C9229840   5.470   1.991   8.004 -1.1967  0.8751  0.1337
  135MOL    C9329841   5.483   1.975   7.865 -0.5230  0.2897 -0.1325
  135MOL    C9429842   5.564   1.870   7.819 -0.1362  0.5109 -0.3227
  135MOL    C9529843   5.626   1.777   7.905  0.8805  0.1182 -0.1667
  135MOL    O9629844   5.694   1.664   7.857 -0.5560 -0.4030 -0.0850
  135MOL    H9729845   5.659   1.716   8.103 -1.5376  1.3484  1.8458
  135MOL    H9829846   5.538   1.917   8.200 -1.4707 -2.3139  0.8310
  135MOL    H9929847   5.439   2.042   7.793  1.0953  1.0177 -0.4731
  135MOL   H10029848   5.566   1.839   7.715  2.4886 -0.9764  0.1346
  135MOL   C10129849   5.567   1.431   7.603 -0.2448 -0.0926  0.0500
  135MOL   C10229850   5.635   1.535   7.667 -0.5276 -0.0958 -0.3195
  135MOL   C10329851   5.628   1.556   7.804 -0.2219 -0.1028  0.5215
  135MOL   C10429852   5.547   1.468   7.884 -0.1085 -0.5340  0.2199
  135MOL   C10529853   5.481   1.359   7.823  0.4063 -0.5047  0.1111
  135MOL   C10629854   5.486   1.343   7.681  0.0246  0.1027 -0.0930
  135MOL   O10729855   5.415   1.241   7.614  0.0525  0.2118 -0.0011
  135MOL   H10829856   5.570   1.421   7.496  0.5451 -0.1871  0.0783
  135MOL   H10929857   5.707   1.595   7.612  1.2780 -1.4350  0.5463
  135MOL   H11029858   5.555   1.477   7.991  2.1887 -2.7843  0.3065
  135MOL   H11129859   5.439   1.278   7.880  1.4784 -1.2037 -0.0689
  135MOL   C11229860   5.066   1.283   7.750 -0.0194 -0.4159 -0.2452
  135MOL   C11329861   5.199   1.316   7.705  0.3846 -0.1836  1.0451
  135MOL   C11429862   5.286   1.217   7.655  0.8405 -0.0221 -1.3859
  135MOL   C11529863   5.239   1.082   7.654 -0.0539 -0.1969  0.5013
  135MOL   C11629864   5.112   1.045   7.706 -0.4129  0.4893 -0.4901
  135MOL   C11729865   5.027   1.146   7.745 -0.2809 -0.0467  0.6793
  135MOL   O11829866   4.899   1.121   7.765 -0.2553  0.5286 -0.1378
  135MOL   H11929867   5.000   1.365   7.772 -2.0342 -1.7510 -1.1470
  135MOL   H12029868   5.219   1.421   7.694 -0.3039 -0.3342 -2.2616
  135MOL   H12129869   5.294   1.011   7.594  1.9743  1.0162  0.8912
  135MOL   H12229870   5.068   0.949   7.682 -1.3421  1.0112 -0.9325
  135MOL   C12329871   4.866   0.832   7.992 -0.3041  0.7735  0.1500
  135MOL   C12429872   4.918   0.950   7.935 -0.1211  0.3837 -0.3409
  135MOL   C12529873   4.853   1.011   7.825 -0.0023 -0.5842  0.2371
  135MOL   C12629874   4.732   0.951   7.776 -0.0563 -0.0060  0.5526
  135MOL   C12729875   4.691   0.831   7.834  0.4318  0.5536  0.8959
  135MOL   C12829876   4.764   0.762   7.931  0.0588 -0.1417  0.7357
  135MOL   O12929877   4.729   0.644   7.982 -0.4518  0.2833  0.2205
  135MOL   H13029878   4.919   0.790   8.077 -0.6625 -0.5374 -0.2587
  135MOL   H13129879   4.998   0.996   7.991 -0.5030  1.5024 -0.7056
  135MOL   H13229880   4.682   0.988   7.688 -0.7171 -0.6054  0.6673
  135MOL   H13329881   4.602   0.783   7.795  1.3741 -2.6615  2.5560
  135MOL   C13429882   4.502   0.413   7.800  0.2347 -0.3029 -0.2357
  135MOL   C13529883   4.540   0.523   7.874  0.0411 -0.2068 -0.1730
  135MOL   C13629884   4.679   0.555   7.884 -0.7511  0.8992 -0.8600
  135MOL   C13729885   4.775   0.488   7.806  0.0166 -0.3678 -0.4360
  135MOL   C13829886   4.731   0.383   7.722 -0.4711 -0.3850  0.5118
  135MOL   C13929887   4.595   0.349   7.717  0.1338 -0.5043  0.3246
  135MOL   O14029888   4.565   0.259   7.618  0.0719 -0.1045 -0.3752
  135MOL   H14129889   4.397   0.385   7.796  0.1502 -0.0421  0.1386
  135MOL   H14229890   4.473   0.573   7.943  0.1426  0.7312 -0.7466
  135MOL   H14329891   4.881   0.505   7.818 -0.7830  3.7608  1.3727
  135MOL   H14429892   4.797   0.328   7.656  0.5907  1.3531  0.1181
  135MOL   C14529893   4.238   0.347   7.464  0.5607 -0.4703 -0.4855
  135MOL   C14629894   4.371   0.360   7.510 -0.0932 -0.2489  0.4794
  135MOL   C14729895   4.440   0.254   7.568 -0.1058 -0.0366  0.4595
  135MOL   C14829896   4.382   0.124   7.568 -0.1879  0.0033 -0.7181
  135MOL   C14929897   4.248   0.113   7.516 -0.0250 -0.0003 -0.4088
  135MOL   C15029898   4.175   0.225   7.464 -0.6652 -0.4586  0.3239
  135MOL   O15129899   4.054   0.209   7.413 -1.1550  0.1873 -0.1844
  135MOL   H15229900   4.186   0.431   7.422  0.0857  0.4694  1.8934
  135MOL   H15329901   4.430   0.449   7.504  0.7594 -0.7700  1.0832
  135MOL   H15429902   4.424   0.039   7.620 -0.0040  0.5037 -0.0451
  135MOL   H15529903   4.195   0.020   7.527  0.1107  0.0129  0.3780
  135MOL   C15629904   3.743   0.087   7.563  0.7416 -0.1125 -0.0137
  135MOL   C15729905   3.851   0.098   7.474 -0.3974 -0.0984  0.1373
  135MOL   C15829906   3.953   0.187   7.502  0.0599 -0.2376 -0.5674
  135MOL   C15929907   3.946   0.248   7.629 -0.2879  0.2085  0.4579
  135MOL   C16029908   3.841   0.241   7.721 -0.0854 -0.4215  0.2144
  135MOL   C16129909   3.731   0.163   7.680 -0.1698 -0.1488 -0.0866
  135MOL   O16229910   3.626   0.150   7.772  1.0222 -0.0138 -0.5513
  135MOL   H16329911   3.662   0.018   7.540 -1.1827  2.3129 -0.7739
  135MOL   H16429912   3.864   0.039   7.385  0.6137 -0.0486  0.2457
  135MOL   H16529913   4.026   0.319   7.647 -0.4273  1.0644 -2.1050
  135MOL   H16629914   3.833   0.315   7.799 -1.7651 -1.6028  1.2261
  135MOL   C16729915   3.329   8.201   7.725  0.3945  0.1628  0.1495
  135MOL   C16829916   3.412   0.061   7.729 -0.1995  0.4647  0.0523
  135MOL   C16929917   3.543   0.038   7.779  0.0725  0.8486 -0.7272
  135MOL   C17029918   3.586   8.167   7.835  0.3338  0.4828 -0.1135
  135MOL   C17129919   3.491   8.063   7.837 -0.2624 -0.7210  0.5400
  135MOL   C17229920   3.363   8.077   7.787 -0.6294  0.4405  0.8726
  135MOL   O17329921   3.284   7.970   7.799 -0.3791 -0.0651  0.1329
  135MOL   H17429922   3.229   8.208   7.685 -0.8114  0.1376  3.0467
  135MOL   H17529923   3.390   0.157   7.685 -0.5910  0.5649  0.4541
  135MOL   H17629924   3.687   8.145   7.864 -0.3631 -2.8129  0.0345
  135MOL   H17729925   3.519   7.967   7.877  1.3530 -0.0967  0.9754
  135MOL   C17829926   3.235   7.842   7.453 -0.4833  0.6792 -0.4168
  135MOL   C17929927   3.230   7.929   7.563  0.2337 -0.0527 -0.2007
  135MOL   C18029928   3.276   7.888   7.690 -0.3513  0.6474  0.0585
  135MOL   C18129929   3.321   7.755   7.710 -0.3905  0.1726  0.1047
  135MOL   C18229930   3.311   7.663   7.600 -0.9815 -0.5738  0.2506
  135MOL   C18329931   3.270   7.709   7.472 -0.4435 -0.1866  0.0739
  135MOL   O18429932   3.266   7.617   7.371 -0.5359  0.3812 -0.6287
  135MOL   H18529933   3.197   7.869   7.355  0.6932  2.9333 -0.2645
  135MOL   H18629934   3.177   8.024   7.562 -1.6328 -1.0820 -2.7406
  135MOL   H18729935   3.356   7.719   7.805 -1.2882  0.9398  0.7344
  135MOL   H18829936   3.338   7.559   7.616 -0.4081 -0.3914  0.5057
  135MOL   C18929937   3.520   7.347   7.322 -0.0136  0.7964 -0.1401
  135MOL   C19029938   3.395   7.409   7.359  0.4939 -0.2055 -1.7154
  135MOL   C19129939   3.383   7.554   7.340  0.1703 -0.1750 -0.0689
  135MOL   C19229940   3.481   7.619   7.265 -0.5084  0.2674  0.4204
  135MOL   C19329941   3.598   7.551   7.219  0.3992 -0.2003 -0.1407
  135MOL   C19429942   3.619   7.415   7.249 -0.1082  0.1009  0.2621
  135MOL   O19529943   3.733   7.344   7.221 -0.4124 -0.1065 -0.5030
  135MOL   H19629944   3.533   7.240   7.333  1.0145  0.7216 -2.0288
  135MOL   H19729945   3.313   7.356   7.406  0.3309  3.2696  2.2109
  135MOL   H19829946   3.468   7.724   7.242 -1.0503  0.4252  1.3931
  135MOL   H19929947   3.673   7.603   7.162 -0.0306 -0.1771 -0.6844
  135MOL   C20029948   4.064   7.480   7.144 -0.4666 -0.6719  0.2873
  135MOL   C20129949   3.943   7.412   7.127  0.6470  0.2909 -0.0481
  135MOL   C20229950   3.857   7.404   7.238  0.0555 -1.0178 -0.5073
  135MOL   C20329951   3.901   7.449   7.366 -0.4981  0.8868 -0.8804
  135MOL   C20429952   4.015   7.528   7.379 -0.0342  0.1725  0.4634
  135MOL   C20529953   4.105   7.535   7.271 -0.0492 -1.1355 -0.3025
  135MOL   O20629954   4.223   7.602   7.283 -0.0063  0.2345 -0.3366
  135MOL   H20729955   4.128   7.490   7.058 -1.6407  0.3763 -0.4669
  135MOL   H20829956   3.907   7.359   7.039 -0.3875  2.6168 -1.0836
  135MOL   H20929957   3.828   7.434   7.444 -0.9104 -0.0293 -1.4354
  135MOL   H21029958   4.052   7.570   7.472 -0.5883  1.3087  0.1854
  135MOL   C21129959   4.464   7.317   7.275  0.0850  0.0342  0.2149
  135MOL   C21229960   4.363   7.407   7.240 -0.4782 -0.1446  0.0199
  135MOL   C21329961   4.326   7.518   7.319  0.2069  0.7451  0.6339
  135MOL   C21429962   4.400   7.541   7.437 -0.3800  0.3662  0.2361
  135MOL   C21529963   4.500   7.452   7.478  0.4987 -0.1550  0.5616
  135MOL   C21629964   4.531   7.344   7.396  0.7798  0.5307  0.2633
  135MOL   O21729965   4.626   7.264   7.441 -0.3755  0.4982 -0.4335
  135MOL   H21829966   4.495   7.238   7.209 -0.5124  0.1424 -0.1951
  135MOL   H21929967   4.315   7.376   7.148 -2.8687 -0.9211  1.4769
  135MOL   H22029968   4.376   7.620   7.507 -0.8899 -0.8335  1.4370
  135MOL   H22129969   4.549   7.468   7.573 -2.6716 -2.4336  2.6731
  135MOL   H22229970   4.643   7.185   7.392  0.1660  0.8059 -0.7438
  136MOL     C129971   7.286   7.844   5.801 -0.3445 -0.9855  0.3881
  136MOL     C229972   7.335   7.717   5.760 -0.4114  0.1696 -0.1882
  136MOL     C329973   7.464   7.682   5.804  0.4754  0.5492 -1.5358
  136MOL     C429974   7.548   7.766   5.875 -0.6082  0.5034 -0.1057
  136MOL     C529975   7.495   7.886   5.910  0.0493  0.1801 -0.3130
  136MOL     C629976   7.370   7.927   5.869 -0.3586  0.2456 -0.2830
  136MOL     O729977   7.328   8.051   5.909 -0.1630  0.1869 -0.0212
  136MOL     H829978   7.183   7.870   5.778  0.1945  1.4248  0.4945
  136MOL     H929979   7.267   7.641   5.724 -0.5486 -0.6968  1.7967
  136MOL    H1029980   7.649   7.735   5.895 -0.1393  2.0913 -0.0254
  136MOL    H1129981   7.553   7.964   5.956 -1.7007  1.4153 -0.1625
  136MOL    H1229982   7.497   7.581   5.781  0.6130  0.2921 -0.2596
  136MOL    C1329983   7.154   0.055   5.730 -0.0947 -0.6228 -1.1881
  136MOL    C1429984   7.173   8.206   5.821  0.1025  0.1374 -0.5944
  136MOL    C1529985   7.302   8.141   5.817  0.3922 -0.4583  0.0409
  136MOL    C1629986   7.406   8.180   5.727  0.7894  0.6531 -0.1689
  136MOL    C1729987   7.381   0.019   5.628  0.6372  0.6459 -0.1852
  136MOL    C1829988   7.259   0.086   5.634 -0.5176 -0.0781  0.1771
  136MOL    O1929989   7.232   0.187   5.546  0.2721 -0.5204 -0.0484
  136MOL    H2029990   7.073   0.126   5.732  0.7736  0.4601 -2.7731
  136MOL    H2129991   7.098   8.177   5.894 -1.4211 -0.0191 -2.1929
  136MOL    H2229992   7.502   8.131   5.733  0.9988  1.1794  0.9572
  136MOL    H2329993   7.449   0.054   5.552 -0.9146  0.7879 -1.5494
  136MOL    C2429994   7.393   0.495   5.458  0.5006 -0.0710 -1.0406
  136MOL    C2529995   7.317   0.377   5.448 -0.0061  0.0797  0.8540
  136MOL    C2629996   7.284   0.309   5.567 -0.1237  0.2128 -0.2922
  136MOL    C2729997   7.301   0.367   5.693  0.2348 -0.6081  0.7206
  136MOL    C2829998   7.374   0.492   5.700 -0.4297  1.1475  0.4491
  136MOL    C2929999   7.418   0.557   5.582 -0.2688  0.7298  0.0081
  136MOL    O3030000   7.490   0.673   5.592  0.7766  0.0302  0.4429
  136MOL    H3130001   7.425   0.549   5.370  1.8030  0.4674 -0.2542
  136MOL    H3230002   7.293   0.333   5.352 -0.4011  2.1633 -0.0170
  136MOL    H3330003   7.279   0.315   5.785 -1.0689  3.1623  2.6278
  136MOL    H3430004   7.404   0.526   5.798  0.2547 -1.3807  1.1436
  136MOL    C3530005   7.658   0.858   5.320 -0.1757  0.4170 -0.3550
  136MOL    C3630006   7.561   0.809   5.403  0.1228  0.5108 -0.5625
  136MOL    C3730007   7.586   0.706   5.503 -0.7426  0.6053  0.0911
  136MOL    C3830008   7.718   0.647   5.508  0.3279  0.5550  0.5926
  136MOL    C3930009   7.813   0.699   5.421 -0.7248  0.2089  0.2565
  136MOL    C4030010   7.786   0.803   5.325 -0.5629  0.4086  0.4926
  136MOL    O4130011   7.898   0.847   5.248  0.2548 -0.0291  0.7922
  136MOL    H4230012   7.631   0.941   5.257 -2.0623 -1.6506 -2.3955
  136MOL    H4330013   7.468   0.864   5.407 -0.0691  0.0728  1.6024
  136MOL    H4430014   7.732   0.560   5.571 -3.5121 -0.3675  0.2947
  136MOL    H4530015   7.913   0.658   5.412  0.0888  1.9994  0.7772
  136MOL    C4630016   7.880   0.673   4.927 -0.8156  0.3742 -0.2128
  136MOL    C4730017   7.834   0.719   5.051  0.2963  0.2029  0.7026
  136MOL    C4830018   7.925   0.800   5.125  0.7110 -0.8360 -0.9982
  136MOL    C4930019   8.045   0.850   5.065 -0.0153  0.4765  1.1750
  136MOL    C5030020   8.080   0.805   4.933  0.4753 -0.5062 -0.6189
  136MOL    C5130021   8.007   0.705   4.867  0.7173  0.5465  0.0583
  136MOL    O5230022   8.060   0.636   4.762  0.3452 -0.1550  0.3085
  136MOL    H5330023   7.823   0.597   4.877  2.0606 -2.1244  0.1465
  136MOL    H5430024   7.745   0.685   5.102 -0.0701  1.9401  1.2818
  136MOL    H5530025   8.111   0.915   5.121  1.5764 -0.8600  0.8856
  136MOL    H5630026   8.175   0.845   4.900 -0.7038  0.8014 -2.5226
  136MOL    C5730027   7.952   0.691   4.411 -1.2245 -0.4209 -0.5375
  136MOL    C5830028   7.965   0.641   4.545  0.1762  0.6336  0.2675
  136MOL    C5930029   8.057   0.692   4.639  0.7771  0.2619 -0.3246
  136MOL    C6030030   8.148   0.790   4.599 -0.3500 -0.6483 -0.3260
  136MOL    C6130031   8.131   0.849   4.471  0.3279  0.3337 -0.3133
  136MOL    C6230032   8.029   0.802   4.382  0.5072  0.2114  0.2385
  136MOL    O6330033   7.995   0.867   4.266 -0.0979 -0.4767  0.0953
  136MOL    H6430034   7.872   0.663   4.344 -1.6785  1.1707 -0.6914
  136MOL    H6530035   7.891   0.566   4.568  1.9227 -1.9588 -2.3634
  136MOL    H6630036   8.221   0.831   4.667 -0.1546 -1.3216 -0.1277
  136MOL    H6730037   8.193   0.929   4.434 -0.9029  2.0767  1.3546
  136MOL    C6830038   7.899   1.220   4.284 -0.4138 -0.7688 -0.1273
  136MOL    C6930039   7.982   1.105   4.276 -0.1143 -0.3080  0.8245
  136MOL    C7030040   7.917   0.980   4.291  0.2196  0.1788  0.5814
  136MOL    C7130041   7.785   0.974   4.335 -0.1235  0.2129 -0.5783
  136MOL    C7230042   7.710   1.093   4.354 -0.2766  0.4906 -0.0722
  136MOL    C7330043   7.763   1.217   4.321  0.7406 -0.4178  0.0204
  136MOL    O7430044   7.697   1.333   4.338  0.1646 -0.3035  0.0382
  136MOL    H7530045   7.942   1.318   4.270 -0.2139 -0.6986  0.9423
  136MOL    H7630046   8.087   1.108   4.253 -0.4152  0.8868 -0.4347
  136MOL    H7730047   7.734   0.879   4.340 -0.3105  0.1282 -3.3563
  136MOL    H7830048   7.612   1.076   4.396  0.0406  2.2219  1.4129
  136MOL    C7930049   7.557   1.480   4.653 -0.2775 -0.1635  0.0219
  136MOL    C8030050   7.566   1.421   4.521  0.6515  0.3861 -0.0060
  136MOL    C8130051   7.693   1.387   4.462  0.4574 -1.0571 -0.0887
  136MOL    C8230052   7.814   1.432   4.522  0.5278  0.6293  0.1907
  136MOL    C8330053   7.808   1.494   4.647 -0.5837  0.1042  0.3632
  136MOL    C8430054   7.683   1.525   4.706  0.5623  0.3673 -0.1924
  136MOL    O8530055   7.680   1.610   4.811  0.0938  0.9030  0.2592
  136MOL    H8630056   7.467   1.517   4.700 -0.3852  0.0404 -0.3491
  136MOL    H8730057   7.471   1.396   4.474  1.0468 -1.3480  0.0718
  136MOL    H8830058   7.911   1.417   4.477  1.1309  0.7361  1.4308
  136MOL    H8930059   7.895   1.538   4.695 -2.0953  2.3806  1.0990
  136MOL    C9030060   7.680   1.949   4.670  0.3010 -0.7478 -0.2421
  136MOL    C9130061   7.715   1.816   4.689 -0.0236 -0.3143  0.3161
  136MOL    C9230062   7.645   1.741   4.794 -1.0877 -0.0297  0.2993
  136MOL    C9330063   7.557   1.805   4.885  0.6211  0.3582 -0.7550
  136MOL    C9430064   7.533   1.940   4.868  0.7722  0.5968  0.4043
  136MOL    C9530065   7.584   2.010   4.760  0.8231  0.4370  0.1032
  136MOL    O9630066   7.538   2.139   4.739 -0.1593  0.4235 -0.1644
  136MOL    H9730067   7.718   1.996   4.580 -2.2087 -0.7371 -1.3500
  136MOL    H9830068   7.786   1.767   4.624 -0.8798  0.6220 -1.3589
  136MOL    H9930069   7.523   1.754   4.974 -2.4878  3.2261 -0.1849
  136MOL   H10030070   7.456   1.989   4.926  0.6282 -1.1013  1.6797
  136MOL   C10130071   7.749   2.365   4.538  0.0904  0.3125  0.3479
  136MOL   C10230072   7.649   2.268   4.569  0.3097 -0.2760  0.0610
  136MOL   C10330073   7.631   2.234   4.707  1.0920 -0.6676  0.0569
  136MOL   C10430074   7.697   2.308   4.805 -0.2596 -0.5926 -0.0711
  136MOL   C10530075   7.795   2.401   4.773  0.4714  0.1631 -0.2208
  136MOL   C10630076   7.822   2.428   4.636 -0.4656 -0.0100 -0.2101
  136MOL   O10730077   7.923   2.523   4.606  0.0080 -0.0990  0.3494
  136MOL   H10830078   7.764   2.394   4.435 -0.2870  0.4791  0.3392
  136MOL   H10930079   7.593   2.225   4.487  0.6516  0.8812 -0.7869
  136MOL   H11030080   7.688   2.276   4.908  0.8430  1.4175  0.6755
  136MOL   H11130081   7.837   2.461   4.852  0.7169 -0.9243  0.4857
  136MOL   C11230082   8.134   2.758   4.795 -0.7081 -0.1172 -0.5792
  136MOL   C11330083   8.095   2.659   4.705 -0.2438  0.2600  0.4810
  136MOL   C11430084   7.960   2.625   4.690  0.3837  0.1023 -0.9015
  136MOL   C11530085   7.862   2.696   4.762  0.3050 -0.3070  0.2639
  136MOL   C11630086   7.902   2.794   4.853 -0.0276  0.0417 -0.5087
  136MOL   C11730087   8.039   2.824   4.876 -0.4983  0.3743 -0.2939
  136MOL   O11830088   8.075   2.926   4.959  0.5667  0.3633 -0.1020
  136MOL   H11930089   8.239   2.783   4.797 -0.6127 -0.5542  0.0478
  136MOL   H12030090   8.175   2.612   4.649 -1.5399 -1.4435  0.0351
  136MOL   H12130091   7.757   2.674   4.749  0.3433 -0.9949  1.0932
  136MOL   H12230092   7.832   2.857   4.906 -0.4959 -0.6102 -0.3472
  136MOL   C12330093   7.944   2.903   5.300 -0.2327  0.3314 -0.1906
  136MOL   C12430094   8.018   2.870   5.186  0.4344  0.9511 -0.4925
  136MOL   C12530095   8.009   2.952   5.072  0.0941  0.4294 -0.2882
  136MOL   C12630096   7.926   3.069   5.071 -0.9181 -0.2926 -0.0087
  136MOL   C12730097   7.843   3.100   5.180 -0.2573 -0.0685 -0.5049
  136MOL   C12830098   7.857   3.018   5.292 -0.0994 -0.2265 -0.4763
  136MOL   O12930099   7.797   3.050   5.410 -0.0666 -0.6453 -0.1553
  136MOL   H13030100   7.943   2.835   5.384  1.1169  0.7498  0.1764
  136MOL   H13130101   8.073   2.777   5.181  0.4134  1.0073 -1.9694
  136MOL   H13230102   7.924   3.134   4.985 -1.1326 -1.0920 -0.6107
  136MOL   H13330103   7.769   3.179   5.174 -1.5190 -0.9243  2.5809
  136MOL   C13430104   7.460   2.900   5.408 -0.1047  0.0700 -0.7874
  136MOL   C13530105   7.602   2.917   5.408  0.2292  0.0046  0.0131
  136MOL   C13630106   7.655   3.043   5.409 -0.3547 -0.6674  0.4308
  136MOL   C13730107   7.576   3.165   5.406 -0.5359  0.7627 -0.0600
  136MOL   C13830108   7.436   3.149   5.409  0.0038 -0.2018  0.5487
  136MOL   C13930109   7.378   3.019   5.404 -0.7754  0.3208  0.2786
  136MOL   O14030110   7.245   2.990   5.417  0.1355 -0.3532  0.0653
  136MOL   H14130111   7.417   2.804   5.432 -2.0345  1.7016  2.6673
  136MOL   H14230112   7.658   2.825   5.420  0.4909  0.3726  1.7014
  136MOL   H14330113   7.623   3.262   5.418  3.0748 -1.2904  3.4227
  136MOL   H14430114   7.372   3.234   5.427 -1.4519 -1.4977  1.5878
  136MOL   C14530115   7.018   3.268   5.342 -0.5088 -0.2497  0.7481
  136MOL   C14630116   7.088   3.169   5.422 -0.8170  0.4780  0.4362
  136MOL   C14730117   7.165   3.077   5.349  0.3810 -0.2390  0.2911
  136MOL   C14830118   7.168   3.072   5.207 -0.0113 -0.0833  0.7457
  136MOL   C14930119   7.100   3.168   5.136 -0.1584 -0.3906  0.1159
  136MOL   C15030120   7.023   3.265   5.201 -0.0937 -0.1845 -0.1182
  136MOL   O15130121   6.969   3.367   5.123  0.2151  0.0758 -0.4976
  136MOL   H15230122   6.948   3.334   5.392 -0.8291 -1.0584  1.3938
  136MOL   H15330123   7.090   3.163   5.530  0.2402  2.1698  0.5380
  136MOL   H15430124   7.228   2.995   5.161 -1.2775 -1.5996  1.5618
  136MOL   H15530125   7.127   3.189   5.033  3.3898  2.7153  1.5676
  136MOL   C15630126   6.670   3.554   5.251 -0.1685  0.2723  0.0669
  136MOL   C15730127   6.800   3.523   5.207  0.2968 -0.3768 -0.5209
  136MOL   C15830128   6.838   3.395   5.159 -0.2134 -0.1255 -0.4081
  136MOL   C15930129   6.741   3.297   5.147  0.8741  0.5370 -0.6888
  136MOL   C16030130   6.611   3.325   5.187  0.3776 -0.2512 -0.6505
  136MOL   C16130131   6.573   3.450   5.237  1.0409 -0.0080  1.0982
  136MOL   O16230132   6.444   3.478   5.280  0.1704  0.4950 -0.1317
  136MOL   H16330133   6.646   3.655   5.281 -2.3529 -0.0584 -0.4967
  136MOL   H16430134   6.884   3.591   5.211  0.3113 -0.3354 -1.4492
  136MOL   H16530135   6.765   3.201   5.106  1.6260  0.4193  0.0090
  136MOL   H16630136   6.535   3.249   5.180  1.9302 -1.7621 -1.0882
  136MOL   C16730137   6.192   3.699   5.136 -0.2967 -0.9383  0.1438
  136MOL   C16830138   6.275   3.636   5.232 -0.2041 -0.2219  0.7697
  136MOL   C16930139   6.360   3.531   5.188  0.6790  0.4200  1.0542
  136MOL   C17030140   6.340   3.476   5.059  0.4848  0.1600 -0.3277
  136MOL   C17130141   6.258   3.536   4.964  0.3863 -0.1421 -0.0858
  136MOL   C17230142   6.182   3.650   5.001 -0.3286 -0.3524  0.1262
  136MOL   O17330143   6.095   3.709   4.910  0.2262  0.1165  0.0884
  136MOL   H17430144   6.125   3.778   5.166 -0.2439 -0.4506 -0.9993
  136MOL   H17530145   6.275   3.674   5.333  0.7839  1.6018  0.1233
  136MOL   H17630146   6.389   3.383   5.036 -0.3561 -0.2905 -0.2983
  136MOL   H17730147   6.248   3.486   4.868 -1.0415 -1.9102  0.9439
  136MOL   C17830148   6.292   3.964   4.729 -0.0509  0.0495  0.1346
  136MOL   C17930149   6.253   3.843   4.782  0.1177  0.6190  0.3638
  136MOL   C18030150   6.136   3.830   4.862  0.4783  0.3537 -0.2037
  136MOL   C18130151   6.060   3.941   4.890  0.0055 -0.7737 -0.2525
  136MOL   C18230152   6.088   4.068   4.824  0.1857 -0.4466  0.6107
  136MOL   C18330153   6.208   4.077   4.745 -0.1766 -0.1208 -0.2171
  136MOL   O18430154   6.249   4.199   4.690 -0.0343  0.2648  0.2916
  136MOL   H18530155   6.386   3.970   4.677 -1.0740 -0.8557 -1.8491
  136MOL   H18630156   6.319   3.759   4.764 -0.3166  0.7059 -1.7663
  136MOL   H18730157   5.967   3.926   4.944  1.3658 -0.8578  2.1162
  136MOL   H18830158   6.021   4.152   4.831  0.8001 -0.1445  3.1102
  136MOL   C18930159   6.574   4.363   4.741  0.8977 -0.4203 -0.1113
  136MOL   C19030160   6.472   4.291   4.677 -0.5259  0.7414 -0.1656
  136MOL   C19130161   6.352   4.265   4.752  0.2788  0.0300  0.0845
  136MOL   C19230162   6.330   4.318   4.886 -0.1580 -0.5799 -0.1543
  136MOL   C19330163   6.440   4.389   4.946 -0.0901 -0.2404  0.8233
  136MOL   C19430164   6.559   4.409   4.870 -0.6010 -0.7834  0.4562
  136MOL   O19530165   6.669   4.475   4.919  0.4642  0.1308 -0.2874
  136MOL   H19630166   6.665   4.367   4.684  3.4151  0.6247  3.8048
  136MOL   H19730167   6.488   4.253   4.577 -1.1157 -0.2223  0.1008
  136MOL   H19830168   6.242   4.292   4.942 -0.6570  1.8287  0.2414
  136MOL   H19930169   6.431   4.430   5.046  2.0671  0.5029  0.7216
  136MOL   C20030170   6.750   4.344   5.260  0.0393 -0.2891 -0.4477
  136MOL   C20130171   6.734   4.348   5.120 -0.3946 -0.3503 -0.0849
  136MOL   C20230172   6.690   4.470   5.059 -0.3812  0.1795  0.0927
  136MOL   C20330173   6.659   4.582   5.137  0.3631 -0.5436  0.1732
  136MOL   C20430174   6.675   4.573   5.282  0.2042  0.5005 -0.4272
  136MOL   C20530175   6.725   4.459   5.340 -0.5616 -0.3025  0.2245
  136MOL   O20630176   6.752   4.448   5.475 -0.0442 -0.0706  0.4391
  136MOL   H20730177   6.788   4.257   5.311  1.0106 -0.6922 -1.8089
  136MOL   H20830178   6.751   4.257   5.065  1.9689  0.9118 -1.5586
  136MOL   H20930179   6.621   4.670   5.087 -0.4044 -1.0984 -0.2254
  136MOL   H21030180   6.663   4.665   5.336 -0.8522  1.3946 -2.1430
  136MOL   C21130181   7.079   4.614   5.544  0.5239  0.9365 -0.1090
  136MOL   C21230182   6.985   4.527   5.492 -0.0670  1.1359  0.1007
  136MOL   C21330183   6.844   4.542   5.516 -0.1985  0.0449 -0.2955
  136MOL   C21430184   6.797   4.652   5.579 -0.3092 -0.2913  0.4357
  136MOL   C21530185   6.893   4.746   5.627  0.4700 -0.5519  0.5747
  136MOL   C21630186   7.033   4.731   5.609 -0.0205  0.5165 -1.2038
  136MOL   O21730187   7.113   4.837   5.646 -0.3139  0.2032 -0.3685
  136MOL   H21830188   7.184   4.595   5.525 -0.2315 -0.3928 -3.2632
  136MOL   H21930189   7.011   4.440   5.434 -1.1122 -0.2090  1.5979
  136MOL   H22030190   6.690   4.664   5.583 -0.3976 -0.9496  0.2268
  136MOL   H22130191   6.860   4.835   5.678 -0.9597 -0.4226 -0.5130
  136MOL   H22230192   7.203   4.805   5.642 -0.2079 -0.1158  2.8925
  137MOL     C130193   7.581   2.840   1.281  0.1239 -0.2931 -0.4047
  137MOL     C230194   7.447   2.879   1.302 -0.2446  0.0502  0.0040
  137MOL     C330195   7.410   3.007   1.297  0.1300  0.2969  0.0647
  137MOL     C430196   7.505   3.111   1.262 -0.1958 -0.4300  0.5427
  137MOL     C530197   7.637   3.076   1.235 -0.0063 -0.2585  0.8384
  137MOL     C630198   7.673   2.941   1.238  0.2743  0.3095  0.5941
  137MOL     O730199   7.801   2.906   1.210 -0.6160  0.3204 -0.1570
  137MOL     H830200   7.613   2.739   1.299 -1.0081 -0.5580  0.1442
  137MOL     H930201   7.375   2.804   1.330 -1.5804  0.2407 -2.6864
  137MOL    H1030202   7.474   3.214   1.252  0.5497 -0.0576  1.9345
  137MOL    H1130203   7.709   3.154   1.216 -1.2614  0.4682 -1.0116
  137MOL    H1230204   7.307   3.033   1.316  0.2148 -0.4596  1.6273
  137MOL    C1330205   8.120   3.080   1.279  0.2893  0.2758 -0.0533
  137MOL    C1430206   8.013   3.013   1.215  0.5563  0.2228 -0.3186
  137MOL    C1530207   7.900   2.962   1.286  0.2599  0.0291 -0.3416
  137MOL    C1630208   7.889   2.988   1.422  0.4713  0.3959  0.0427
  137MOL    C1730209   8.000   3.046   1.489 -0.2572  0.1938  0.0989
  137MOL    C1830210   8.112   3.091   1.416  0.1332 -0.3349 -0.4952
  137MOL    O1930211   8.215   3.156   1.478 -0.0674  0.1043  0.0964
  137MOL    H2030212   8.204   3.119   1.224  0.8183 -1.5910 -0.6242
  137MOL    H2130213   8.026   3.004   1.108 -1.7927 -0.5148 -0.5721
  137MOL    H2230214   7.801   2.959   1.478  1.0644  0.9255  1.2561
  137MOL    H2330215   7.996   3.070   1.594  0.1249  0.5059  0.0428
  137MOL    C2430216   0.315   3.145   1.439 -0.0092  0.3548  0.0748
  137MOL    C2530217   0.184   3.191   1.429  0.0364 -0.0466  0.2282
  137MOL    C2630218   0.085   3.104   1.461 -0.3257  0.5148 -0.3856
  137MOL    C2730219   0.113   2.971   1.485  0.4564  0.1087  0.6938
  137MOL    C2830220   0.243   2.923   1.485 -0.0136  0.4846  0.0963
  137MOL    C2930221   0.351   3.009   1.461 -0.6409 -0.0463  0.3212
  137MOL    O3030222   0.483   2.976   1.474  0.5634  0.1799  0.3272
  137MOL    H3130223   0.397   3.213   1.419  1.4609 -1.6179 -0.8073
  137MOL    H3230224   0.161   3.296   1.418 -3.5508 -0.5701  2.2314
  137MOL    H3330225   0.032   2.908   1.517 -1.0620  1.9115  0.5274
  137MOL    H3430226   0.259   2.820   1.514 -0.9454  0.3854  0.2552
  137MOL    C3530227   0.677   2.800   1.723  0.3892  0.0868  0.0132
  137MOL    C3630228   0.604   2.833   1.607  0.1659  0.4755 -0.2026
  137MOL    C3730229   0.533   2.952   1.597  0.0814 -0.0319 -0.6873
  137MOL    C3830230   0.525   3.048   1.700 -0.2967 -0.4251  0.1345
  137MOL    C3930231   0.599   3.014   1.819 -0.5254  0.2110 -0.0199
  137MOL    C4030232   0.667   2.891   1.830 -0.4043  0.0382 -0.4066
  137MOL    O4130233   0.743   2.872   1.946 -0.0840  0.4139  0.8432
  137MOL    H4230234   0.748   2.719   1.731  0.5446  0.2469  0.2749
  137MOL    H4330235   0.607   2.760   1.527  1.3831 -0.0887  0.3608
  137MOL    H4430236   0.479   3.143   1.681  1.1204  0.3949  0.7637
  137MOL    H4530237   0.609   3.089   1.896 -0.8022 -0.3393  0.5583
  137MOL    C4630238   0.912   2.571   2.096 -0.0678  0.9760  0.0379
  137MOL    C4730239   0.886   2.704   2.054  1.1153 -0.5775 -0.5594
  137MOL    C4830240   0.760   2.741   1.994 -0.0343  0.6543 -0.3666
  137MOL    C4930241   0.661   2.636   1.984 -0.1756 -0.1042  0.3189
  137MOL    C5030242   0.686   2.507   2.023 -0.1940 -0.2105  0.8536
  137MOL    C5130243   0.816   2.474   2.079  0.5052 -0.6267  0.0195
  137MOL    O5230244   0.842   2.350   2.123 -0.6107  0.5407 -0.4833
  137MOL    H5330245   1.005   2.552   2.148 -1.0232 -0.4854  1.2676
  137MOL    H5430246   0.957   2.784   2.068  0.7351  0.0394 -2.0662
  137MOL    H5530247   0.566   2.651   1.934  0.1214 -0.8708 -0.5044
  137MOL    H5630248   0.609   2.431   2.014  1.7244 -2.0750 -0.3643
  137MOL    C5730249   0.840   2.339   2.495 -0.3939 -0.2201  0.2176
  137MOL    C5830250   0.877   2.383   2.365  0.3340  0.6082  0.1217
  137MOL    C5930251   0.815   2.320   2.254  0.1284  0.1020 -0.4529
  137MOL    C6030252   0.736   2.199   2.277 -0.4613 -0.4370 -0.2700
  137MOL    C6130253   0.700   2.162   2.406 -0.0622 -0.4785 -0.3856
  137MOL    C6230254   0.744   2.240   2.513 -0.2259 -0.2774 -0.1154
  137MOL    O6330255   0.688   2.213   2.639 -0.0096 -0.3970  0.2133
  137MOL    H6430256   0.872   2.391   2.584 -0.0863 -0.4423  0.2352
  137MOL    H6530257   0.961   2.449   2.350 -0.3793  1.4296 -0.3166
  137MOL    H6630258   0.693   2.147   2.193 -0.3550  0.6363 -0.9998
  137MOL    H6730259   0.627   2.083   2.417 -1.2694  1.0225  2.8462
  137MOL    C6830260   0.779   2.384   2.947 -0.0825  0.1925  0.0602
  137MOL    C6930261   0.705   2.352   2.833  0.3599 -0.1257 -0.0130
  137MOL    C7030262   0.755   2.252   2.752 -0.5556  0.9631  0.4219
  137MOL    C7130263   0.886   2.200   2.773 -0.7659  0.2455 -0.3081
  137MOL    C7230264   0.964   2.238   2.882 -0.4828  0.3752 -1.0846
  137MOL    C7330265   0.903   2.328   2.971  0.9410 -0.4094 -0.2794
  137MOL    O7430266   0.972   2.357   3.080  0.0237  0.2143  0.1394
  137MOL    H7530267   0.744   2.469   3.004 -0.0045  0.3378 -0.1114
  137MOL    H7630268   0.610   2.398   2.808  0.1686 -0.4865  0.0471
  137MOL    H7730269   0.926   2.132   2.700 -2.3188 -0.4195 -0.5514
  137MOL    H7830270   1.060   2.192   2.902 -1.5394 -1.7681 -0.7905
  137MOL    C7930271   1.298   2.501   3.049  0.1074  0.1994  0.0268
  137MOL    C8030272   1.197   2.405   3.055 -0.0048 -0.3700 -0.0136
  137MOL    C8130273   1.067   2.452   3.071  0.7402 -0.0902 -0.4338
  137MOL    C8230274   1.043   2.588   3.100 -0.2546 -0.6190 -0.1016
  137MOL    C8330275   1.146   2.674   3.101 -0.2917 -0.5061  0.0233
  137MOL    C8430276   1.276   2.636   3.074 -0.7576  0.7068  0.1108
  137MOL    O8530277   1.386   2.718   3.084 -0.0307 -0.0094  0.4218
  137MOL    H8630278   1.399   2.462   3.048 -0.3496 -1.0992  2.0212
  137MOL    H8730279   1.229   2.302   3.054  2.2223  0.2593 -3.9207
  137MOL    H8830280   0.946   2.619   3.138  0.2666  0.2758  0.5257
  137MOL    H8930281   1.116   2.774   3.128  0.1456  0.7961 -3.9464
  137MOL    C9030282   1.369   3.075   3.174  0.0612 -0.4840 -0.2765
  137MOL    C9130283   1.388   2.937   3.183 -0.7059  0.3924  0.1766
  137MOL    C9230284   1.382   2.856   3.067 -1.0034 -0.1493  0.8142
  137MOL    C9330285   1.365   2.922   2.941 -0.1139 -0.0252  0.4932
  137MOL    C9430286   1.329   3.059   2.938  0.1952  0.4146 -0.3725
  137MOL    C9530287   1.322   3.138   3.052 -0.4702  0.6882 -0.0794
  137MOL    O9630288   1.303   3.273   3.035 -0.3686 -0.2618  0.1113
  137MOL    H9730289   1.392   3.137   3.259  0.9214 -0.9827 -0.1459
  137MOL    H9830290   1.414   2.894   3.278  0.7997  0.9448  0.0370
  137MOL    H9930291   1.380   2.866   2.850  2.9220 -0.6054  1.2912
  137MOL   H10030292   1.314   3.109   2.843 -1.9282 -1.1082 -0.8860
  137MOL   C10130293   1.645   3.412   3.019  0.5068  0.6969  0.7946
  137MOL   C10230294   1.534   3.329   3.000 -0.2288  0.1085  0.2435
  137MOL   C10330295   1.413   3.349   3.067  0.0591 -0.0666  0.4678
  137MOL   C10430296   1.408   3.451   3.157 -0.1982 -0.2576 -0.2917
  137MOL   C10530297   1.525   3.531   3.191  0.5017 -0.1398 -0.5993
  137MOL   C10630298   1.641   3.512   3.113  0.0205  0.0035 -0.0019
  137MOL   O10730299   1.759   3.586   3.145 -0.2241 -0.5059  0.2642
  137MOL   H10830300   1.737   3.395   2.964 -0.4912  0.5686 -0.8693
  137MOL   H10930301   1.543   3.247   2.930 -0.8842  0.7151 -0.5630
  137MOL   H11030302   1.311   3.475   3.199  0.3209  1.8449 -0.2453
  137MOL   H11130303   1.503   3.606   3.265 -2.1755  0.2661 -1.7445
  137MOL   C11230304   2.045   3.672   2.932 -0.0620 -0.2997 -0.9164
  137MOL   C11330305   1.967   3.612   3.029  0.2318 -0.1368  1.1282
  137MOL   C11430306   1.828   3.641   3.034  0.2224  0.5248  0.2445
  137MOL   C11530307   1.770   3.730   2.942 -0.1579  0.1474 -0.2702
  137MOL   C11630308   1.848   3.797   2.847 -0.0617  0.5180 -0.1121
  137MOL   C11730309   1.988   3.767   2.846  0.0876 -0.7831 -0.1107
  137MOL   O11830310   2.050   3.830   2.739  0.6139 -0.3306  0.5039
  137MOL   H11930311   2.153   3.666   2.937 -0.2796 -2.7593  2.4411
  137MOL   H12030312   2.011   3.557   3.112 -0.1268 -1.1100  0.6825
  137MOL   H12130313   1.663   3.746   2.937 -0.3296 -1.2885 -1.3856
  137MOL   H12230314   1.801   3.858   2.771  2.0306  1.1488 -0.9280
  137MOL   C12330315   2.317   4.075   2.719 -0.0867  0.1328  1.0998
  137MOL   C12430316   2.245   3.950   2.709  0.6635 -0.0664 -0.3065
  137MOL   C12530317   2.116   3.945   2.754 -0.1352  0.1406  0.2851
  137MOL   C12630318   2.055   4.060   2.808 -0.1788  0.7531  0.4403
  137MOL   C12730319   2.128   4.179   2.824 -0.1406 -0.1844 -0.0654
  137MOL   C12830320   2.255   4.188   2.773  0.3923  1.1775  0.0962
  137MOL   O12930321   2.328   4.302   2.771 -0.1527 -0.2632  0.3014
  137MOL   H13030322   2.421   4.080   2.689 -0.6042 -0.3526 -0.9148
  137MOL   H13130323   2.288   3.857   2.677  0.6700 -0.2937  0.3490
  137MOL   H13230324   1.953   4.056   2.842  0.0060 -1.7805  0.8402
  137MOL   H13330325   2.077   4.264   2.867 -1.0480 -0.3817 -0.7390
  137MOL   C13430326   2.448   4.412   3.101  0.1035  0.7036 -0.8005
  137MOL   C13530327   2.413   4.328   2.994  0.2380  0.1006  0.0021
  137MOL   C13630328   2.346   4.372   2.878  0.5784 -0.7197  0.4098
  137MOL   C13730329   2.289   4.500   2.879 -0.4111  0.1066  0.3985
  137MOL   C13830330   2.315   4.585   2.991  0.1863 -0.4783 -0.0057
  137MOL   C13930331   2.399   4.543   3.098  0.2214  0.4078 -0.1293
  137MOL   O14030332   2.433   4.635   3.193  0.9881 -0.2618 -0.3581
  137MOL   H14130333   2.503   4.367   3.182  1.1570  0.4175 -1.6726
  137MOL   H14230334   2.472   4.237   3.000 -0.3162 -0.2551  0.0833
  137MOL   H14330335   2.237   4.527   2.789  1.3802  1.5771 -0.2082
  137MOL   H14430336   2.286   4.689   2.989 -0.4996 -0.6819 -0.8665
  137MOL   C14530337   2.423   4.575   3.561 -0.6354  0.5719  0.0129
  137MOL   C14630338   2.471   4.601   3.429 -0.1826 -0.1737  0.5415
  137MOL   C14730339   2.382   4.607   3.321 -0.4067  0.5308  0.7286
  137MOL   C14830340   2.242   4.591   3.333 -0.5119  0.0397 -0.1476
  137MOL   C14930341   2.194   4.565   3.467 -0.1460  0.0745  0.3037
  137MOL   C15030342   2.282   4.553   3.579  0.4868  0.3209  0.3395
  137MOL   O15130343   2.226   4.517   3.701  0.7662 -0.3368 -0.9138
  137MOL   H15230344   2.493   4.559   3.642  0.6799 -0.3815 -1.2819
  137MOL   H15330345   2.579   4.604   3.420 -0.3223  3.0473 -0.6451
  137MOL   H15430346   2.165   4.604   3.258 -0.2446  1.6350 -0.1617
  137MOL   H15530347   2.088   4.553   3.482 -0.2747  0.6409 -0.1350
  137MOL   C15630348   1.973   4.704   3.891  0.0397 -0.6393  0.6481
  137MOL   C15730349   2.022   4.622   3.792  0.2022 -0.6541 -0.7973
  137MOL   C15830350   2.165   4.619   3.775 -0.2942 -0.1568 -0.2317
  137MOL   C15930351   2.244   4.698   3.856  0.4110  0.4048  0.2351
  137MOL   C16030352   2.189   4.789   3.947  0.4703 -0.2914  0.5853
  137MOL   C16130353   2.054   4.799   3.961  0.0922 -0.4117  0.3801
  137MOL   O16230354   1.988   4.906   4.028  0.1445  0.0048  0.0654
  137MOL   H16330355   1.865   4.698   3.894 -0.0191 -0.4002 -0.6650
  137MOL   H16430356   1.954   4.572   3.725 -1.8890  1.4728 -0.2923
  137MOL   H16530357   2.351   4.697   3.841  0.2304 -0.9156 -1.0453
  137MOL   H16630358   2.248   4.857   4.006  3.2897 -1.3747 -0.8627
  137MOL   C16730359   2.122   5.023   4.353 -0.7907 -0.4791  0.5613
  137MOL   C16830360   2.082   5.019   4.218 -0.1652 -0.0627  0.7046
  137MOL   C16930361   2.016   4.909   4.163  0.2575 -0.3748  0.6639
  137MOL   C17030362   1.986   4.797   4.247  0.3491  0.0912 -0.2309
  137MOL   C17130363   2.017   4.803   4.380 -0.2358  1.1530  0.3779
  137MOL   C17230364   2.090   4.909   4.435 -0.0787  0.1228  0.2307
  137MOL   O17330365   2.121   4.903   4.569 -0.0013 -0.3102  0.0732
  137MOL   H17430366   2.185   5.101   4.391 -0.6626 -0.1621 -0.3040
  137MOL   H17530367   2.121   5.106   4.168  1.0411 -0.0676  1.6205
  137MOL   H17630368   1.917   4.726   4.203 -1.0395  1.2734 -0.0123
  137MOL   H17730369   1.974   4.726   4.443  1.7788 -0.0215  0.3695
  137MOL   C17830370   2.469   4.783   4.566  0.5122 -0.8818  0.4745
  137MOL   C17930371   2.329   4.789   4.547 -0.3142  0.6503 -0.3166
  137MOL   C18030372   2.253   4.897   4.601  0.6450  0.0774  0.1033
  137MOL   C18130373   2.318   4.997   4.678  0.5493 -0.1857  0.1373
  137MOL   C18230374   2.452   4.990   4.692 -0.0285 -0.5421 -0.4811
  137MOL   C18330375   2.530   4.883   4.636  0.5919 -0.8482  0.0190
  137MOL   O18430376   2.663   4.876   4.662 -0.7891 -0.0049 -0.1769
  137MOL   H18530377   2.522   4.702   4.517 -0.4579 -0.7132 -0.8917
  137MOL   H18630378   2.281   4.719   4.479 -0.4895 -0.5662  1.0257
  137MOL   H18730379   2.267   5.074   4.733  1.5328  0.4912  0.1078
  137MOL   H18830380   2.501   5.061   4.757 -0.7354 -1.4710  1.0991
  137MOL   C18930381   2.843   5.089   4.416  0.0721 -0.2823 -0.0258
  137MOL   C19030382   2.763   4.989   4.474 -1.0898  0.7793  0.2126
  137MOL   C19130383   2.746   4.979   4.614  0.2570  0.5941  0.4073
  137MOL   C19230384   2.818   5.072   4.690  0.1297  0.4633  0.6893
  137MOL   C19330385   2.898   5.177   4.639  0.4398  0.4175  0.0551
  137MOL   C19430386   2.906   5.189   4.498  0.6715 -0.0374 -0.4317
  137MOL   O19530387   2.979   5.288   4.438  0.1608 -0.1154  0.1605
  137MOL   H19630388   2.860   5.093   4.310  0.0148 -2.4211 -0.1429
  137MOL   H19730389   2.717   4.917   4.408  1.1770 -0.2911 -0.2479
  137MOL   H19830390   2.800   5.064   4.796 -0.7068  0.0179  0.5147
  137MOL   H19930391   2.953   5.249   4.696 -0.4892  0.3759  1.0130
  137MOL   C20030392   3.308   5.129   4.368  0.0905  0.0562 -0.0400
  137MOL   C20130393   3.184   5.153   4.437  0.0441 -0.2938 -0.1006
  137MOL   C20230394   3.098   5.254   4.386  0.5197  0.0490  0.0338
  137MOL   C20330395   3.140   5.325   4.273  1.0027 -0.0331 -0.4057
  137MOL   C20430396   3.267   5.309   4.213 -0.1535 -0.2330 -0.8356
  137MOL   C20530397   3.348   5.206   4.252 -0.9848  0.9546  0.4370
  137MOL   O20630398   3.465   5.173   4.180 -0.0473 -0.1986  0.0564
  137MOL   H20730399   3.374   5.053   4.405 -1.3366 -1.1794  0.0332
  137MOL   H20830400   3.163   5.091   4.523  0.7930  2.1019  1.8702
  137MOL   H20930401   3.076   5.399   4.227 -1.5396 -1.6331  0.4193
  137MOL   H21030402   3.294   5.366   4.126 -0.7370 -1.2165 -1.6703
  137MOL   C21130403   3.740   5.376   4.325 -0.0179  0.5838  0.0478
  137MOL   C21230404   3.633   5.286   4.310  0.1150 -0.4924 -0.4772
  137MOL   C21330405   3.571   5.266   4.188 -0.9952 -0.4882 -0.1608
  137MOL   C21430406   3.616   5.334   4.077 -0.1184  0.5898 -0.1918
  137MOL   C21530407   3.727   5.424   4.091  0.1815  0.3231  0.4746
  137MOL   C21630408   3.786   5.449   4.212 -0.6299 -0.0842  0.5530
  137MOL   O21730409   3.891   5.535   4.216  0.5156  0.6280 -0.4410
  137MOL   H21830410   3.777   5.397   4.425 -0.9561 -2.0675  1.0006
  137MOL   H21930411   3.586   5.246   4.399 -0.6118  0.3026 -0.4934
  137MOL   H22030412   3.553   5.331   3.989 -0.8315 -2.2327  0.3780
  137MOL   H22130413   3.755   5.497   4.016  0.4915  1.9992  2.1874
  137MOL   H22230414   3.922   5.562   4.301 -0.8486 -1.7581  0.8790
  138MOL     C130415   5.521   5.581   4.121  0.2069  0.5954  0.2488
  138MOL     C230416   5.449   5.499   4.037  0.4294  0.3580  0.1951
  138MOL     C330417   5.383   5.551   3.923 -0.7428 -0.8549 -0.3434
  138MOL     C430418   5.409   5.685   3.882 -0.7202 -0.4441  0.0081
  138MOL     C530419   5.484   5.769   3.967 -0.2084  0.4958  0.0226
  138MOL     C630420   5.550   5.712   4.082 -0.2617  0.1184 -0.2098
  138MOL     O730421   5.645   5.781   4.151 -0.0358  0.8590  0.3014
  138MOL     H830422   5.575   5.545   4.207 -0.7432 -0.5496  0.3921
  138MOL     H930423   5.433   5.393   4.051 -0.5947  0.4335 -0.3547
  138MOL    H1030424   5.373   5.738   3.795  2.8133  0.9001 -0.7133
  138MOL    H1130425   5.506   5.872   3.941 -0.6167  0.6588  0.3200
  138MOL    H1230426   5.313   5.488   3.870 -2.0736  1.7250 -1.7892
  138MOL    C1330427   5.954   5.626   4.028 -0.2782 -0.2830  0.7057
  138MOL    C1430428   5.820   5.670   4.036 -0.6567 -0.5255 -0.0635
  138MOL    C1530429   5.774   5.737   4.147  0.0391  0.9095  0.3632
  138MOL    C1630430   5.859   5.768   4.248 -0.3953 -0.3561  0.8616
  138MOL    C1730431   5.998   5.730   4.241  0.0561  0.9542  0.9614
  138MOL    C1830432   6.047   5.657   4.131 -0.2288 -0.6077 -0.0159
  138MOL    O1930433   6.179   5.629   4.118 -0.4077 -0.6090 -0.0378
  138MOL    H2030434   5.991   5.560   3.951 -0.1914 -0.9918  1.3494
  138MOL    H2130435   5.751   5.633   3.961  1.8725 -1.5716 -1.9724
  138MOL    H2230436   5.832   5.844   4.319 -1.6129  2.3454 -2.3558
  138MOL    H2330437   6.067   5.762   4.318 -0.2885  2.0265  0.8292
  138MOL    C2430438   6.388   5.834   3.878  0.0171  0.5680  0.3976
  138MOL    C2530439   6.280   5.753   3.929 -0.0230 -0.2883 -0.1949
  138MOL    C2630440   6.272   5.717   4.068  0.2625  0.0324  0.2334
  138MOL    C2730441   6.361   5.780   4.160  0.3246 -0.0830  0.1836
  138MOL    C2830442   6.465   5.862   4.107 -0.2696  0.1337  0.3743
  138MOL    C2930443   6.480   5.889   3.969  0.2512 -0.5044 -0.1704
  138MOL    O3030444   6.577   5.970   3.920 -0.6916 -0.2589 -0.1388
  138MOL    H3130445   6.404   5.853   3.772  1.1685  0.3754  0.5310
  138MOL    H3230446   6.211   5.704   3.861 -1.0618  1.2257 -0.2425
  138MOL    H3330447   6.336   5.757   4.262 -1.6131 -1.8112 -0.6495
  138MOL    H3430448   6.538   5.904   4.176 -1.3891  1.6328  0.6708
  138MOL    C3530449   6.665   6.314   3.999  0.4254 -0.1777  0.1333
  138MOL    C3630450   6.678   6.180   3.961 -0.2550 -0.5620 -0.7094
  138MOL    C3730451   6.563   6.105   3.931  0.5484 -0.1719 -0.1928
  138MOL    C3830452   6.434   6.168   3.915 -0.5826  0.3398 -0.4381
  138MOL    C3930453   6.424   6.306   3.951  0.3371 -0.3410  0.1423
  138MOL    C4030454   6.543   6.376   3.987 -0.0500 -0.4867  0.0530
  138MOL    O4130455   6.535   6.514   4.015  0.4681 -0.1190 -0.2559
  138MOL    H4230456   6.747   6.371   4.040  1.6351 -1.6645 -0.2055
  138MOL    H4330457   6.780   6.146   3.955 -0.8144 -2.2381 -0.8126
  138MOL    H4430458   6.343   6.113   3.896 -0.0904 -0.5939 -0.1496
  138MOL    H4530459   6.328   6.356   3.952  0.5256  0.0289  2.1921
  138MOL    C4630460   6.379   6.792   3.819  0.0683  0.2972 -0.7785
  138MOL    C4730461   6.396   6.696   3.924  0.2608 -0.7430 -0.0060
  138MOL    C4830462   6.495   6.597   3.909  0.0133 -0.2298  0.1624
  138MOL    C4930463   6.567   6.582   3.789 -0.1147 -0.4941  0.5492
  138MOL    C5030464   6.539   6.669   3.679  0.4351  0.7680 -0.0232
  138MOL    C5130465   6.446   6.778   3.690  0.5078  0.4009  0.8024
  138MOL    O5230466   6.431   6.865   3.582 -0.0249  0.0791  0.3078
  138MOL    H5330467   6.302   6.867   3.828 -2.0008 -1.8265 -0.3372
  138MOL    H5430468   6.342   6.713   4.016  0.1536  1.3207 -0.4101
  138MOL    H5530469   6.638   6.502   3.783 -1.9915 -2.0835 -1.3979
  138MOL    H5630470   6.598   6.651   3.591  0.1214 -1.3312  0.1571
  138MOL    C5730471   6.202   6.693   3.351  0.5625  0.0458  0.6109
  138MOL    C5830472   6.315   6.730   3.426 -0.5583  0.4299 -0.1087
  138MOL    C5930473   6.321   6.846   3.501  0.0353  0.4079 -0.1628
  138MOL    C6030474   6.219   6.943   3.490  0.3918  0.1762  0.8638
  138MOL    C6130475   6.110   6.919   3.398 -0.3729 -0.0780  0.0681
  138MOL    C6230476   6.105   6.796   3.331 -0.5353  0.2651  0.3105
  138MOL    O6330477   5.997   6.782   3.253 -0.3614  0.1334 -0.6251
  138MOL    H6430478   6.180   6.599   3.302  1.4019 -1.8644  3.7396
  138MOL    H6530479   6.404   6.671   3.438 -0.1366  0.9290 -0.7266
  138MOL    H6630480   6.235   7.033   3.547 -1.5831  1.8761 -1.1365
  138MOL    H6730481   6.025   6.984   3.382 -0.7073 -0.8141 -1.1744
  138MOL    C6830482   5.776   6.488   3.266  0.3433 -0.2100 -0.1349
  138MOL    C6930483   5.870   6.576   3.215 -0.1952 -0.2330 -0.7344
  138MOL    C7030484   5.904   6.688   3.294 -0.0097  0.3702 -0.2661
  138MOL    C7130485   5.848   6.693   3.429 -0.4088 -0.8058  0.0006
  138MOL    C7230486   5.751   6.600   3.478 -0.5617  0.0540  0.5102
  138MOL    C7330487   5.719   6.492   3.396  0.1540 -0.3546 -0.0740
  138MOL    O7430488   5.616   6.409   3.432 -0.3112 -0.2630 -0.0076
  138MOL    H7530489   5.748   6.409   3.196 -0.3238  1.8130 -2.2158
  138MOL    H7630490   5.920   6.559   3.121 -0.5828 -1.2127 -0.7728
  138MOL    H7730491   5.869   6.774   3.497 -0.2083  0.2659 -1.3349
  138MOL    H7830492   5.704   6.610   3.575  0.2878 -0.2432  0.9621
  138MOL    C7930493   5.712   6.057   3.372  0.7278 -0.1745 -0.3906
  138MOL    C8030494   5.711   6.193   3.423  0.2599 -0.5589 -0.2244
  138MOL    C8130495   5.621   6.287   3.380  0.6505 -0.0126  0.4704
  138MOL    C8230496   5.526   6.254   3.280 -0.1334  0.1967 -0.0221
  138MOL    C8330497   5.526   6.123   3.230 -0.8075  0.3174 -0.1354
  138MOL    C8430498   5.615   6.023   3.276 -0.2738 -0.5278  0.0574
  138MOL    O8530499   5.617   5.893   3.228  0.0396  0.1695 -0.0697
  138MOL    H8630500   5.775   5.974   3.399  0.6119 -0.2383 -0.3162
  138MOL    H8730501   5.759   6.221   3.515  0.0802 -1.6130  0.1984
  138MOL    H8830502   5.447   6.323   3.254 -0.7045 -0.2088  0.6184
  138MOL    H8930503   5.464   6.083   3.151  2.2222 -1.9266 -1.4934
  138MOL    C9030504   5.308   5.698   3.237 -0.2639 -0.4579 -0.5539
  138MOL    C9130505   5.401   5.793   3.193 -0.3671 -0.3693 -0.0304
  138MOL    C9230506   5.529   5.799   3.256  0.3427  0.0178 -0.4199
  138MOL    C9330507   5.565   5.701   3.351 -0.0177  0.8085  0.3049
  138MOL    C9430508   5.469   5.611   3.401  0.1963  0.0011  0.0241
  138MOL    C9530509   5.338   5.618   3.350 -0.0908 -0.1813 -0.3452
  138MOL    O9630510   5.240   5.532   3.388  0.3581 -0.0251 -0.2391
  138MOL    H9730511   5.207   5.703   3.198 -0.7149 -0.2972  0.6158
  138MOL    H9830512   5.384   5.868   3.118 -0.7964 -0.1856  0.2486
  138MOL    H9930513   5.665   5.696   3.390  0.4043 -1.6223 -0.9812
  138MOL   H10030514   5.485   5.535   3.476 -0.0371 -1.5586 -1.4688
  138MOL   C10130515   5.045   5.699   3.653  0.1320 -0.9485 -0.7038
  138MOL   C10230516   5.122   5.676   3.539  0.3433  0.0035  0.3777
  138MOL   C10330517   5.168   5.549   3.507  0.7560  0.1389 -0.4650
  138MOL   C10430518   5.158   5.447   3.605 -0.0392 -0.1351  0.4288
  138MOL   C10530519   5.096   5.476   3.729 -0.0757  0.7469  0.0206
  138MOL   C10630520   5.034   5.600   3.752  0.3672 -0.7140 -0.1099
  138MOL   O10730521   4.960   5.629   3.870  0.0547  0.6489  0.5648
  138MOL   H10830522   5.005   5.799   3.659 -0.9613 -1.4374  0.2834
  138MOL   H10930523   5.139   5.759   3.472 -0.3505 -1.6435 -1.8731
  138MOL   H11030524   5.187   5.347   3.580  1.9169  0.5235 -0.0306
  138MOL   H11130525   5.093   5.407   3.812  0.5555  1.9371  1.0414
  138MOL   C11230526   5.193   5.825   4.079  0.5437  0.3698 -0.0469
  138MOL   C11330527   5.105   5.793   3.976 -0.1337 -0.6656  0.4500
  138MOL   C11430528   5.038   5.670   3.978 -1.2139 -0.0028 -0.7114
  138MOL   C11530529   5.056   5.583   4.093 -0.0210  0.3475  0.0710
  138MOL   C11630530   5.132   5.625   4.205 -0.9294 -0.0289  0.7642
  138MOL   C11730531   5.205   5.743   4.193 -0.6853 -0.2424 -0.0131
  138MOL   O11830532   5.298   5.771   4.287  0.0747  0.1897 -0.2875
  138MOL   H11930533   5.233   5.926   4.084  0.3946  0.5643 -2.3099
  138MOL   H12030534   5.072   5.870   3.908 -0.2161  1.1223  2.4457
  138MOL   H12130535   5.006   5.488   4.098 -0.0679  0.4152  1.0315
  138MOL   H12230536   5.151   5.559   4.289 -0.0162 -1.0913 -0.2727
  138MOL   C12330537   5.259   5.693   4.646 -0.2026  0.6047 -0.2146
  138MOL   C12430538   5.295   5.691   4.514  0.3221 -0.0422 -0.0654
  138MOL   C12530539   5.246   5.775   4.418 -0.4928 -0.2744 -0.0079
  138MOL   C12630540   5.153   5.869   4.461  0.3345  0.1053  0.0085
  138MOL   C12730541   5.120   5.885   4.601 -0.0569  0.2481 -0.1657
  138MOL   C12830542   5.174   5.794   4.694  0.2745  0.5452  0.3738
  138MOL   O12930543   5.157   5.814   4.830 -0.1322  0.0273 -0.2651
  138MOL   H13030544   5.310   5.625   4.713 -1.4279  0.5951  0.7208
  138MOL   H13130545   5.372   5.619   4.490  0.2001  0.0606 -0.7941
  138MOL   H13230546   5.121   5.949   4.395 -0.8966 -1.7383 -1.7044
  138MOL   H13330547   5.066   5.972   4.635  1.7140  0.3425  2.5221
  138MOL   C13430548   5.414   5.794   5.084 -0.2255 -0.1444  0.0642
  138MOL   C13530549   5.297   5.769   5.010  0.2659 -0.1142  0.3018
  138MOL   C13630550   5.267   5.843   4.899  0.9162 -0.4193  0.5739
  138MOL   C13730551   5.352   5.954   4.869  0.2754 -0.7487 -0.6930
  138MOL   C13830552   5.461   5.984   4.950  0.0197  0.1049 -0.0027
  138MOL   C13930553   5.496   5.902   5.057 -0.1649  0.1410  0.2125
  138MOL   O14030554   5.599   5.933   5.136  0.2109  0.1194 -0.3528
  138MOL   H14130555   5.438   5.733   5.171  2.6550  1.6628  0.6047
  138MOL   H14230556   5.232   5.687   5.035  2.5107 -1.7574  0.8070
  138MOL   H14330557   5.336   6.023   4.787  1.5248  0.0592 -0.2614
  138MOL   H14430558   5.516   6.071   4.919  0.6811 -0.4608 -0.4511
  138MOL   C14530559   5.522   6.267   5.278  0.5710  0.6239  0.2899
  138MOL   C14630560   5.516   6.128   5.248 -0.5243  0.1312  0.5206
  138MOL   C14730561   5.614   6.066   5.167  0.6047  0.0270 -0.3311
  138MOL   C14830562   5.731   6.134   5.125  0.2293 -0.4502  0.2513
  138MOL   C14930563   5.730   6.274   5.150  0.0519 -0.1344 -0.1435
  138MOL   C15030564   5.632   6.344   5.226  0.5331  0.0721 -0.1740
  138MOL   O15130565   5.637   6.480   5.241 -0.3100 -0.2891 -0.4638
  138MOL   H15230566   5.445   6.310   5.341 -0.8338  0.7508 -1.4529
  138MOL   H15330567   5.422   6.075   5.260 -0.3040  0.0446  1.9747
  138MOL   H15430568   5.807   6.089   5.064 -0.6455 -1.7947  0.1369
  138MOL   H15530569   5.805   6.338   5.108  0.5506  1.3126  2.8036
  138MOL   C15630570   5.464   6.679   5.497 -0.1146  0.0330 -0.5658
  138MOL   C15730571   5.485   6.605   5.379 -0.2318  0.1991 -0.7536
  138MOL   C15830572   5.606   6.530   5.364 -0.4957  0.1506 -1.0118
  138MOL   C15930573   5.691   6.511   5.473 -0.6064  0.6030 -0.0000
  138MOL   C16030574   5.667   6.584   5.593  0.5905  0.0327 -0.4706
  138MOL   C16130575   5.555   6.667   5.605 -0.3461 -0.3917 -0.0469
  138MOL   O16230576   5.536   6.747   5.713 -0.2319 -0.4026 -0.3392
  138MOL   H16330577   5.381   6.748   5.508 -0.4217 -0.3915 -0.1687
  138MOL   H16430578   5.428   6.614   5.288 -0.0493 -1.2115 -1.0187
  138MOL   H16530579   5.787   6.463   5.459 -2.0654 -2.3015 -0.3729
  138MOL   H16630580   5.734   6.575   5.676  0.1972 -2.9300 -0.3978
  138MOL   C16730581   5.714   7.046   5.843 -0.2138  0.0018  0.1064
  138MOL   C16830582   5.636   6.925   5.840 -0.1089  0.6919  0.9627
  138MOL   C16930583   5.596   6.873   5.713  0.4263  1.1356  0.3752
  138MOL   C17030584   5.626   6.948   5.592 -0.2225 -0.7171 -0.9898
  138MOL   C17130585   5.693   7.074   5.600  0.7077  0.4539  0.1648
  138MOL   C17230586   5.743   7.116   5.724  0.0775 -0.1871 -0.1812
  138MOL   O17330587   5.817   7.229   5.725 -0.1349 -0.2451 -0.1982
  138MOL   H17430588   5.754   7.082   5.936 -1.8458 -0.3403  0.9603
  138MOL   H17530589   5.606   6.871   5.929 -1.8192  0.5072  0.2959
  138MOL   H17630590   5.585   6.910   5.499 -0.1109  1.5325 -1.9887
  138MOL   H17730591   5.719   7.122   5.507 -3.3585  0.5411 -1.0178
  138MOL   C17830592   5.786   7.537   5.916  0.3357  0.2388  0.3787
  138MOL   C17930593   5.837   7.415   5.865 -0.4944  0.2903 -0.4042
  138MOL   C18030594   5.762   7.342   5.768 -0.2540 -0.3884 -0.3121
  138MOL   C18130595   5.641   7.390   5.721  0.0163  1.2464 -0.0354
  138MOL   C18230596   5.590   7.506   5.784  0.3240 -0.0092  0.5063
  138MOL   C18330597   5.663   7.577   5.876  0.0866 -0.8424  0.2758
  138MOL   O18430598   5.602   7.692   5.929 -0.1123 -0.3521  0.4159
  138MOL   H18530599   5.849   7.583   5.990  0.0771  0.5067  0.4316
  138MOL   H18630600   5.934   7.386   5.901  0.8576  1.9454 -2.5958
  138MOL   H18730601   5.584   7.345   5.641  0.1059 -0.5225  0.8716
  138MOL   H18830602   5.494   7.549   5.759  0.8908  1.1371  0.2364
  138MOL   C18930603   5.507   7.689   6.280 -0.1836  0.2273  0.6872
  138MOL   C19030604   5.584   7.708   6.169  0.6702 -0.4358  0.2429
  138MOL   C19130605   5.526   7.686   6.039  0.0659 -0.5948 -0.6562
  138MOL   C19230606   5.392   7.637   6.026 -0.4765 -0.4899  0.4538
  138MOL   C19330607   5.324   7.605   6.148  0.7652 -0.0986  0.2694
  138MOL   C19430608   5.380   7.638   6.272  0.0811  0.2883  1.2220
  138MOL   O19530609   5.305   7.612   6.386 -0.2481  0.1628 -0.1967
  138MOL   H19630610   5.543   7.705   6.380  0.9582  0.0474  0.3099
  138MOL   H19730611   5.684   7.742   6.191  1.2170 -2.1938  0.4856
  138MOL   H19830612   5.351   7.608   5.931 -1.5747 -0.6645  0.9760
  138MOL   H19930613   5.219   7.581   6.148  0.1390  2.5572 -0.1791
  138MOL   C20030614   5.272   7.249   6.441 -0.0656 -0.8258 -0.6440
  138MOL   C20130615   5.336   7.375   6.412 -0.3321  0.8367  0.6665
  138MOL   C20230616   5.253   7.488   6.408  0.1269  0.2809 -0.1170
  138MOL   C20330617   5.112   7.481   6.426  0.1481 -0.5061 -0.8302
  138MOL   C20430618   5.049   7.358   6.453  0.0485  0.2939  0.6222
  138MOL   C20530619   5.133   7.239   6.463 -0.5257 -0.9423 -0.4319
  138MOL   O20630620   5.081   7.114   6.479 -0.0483 -0.4448  0.7324
  138MOL   H20730621   5.326   7.155   6.442  1.5004  0.0531 -0.4101
  138MOL   H20830622   5.442   7.389   6.400 -0.3589 -0.1674 -0.9108
  138MOL   H20930623   5.055   7.571   6.410 -1.6274 -1.4815 -0.0429
  138MOL   H21030624   4.943   7.341   6.459  0.0489 -1.2438 -2.6519
  138MOL   C21130625   5.119   6.837   6.718  0.2793  0.6850  0.4565
  138MOL   C21230626   5.135   6.918   6.604  0.3782 -0.8031 -0.1890
  138MOL   C21330627   5.082   7.051   6.596 -0.2575  0.8597 -0.2444
  138MOL   C21430628   5.023   7.103   6.716  0.3778  0.0357  0.5866
  138MOL   C21530629   4.998   7.017   6.830 -0.6969  0.1124  0.3679
  138MOL   C21630630   5.052   6.889   6.830 -0.7040 -0.0414  0.2644
  138MOL   O21730631   5.036   6.807   6.933  0.0697 -0.2461  0.0748
  138MOL   H21830632   5.143   6.733   6.710  1.1920  0.9365 -0.1194
  138MOL   H21930633   5.161   6.866   6.513  0.2288 -1.1332 -0.0438
  138MOL   H22030634   4.982   7.202   6.701 -1.2553 -0.7654 -0.4051
  138MOL   H22130635   4.957   7.051   6.923 -0.1451  0.0289  0.6457
  138MOL   H22230636   5.078   6.723   6.923  1.2119  0.2387  0.7483
  139MOL     C130637   4.364   3.067   6.588 -0.4347  0.3115 -0.4162
  139MOL     C230638   4.414   3.148   6.488 -0.0303  0.0893  0.3624
  139MOL     C330639   4.482   3.098   6.376 -0.2803 -0.1281 -0.4151
  139MOL     C430640   4.495   2.956   6.367  0.0607  0.3843 -0.8940
  139MOL     C530641   4.444   2.873   6.468 -0.6439  1.0171 -0.7721
  139MOL     C630642   4.377   2.932   6.577  0.1763 -0.1156 -0.0781
  139MOL     O730643   4.348   2.849   6.681  0.8434  0.5687 -1.0341
  139MOL     H830644   4.323   3.111   6.678  0.7871 -1.3387  0.9770
  139MOL     H930645   4.405   3.255   6.498 -2.3778 -0.0622 -0.0078
  139MOL    H1030646   4.547   2.912   6.284 -0.9406 -1.3979 -0.6000
  139MOL    H1130647   4.462   2.767   6.460  1.0030  1.1656  0.5283
  139MOL    H1230648   4.512   3.159   6.292  2.3284 -0.5886  0.1398
  139MOL    C1330649   4.023   2.661   6.616  0.3741  0.5784 -0.6597
  139MOL    C1430650   4.163   2.692   6.612  0.1975  0.0953  0.6203
  139MOL    C1530651   4.221   2.795   6.696  0.3365  0.3224  0.3656
  139MOL    C1630652   4.135   2.845   6.792  0.7922 -1.0207  0.0945
  139MOL    C1730653   4.000   2.815   6.802  0.1640  0.5893 -0.4614
  139MOL    C1830654   3.937   2.723   6.711 -0.4305  0.3256 -0.1022
  139MOL    O1930655   3.800   2.717   6.697  0.5410 -0.2065  0.1652
  139MOL    H2030656   3.985   2.591   6.543  0.2638  1.3168 -1.3257
  139MOL    H2130657   4.227   2.644   6.540 -0.9597  1.7215 -1.5405
  139MOL    H2230658   4.177   2.919   6.859  0.3361 -0.5960 -0.0914
  139MOL    H2330659   3.946   2.877   6.872 -0.0419 -0.3768  0.2485
  139MOL    C2430660   3.591   2.492   6.500 -0.0870  0.6211  0.3487
  139MOL    C2530661   3.653   2.602   6.551 -0.2624 -0.5598 -0.7612
  139MOL    C2630662   3.751   2.598   6.652  0.0694 -0.2615 -0.3944
  139MOL    C2730663   3.790   2.476   6.706 -0.1048  0.3465  0.3611
  139MOL    C2830664   3.728   2.356   6.659  0.1825  0.1921  0.6233
  139MOL    C2930665   3.631   2.368   6.561 -0.0568 -0.4861  0.4729
  139MOL    O3030666   3.568   2.254   6.517  0.0030  0.0710  0.0518
  139MOL    H3130667   3.519   2.495   6.420  0.1136 -1.4190  0.0701
  139MOL    H3230668   3.639   2.695   6.498 -0.1977 -1.5247 -2.5240
  139MOL    H3330669   3.870   2.469   6.778  0.6753  2.0424 -0.3162
  139MOL    H3430670   3.760   2.261   6.699  3.3794  0.4222 -1.2416
  139MOL    C3530671   3.684   2.132   6.188 -0.9319 -0.5218 -0.8566
  139MOL    C3630672   3.687   2.166   6.322 -0.4247  0.2196  0.1798
  139MOL    C3730673   3.571   2.222   6.384 -0.4653 -0.1959  0.2235
  139MOL    C3830674   3.454   2.241   6.311  0.1278  0.5907  0.8231
  139MOL    C3930675   3.442   2.205   6.172 -0.1675 -0.6382 -0.3171
  139MOL    C4030676   3.562   2.155   6.115 -0.1048  0.6902  0.5982
  139MOL    O4130677   3.555   2.119   5.985 -0.1813 -0.0025 -0.6618
  139MOL    H4230678   3.772   2.087   6.145 -0.4862 -1.0176  0.5310
  139MOL    H4330679   3.776   2.152   6.381  1.9892  0.1375 -3.3335
  139MOL    H4430680   3.367   2.272   6.367 -0.9763 -0.8407 -0.0537
  139MOL    H4530681   3.345   2.215   6.126  0.8134  0.9329 -2.0845
  139MOL    C4630682   3.780   2.285   5.751 -0.7775 -0.0461  1.0383
  139MOL    C4730683   3.694   2.258   5.861  0.2924 -0.8049  0.6986
  139MOL    C4830684   3.665   2.130   5.901 -0.0783  0.3384 -0.2141
  139MOL    C4930685   3.736   2.022   5.845 -0.3624  0.1191 -0.0136
  139MOL    C5030686   3.832   2.046   5.741  0.6920 -0.0195 -0.5503
  139MOL    C5130687   3.845   2.178   5.692 -0.3529 -0.1314  0.4275
  139MOL    O5230688   3.923   2.197   5.585 -0.4894 -0.3914  0.4358
  139MOL    H5330689   3.808   2.387   5.727  0.7464  0.1486  3.4678
  139MOL    H5430690   3.640   2.344   5.897  0.2293  0.2735 -1.8142
  139MOL    H5530691   3.700   1.923   5.866  0.2406 -0.7558 -2.8932
  139MOL    H5630692   3.879   1.960   5.696  0.4444 -0.0904 -0.6710
  139MOL    C5730693   3.946   1.974   5.295  0.2333 -0.0721 -0.1429
  139MOL    C5830694   3.981   2.039   5.417  0.0349 -0.1489 -0.1970
  139MOL    C5930695   3.891   2.135   5.467  0.0457  0.4243  0.2651
  139MOL    C6030696   3.785   2.177   5.393 -0.1169 -1.1687 -0.2589
  139MOL    C6130697   3.754   2.123   5.271  0.1378  0.7477  0.8219
  139MOL    C6230698   3.838   2.017   5.217 -0.0533 -0.1883  0.3931
  139MOL    O6330699   3.803   1.944   5.107 -0.3467 -0.0748  0.2824
  139MOL    H6430700   4.008   1.893   5.259 -1.1702 -2.2034  2.1612
  139MOL    H6530701   4.078   2.019   5.460  0.3811  1.9628  0.0518
  139MOL    H6630702   3.731   2.260   5.437  0.6227 -0.3434 -0.8745
  139MOL    H6730703   3.667   2.138   5.208  1.3683 -1.1178 -1.4431
  139MOL    C6830704   3.489   1.753   5.036 -0.4844  0.3726  0.1990
  139MOL    C6930705   3.588   1.854   5.026 -0.0325 -0.4343  0.2060
  139MOL    C7030706   3.697   1.852   5.118 -0.3054 -0.4468  0.2306
  139MOL    C7130707   3.712   1.746   5.209  0.5439  0.6408  0.6259
  139MOL    C7230708   3.618   1.645   5.208  0.1422  0.6433  0.0208
  139MOL    C7330709   3.502   1.646   5.124 -0.2101  0.3953  0.0915
  139MOL    O7430710   3.403   1.549   5.126  0.1512 -0.0408  0.0117
  139MOL    H7530711   3.406   1.744   4.968 -1.9109 -1.0419  2.0654
  139MOL    H7630712   3.584   1.932   4.951  0.1108 -1.1747 -0.5795
  139MOL    H7730713   3.807   1.738   5.260  0.1132 -1.5085  1.1214
  139MOL    H7830714   3.636   1.557   5.269 -1.6230 -1.3685 -2.2500
  139MOL    C7930715   3.123   1.437   5.342 -0.5549 -0.8672 -0.4526
  139MOL    C8030716   3.227   1.439   5.241 -0.0451  0.3582 -0.0769
  139MOL    C8130717   3.311   1.551   5.231  0.1563  0.6908  0.4761
  139MOL    C8230718   3.287   1.666   5.309 -0.0831  0.3994  0.5366
  139MOL    C8330719   3.184   1.672   5.407 -0.1994  0.2781  0.0181
  139MOL    C8430720   3.103   1.558   5.424 -0.2234 -0.8524  0.1029
  139MOL    O8530721   2.995   1.564   5.512 -0.1807  0.1186  0.0100
  139MOL    H8630722   3.046   1.361   5.351  0.8545 -2.1205  1.4260
  139MOL    H8730723   3.235   1.361   5.166  0.7588  1.1481 -0.8137
  139MOL    H8830724   3.353   1.750   5.298 -1.7783  1.6016 -0.8738
  139MOL    H8930725   3.168   1.760   5.467 -2.2043 -0.5309  0.6776
  139MOL    C9030726   2.730   1.741   5.328 -0.0760 -0.0623 -0.5738
  139MOL    C9130727   2.811   1.633   5.373  0.7777  0.3019  0.1977
  139MOL    C9230728   2.901   1.656   5.478  1.0824  0.0690 -0.1350
  139MOL    C9330729   2.891   1.769   5.556  0.1585  0.4013  0.1298
  139MOL    C9430730   2.811   1.879   5.519  0.1193  0.2790  0.2977
  139MOL    C9530731   2.735   1.866   5.399 -0.1943  0.2084  0.4169
  139MOL    O9630732   2.657   1.971   5.355  0.5194  0.1509 -0.0693
  139MOL    H9730733   2.665   1.718   5.245  0.8132 -0.9655 -1.0286
  139MOL    H9830734   2.827   1.545   5.311 -0.7499 -0.6662  1.1408
  139MOL    H9930735   2.945   1.778   5.649 -2.6554 -0.7255  1.9412
  139MOL   H10030736   2.826   1.965   5.582  0.9253 -0.2115  0.7852
  139MOL   C10130737   2.351   1.998   5.562 -0.3100  0.2142  0.4578
  139MOL   C10230738   2.462   1.938   5.491 -0.2654  0.3573 -0.8208
  139MOL   C10330739   2.564   2.023   5.440 -0.5992 -0.5638 -0.0857
  139MOL   C10430740   2.562   2.158   5.463 -0.1246 -0.2466 -0.1886
  139MOL   C10530741   2.460   2.220   5.532 -0.2494 -0.4320  0.1129
  139MOL   C10630742   2.351   2.141   5.583  0.2637 -0.4782  0.4004
  139MOL   O10730743   2.253   2.192   5.665 -0.0382  0.0654 -0.4060
  139MOL   H10830744   2.280   1.928   5.603 -0.1605 -0.2864 -0.1244
  139MOL   H10930745   2.462   1.831   5.475  0.1230  0.1899  0.2525
  139MOL   H11030746   2.642   2.213   5.415  0.9061 -0.1407  1.6261
  139MOL   H11130747   2.474   2.327   5.544 -0.2931 -0.2959 -1.0284
  139MOL   C11230748   1.907   2.078   5.731 -0.2970  0.5811 -0.6282
  139MOL   C11330749   2.038   2.127   5.753 -0.2037 -0.0929  0.4546
  139MOL   C11430750   2.122   2.161   5.645 -0.1154 -0.0913  0.8382
  139MOL   C11530751   2.066   2.156   5.510  0.3196 -0.5131 -0.3615
  139MOL   C11630752   1.926   2.123   5.499  0.0592  0.6136  0.5106
  139MOL   C11730753   1.851   2.064   5.601 -0.1038  0.0416 -0.1014
  139MOL   O11830754   1.735   2.001   5.578  0.1501  0.5044  0.4274
  139MOL   H11930755   1.852   2.032   5.812 -0.8324 -1.0491 -1.9093
  139MOL   H12030756   2.079   2.127   5.853  2.0961  2.7951 -0.4313
  139MOL   H12130757   2.128   2.172   5.423  0.6879  0.2853  0.0413
  139MOL   H12230758   1.886   2.117   5.399  3.1915  3.6327 -1.0224
  139MOL   C12330759   1.528   1.825   5.826  0.2763  0.9835 -0.7708
  139MOL   C12430760   1.584   1.924   5.744 -0.7185  0.0932 -0.0901
  139MOL   C12530761   1.701   1.904   5.669 -0.9894 -0.4176  0.0440
  139MOL   C12630762   1.768   1.786   5.679 -0.0178  0.1727 -0.4956
  139MOL   C12730763   1.707   1.683   5.752  0.5811 -0.5168  0.5662
  139MOL   C12830764   1.589   1.697   5.828 -0.5350  0.0113 -0.3321
  139MOL   O12930765   1.535   1.594   5.897  0.0792 -0.0544  0.7116
  139MOL   H13030766   1.441   1.839   5.888  1.1158 -0.2650  0.7232
  139MOL   H13130767   1.537   2.021   5.732 -4.2001 -1.3687  1.1583
  139MOL   H13230768   1.861   1.767   5.628 -0.6633 -0.7472 -1.3411
  139MOL   H13330769   1.761   1.590   5.757  0.4101 -0.6004  0.8903
  139MOL   C13430770   1.207   1.544   6.046  0.0025  0.2283 -0.3656
  139MOL   C13530771   1.340   1.572   6.043 -0.7321  0.0494 -0.4747
  139MOL   C13630772   1.402   1.573   5.913 -0.1039  0.5978 -0.0487
  139MOL   C13730773   1.324   1.555   5.797  0.0732  0.3625 -0.3398
  139MOL   C13830774   1.185   1.548   5.803 -0.1515 -0.1327  0.8532
  139MOL   C13930775   1.118   1.534   5.931 -0.0221  0.7545 -0.3118
  139MOL   O14030776   0.985   1.542   5.944  0.0933 -0.7506 -0.2461
  139MOL   H14130777   1.164   1.552   6.144  0.4899 -0.7282 -0.0621
  139MOL   H14230778   1.398   1.605   6.127  0.9539 -1.9363 -0.8139
  139MOL   H14330779   1.379   1.550   5.705 -0.1453  1.3470 -0.5291
  139MOL   H14430780   1.136   1.544   5.707  0.7114 -3.4581  0.4804
  139MOL   C14530781   0.838   1.850   5.812  0.1823 -0.6708 -0.0974
  139MOL   C14630782   0.874   1.717   5.817 -0.0594 -0.0706  0.1632
  139MOL   C14730783   0.926   1.669   5.940 -0.4582  0.3774  0.3992
  139MOL   C14830784   0.923   1.749   6.057 -0.0835 -0.0627 -0.5835
  139MOL   C14930785   0.872   1.880   6.056 -0.0167  0.0542 -0.3025
  139MOL   C15030786   0.832   1.930   5.930  0.3687 -0.7112  0.4287
  139MOL   O15130787   0.775   2.056   5.921 -0.1332 -0.3070 -0.5559
  139MOL   H15230788   0.798   1.896   5.724 -0.8959  0.0092  0.7403
  139MOL   H15330789   0.861   1.658   5.727 -1.7153 -0.7660  0.8328
  139MOL   H15430790   0.965   1.717   6.152  1.2293  1.2996 -0.7003
  139MOL   H15530791   0.850   1.945   6.139 -0.9296  0.9996 -1.2616
  139MOL   C15630792   0.886   2.333   5.703 -0.7650 -0.1391 -0.0565
  139MOL   C15730793   0.831   2.214   5.749  0.2131 -0.2238 -0.4136
  139MOL   C15830794   0.851   2.163   5.880  0.1150  1.3967 -0.0271
  139MOL   C15930795   0.937   2.223   5.963 -0.5667 -0.4153  0.0249
  139MOL   C16030796   0.995   2.347   5.926  0.4132 -0.1629  0.6930
  139MOL   C16130797   0.978   2.393   5.793 -0.3987 -0.1370 -0.8046
  139MOL   O16230798   1.032   2.520   5.767  0.1571 -0.1878 -0.4103
  139MOL   H16330799   0.857   2.380   5.610 -0.1938  3.1151  1.3552
  139MOL   H16430800   0.762   2.162   5.683 -0.5068  0.0432  0.1201
  139MOL   H16530801   0.950   2.184   6.063  0.3968  0.2231  0.1506
  139MOL   H16630802   1.054   2.395   6.002  0.1542  0.4692  0.4941
  139MOL   C16730803   0.806   2.807   5.702 -0.0693  0.1068 -0.0958
  139MOL   C16830804   0.882   2.712   5.772  0.8144  0.2493  0.4435
  139MOL   C16930805   0.968   2.623   5.700  0.9177  0.4952 -0.3571
  139MOL   C17030806   0.979   2.639   5.562  0.4588 -0.0113 -0.1521
  139MOL   C17130807   0.899   2.730   5.494 -0.4344  0.4114 -0.0142
  139MOL   C17230808   0.814   2.820   5.567 -0.1761 -0.2364  0.3462
  139MOL   O17330809   0.739   2.907   5.491  0.1428 -0.4373 -0.1759
  139MOL   H17430810   0.742   2.873   5.759 -1.7280 -1.3443 -0.2243
  139MOL   H17530811   0.886   2.713   5.880  0.8344  2.2015  0.4335
  139MOL   H17630812   1.033   2.571   5.498 -1.2483  0.5177 -2.2034
  139MOL   H17730813   0.898   2.740   5.386 -0.6374  1.8272  0.1024
  139MOL   C17830814   0.656   3.219   5.653 -0.0276 -0.2314 -0.4497
  139MOL   C17930815   0.735   3.126   5.592  0.1594 -0.5634 -0.4464
  139MOL   C18030816   0.674   3.006   5.558 -0.0704  0.5717  0.2605
  139MOL   C18130817   0.534   2.988   5.577  0.2982  0.2751  0.2880
  139MOL   C18230818   0.462   3.080   5.652 -0.0526  0.0344  0.1063
  139MOL   C18330819   0.526   3.195   5.694  0.3956  0.1737 -0.4542
  139MOL   O18430820   0.458   3.297   5.751  0.8130  0.0574  0.6603
  139MOL   H18530821   0.716   3.308   5.667  1.4584 -1.7078  3.0857
  139MOL   H18630822   0.841   3.147   5.581 -0.0081  1.3106  1.2757
  139MOL   H18730823   0.487   2.897   5.544  0.7592 -0.4016  1.4570
  139MOL   H18830824   0.358   3.064   5.676 -0.4367  0.6666 -1.0890
  139MOL   C18930825   0.358   3.205   6.109 -0.4957 -0.0427  0.5426
  139MOL   C19030826   0.435   3.222   5.992  0.6915 -0.0630  0.5714
  139MOL   C19130827   0.381   3.275   5.871  0.1638  0.9028 -0.3340
  139MOL   C19230828   0.249   3.324   5.868 -0.5079  0.4092 -0.6839
  139MOL   C19330829   0.174   3.320   5.988 -0.2064  0.8822  0.3291
  139MOL   C19430830   0.227   3.250   6.100  0.0191 -0.2531 -0.1141
  139MOL   O19530831   0.154   3.256   6.218  0.1932  0.0052 -0.6456
  139MOL   H19630832   0.408   3.166   6.197  1.8774 -1.8503 -1.5203
  139MOL   H19730833   0.541   3.204   5.996  0.9452  1.2841  0.1729
  139MOL   H19830834   0.207   3.370   5.780  1.4027 -1.2687 -2.5040
  139MOL   H19930835   0.070   3.349   5.980  0.5114  3.2928 -0.8700
  139MOL   C20030836   8.095   3.069   6.195 -0.8429 -0.2346  0.5921
  139MOL   C20130837   8.187   3.170   6.166 -0.6683  0.9817  0.3187
  139MOL   C20230838   0.058   3.160   6.236  0.1382 -0.0191  0.6933
  139MOL   C20330839   0.084   3.061   6.337  0.0279  0.7080  0.0712
  139MOL   C20430840   8.247   2.952   6.353  0.1549  0.1609 -0.3401
  139MOL   C20530841   8.124   2.957   6.282 -0.1785 -0.3547  0.7849
  139MOL   O20630842   8.028   2.858   6.283  0.0982  0.6960 -0.0166
  139MOL   H20730843   7.998   3.073   6.148 -1.6421  1.8791  2.3310
  139MOL   H20830844   8.160   3.243   6.091  2.7970  1.3841 -0.6266
  139MOL   H20930845   0.178   3.063   6.391  0.5086 -0.6988 -0.6858
  139MOL   H21030846   0.012   2.872   6.424 -2.8037  0.5980  1.0073
  139MOL   C21130847   8.028   2.610   6.016  0.4518  0.4419  0.3793
  139MOL   C21230848   8.072   2.683   6.127  0.5814 -0.4835 -0.6066
  139MOL   C21330849   7.997   2.796   6.169 -0.4919  0.4760 -0.4449
  139MOL   C21430850   7.895   2.847   6.090 -0.2243  0.2647 -0.8279
  139MOL   C21530851   7.860   2.780   5.972  0.1176 -0.0197 -0.3649
  139MOL   C21630852   7.931   2.661   5.932 -0.1012  0.7068 -0.0595
  139MOL   O21730853   7.898   2.596   5.814  0.5074  0.4566  0.1945
  139MOL   H21830854   8.086   2.521   5.992 -0.6750 -0.5209  1.1873
  139MOL   H21930855   8.152   2.640   6.186  0.4476  0.4314  0.2472
  139MOL   H22030856   7.845   2.936   6.126  0.8944 -0.0228  1.5056
  139MOL   H22130857   7.774   2.805   5.912  0.9154  0.4082 -1.3404
  139MOL   H22230858   7.806   2.610   5.801  0.6346  1.0491 -0.0972
  140MOL     C130859   5.170   5.101   5.376  0.3188 -0.2219 -0.0723
  140MOL     C230860   5.185   4.980   5.307 -0.0845 -0.5189  0.5061
  140MOL     C330861   5.082   4.890   5.284  0.4962  1.0644 -0.2608
  140MOL     C430862   4.955   4.908   5.339  0.0740 -0.5315  0.5373
  140MOL     C530863   4.938   5.036   5.405 -0.2735  0.2325 -0.2629
  140MOL     C630864   5.046   5.124   5.431  0.0056 -0.5540  0.5021
  140MOL     O730865   5.030   5.245   5.492  0.4834  0.5189  0.2386
  140MOL     H830866   5.255   5.167   5.383  0.9809 -1.0602 -0.0689
  140MOL     H930867   5.278   4.956   5.257 -0.5225  0.0541 -0.6050
  140MOL    H1030868   4.880   4.831   5.332  1.0003 -1.5429  1.5167
  140MOL    H1130869   4.837   5.060   5.435 -1.2851  0.1498 -3.4172
  140MOL    H1230870   5.094   4.798   5.228  0.8217  0.1421  1.2940
  140MOL    C1330871   4.852   5.167   5.801  0.7194  0.2207 -0.5084
  140MOL    C1430872   4.943   5.157   5.693  0.1867  0.6768 -0.4439
  140MOL    C1530873   4.943   5.252   5.591  0.0319  0.6811 -0.0238
  140MOL    C1630874   4.837   5.347   5.595  0.2667  0.3293  0.6057
  140MOL    C1730875   4.748   5.361   5.702 -0.4010  0.0209 -0.0622
  140MOL    C1830876   4.764   5.273   5.809 -0.5141 -0.0915 -0.1590
  140MOL    O1930877   4.681   5.286   5.914  0.2208 -0.2099 -0.7935
  140MOL    H2030878   4.857   5.098   5.884 -1.8075  1.1096  0.4331
  140MOL    H2130879   5.017   5.077   5.694  0.5837  1.0452  2.7937
  140MOL    H2230880   4.842   5.427   5.523 -0.4929  0.6381  0.8910
  140MOL    H2330881   4.689   5.451   5.700 -0.5565 -0.0767  0.0976
  140MOL    C2430882   4.564   4.963   6.047  0.1930 -0.4194 -0.4790
  140MOL    C2530883   4.566   5.084   5.969  0.2803 -0.6350 -0.1010
  140MOL    C2630884   4.669   5.180   6.000 -0.5931  1.1256 -0.5679
  140MOL    C2730885   4.764   5.158   6.108  0.0642 -0.7219  0.1749
  140MOL    C2830886   4.754   5.043   6.186  0.0439 -0.2825  0.0157
  140MOL    C2930887   4.650   4.951   6.161  0.0079 -0.1012 -0.6064
  140MOL    O3030888   4.640   4.851   6.250  0.1637 -0.5633 -0.5334
  140MOL    H3130889   4.485   4.892   6.028 -1.2656  1.2984 -0.9657
  140MOL    H3230890   4.500   5.101   5.885 -0.2874  3.9542  1.1701
  140MOL    H3330891   4.837   5.235   6.129  0.4825 -0.9331 -0.4936
  140MOL    H3430892   4.826   5.013   6.260  0.6605  0.6538 -0.2095
  140MOL    C3530893   4.339   4.943   6.443  0.2662 -0.4077  0.1637
  140MOL    C3630894   4.458   4.951   6.374  0.2792 -0.3672  0.3762
  140MOL    C3730895   4.519   4.839   6.312 -0.7331 -0.1777  0.0234
  140MOL    C3830896   4.461   4.714   6.318  0.2018  0.5931 -0.1225
  140MOL    C3930897   4.342   4.698   6.389 -0.3281 -0.4645 -0.1702
  140MOL    C4030898   4.277   4.814   6.446 -0.4210  0.5081 -0.0951
  140MOL    O4130899   4.148   4.794   6.498 -0.3726 -0.5725  0.0546
  140MOL    H4230900   4.286   5.029   6.479 -0.7237 -1.3504  0.9996
  140MOL    H4330901   4.499   5.050   6.357  1.2534 -0.7539  0.4744
  140MOL    H4430902   4.515   4.631   6.276 -1.5426 -0.3279 -0.6050
  140MOL    H4530903   4.299   4.599   6.389 -0.6132 -0.3430  0.1387
  140MOL    C4630904   3.896   5.066   6.517 -0.4146  1.1273 -0.3688
  140MOL    C4730905   3.971   4.954   6.461 -0.6268  0.9780 -0.0630
  140MOL    C4830906   4.077   4.901   6.538  0.4162 -0.0057 -0.5323
  140MOL    C4930907   4.097   4.942   6.670 -0.5453  0.4716  0.1161
  140MOL    C5030908   4.018   5.048   6.730 -0.6710  0.0900  0.2942
  140MOL    C5130909   3.913   5.105   6.653  0.2930  0.1864 -0.4425
  140MOL    O5230910   3.848   5.214   6.703 -0.4087  0.8191  0.6023
  140MOL    H5330911   3.819   5.117   6.462  0.3769  2.9327  0.1725
  140MOL    H5430912   3.953   4.926   6.358 -0.8092 -1.8488  0.7090
  140MOL    H5530913   4.185   4.907   6.721 -0.1713 -1.9597 -2.0752
  140MOL    H5630914   4.038   5.074   6.833  0.3196  0.6661 -0.0391
  140MOL    C5730915   3.568   5.087   6.900  0.4512  0.4496  0.0278
  140MOL    C5830916   3.685   5.085   6.828 -0.0592 -0.2148  0.1813
  140MOL    C5930917   3.727   5.204   6.766  0.2664 -0.0606 -0.2494
  140MOL    C6030918   3.652   5.324   6.782  0.3456  0.3513 -0.2827
  140MOL    C6130919   3.539   5.330   6.861  0.5228  0.8357 -0.7657
  140MOL    C6230920   3.498   5.211   6.918 -0.1850 -0.4940 -0.2512
  140MOL    O6330921   3.387   5.217   6.992 -0.0799 -0.5080 -0.5917
  140MOL    H6430922   3.528   4.999   6.948  0.4843 -0.1272 -0.9942
  140MOL    H6530923   3.740   4.993   6.811 -0.6142 -0.4582 -0.2791
  140MOL    H6630924   3.694   5.416   6.743  1.2672  0.0349 -0.0357
  140MOL    H6730925   3.487   5.424   6.875  0.5436  0.4334  2.1716
  140MOL    C6830926   3.116   5.015   7.120  0.2835  0.8980 -0.8406
  140MOL    C6930927   3.224   5.103   7.104 -0.5749  0.3418 -0.0259
  140MOL    C7030928   3.285   5.126   6.981 -0.0292 -0.1107  0.0162
  140MOL    C7130929   3.233   5.072   6.860  0.7420  0.2532  0.0702
  140MOL    C7230930   3.113   4.997   6.877  0.1909 -0.1448 -0.7171
  140MOL    C7330931   3.058   4.962   7.007 -0.0652 -0.5287  0.1487
  140MOL    O7430932   2.956   4.873   7.020  0.4032 -0.4631 -0.4418
  140MOL    H7530933   3.069   4.996   7.215  0.4264 -1.3639 -1.2036
  140MOL    H7630934   3.275   5.137   7.193 -1.3615  3.0720 -0.5848
  140MOL    H7730935   3.274   5.100   6.765  0.4997  0.6591  0.0854
  140MOL    H7830936   3.068   4.957   6.788 -1.9670 -0.8914  0.6702
  140MOL    C7930937   3.060   4.551   6.853  0.3381  0.0354 -0.5626
  140MOL    C8030938   3.070   4.675   6.922 -0.6504  0.2352 -0.6449
  140MOL    C8130939   2.952   4.759   6.949  0.2113 -0.8593  0.1713
  140MOL    C8230940   2.821   4.714   6.906 -0.0584 -1.2609  0.1775
  140MOL    C8330941   2.816   4.596   6.829  0.4735 -0.1808  0.8828
  140MOL    C8430942   2.931   4.515   6.810  0.2856  0.0495  0.2299
  140MOL    O8530943   2.920   4.401   6.743 -0.5020  0.3253 -0.2060
  140MOL    H8630944   3.146   4.487   6.841  0.5806  0.0044  1.2280
  140MOL    H8730945   3.167   4.714   6.947 -1.0444  0.5435  0.4182
  140MOL    H8830946   2.734   4.775   6.923  1.9385  1.4410  1.0099
  140MOL    H8930947   2.718   4.560   6.800  0.3762  0.0804  0.8856
  140MOL    C9030948   2.749   4.083   6.732 -0.6579  0.1998 -0.0649
  140MOL    C9130949   2.817   4.197   6.696 -0.2767 -0.8118  0.1247
  140MOL    C9230950   2.839   4.305   6.786  0.1359 -0.3822  0.3058
  140MOL    C9330951   2.792   4.295   6.916  0.6717 -0.1520  0.3370
  140MOL    C9430952   2.709   4.188   6.953  0.1550 -0.2932 -0.6880
  140MOL    C9530953   2.689   4.080   6.859  0.3708 -0.6399  0.7126
  140MOL    O9630954   2.628   3.962   6.899 -0.2289 -0.1231 -0.4105
  140MOL    H9730955   2.732   3.999   6.666 -1.3737 -0.5253  1.0172
  140MOL    H9830956   2.852   4.212   6.595 -1.7395  2.9385  0.0801
  140MOL    H9930957   2.813   4.376   6.985  2.0262  1.8473 -2.3110
  140MOL   H10030958   2.680   4.177   7.057 -1.0799  1.7816 -0.7794
  140MOL   C10130959   2.771   3.805   7.200  0.3139  0.1418  0.3337
  140MOL   C10230960   2.691   3.881   7.114 -0.2706  0.0007  0.1598
  140MOL   C10330961   2.712   3.886   6.977  0.3775 -0.4042 -0.5236
  140MOL   C10430962   2.827   3.824   6.922 -0.0531 -0.6665 -0.4653
  140MOL   C10530963   2.913   3.760   7.008 -0.0029  1.4527 -0.1073
  140MOL   C10630964   2.885   3.742   7.147  0.3238 -0.4180  0.2960
  140MOL   O10730965   2.959   3.664   7.229  0.9068  0.9816  0.1710
  140MOL   H10830966   2.751   3.810   7.306  0.0878  0.2207  0.2862
  140MOL   H10930967   2.601   3.929   7.150 -0.7200 -0.0021 -0.9255
  140MOL   H11030968   2.845   3.851   6.819 -1.0121  0.9560 -0.2388
  140MOL   H11130969   3.009   3.720   6.980 -0.1349  0.8432  0.3041
  140MOL   C11230970   3.232   3.885   7.348 -0.4943  0.2519  0.8348
  140MOL   C11330971   3.124   3.839   7.277  0.0973  0.3502 -0.8703
  140MOL   C11430972   3.076   3.705   7.295  0.4252 -0.6211 -0.1562
  140MOL   C11530973   3.149   3.614   7.372 -0.3513 -0.1961  0.2694
  140MOL   C11630974   3.257   3.664   7.446  0.6671  0.7466 -0.3555
  140MOL   C11730975   3.302   3.794   7.437  0.8513  0.3881  0.3961
  140MOL   O11830976   3.421   3.822   7.494 -0.0132  0.2417  0.1287
  140MOL   H11930977   3.257   3.988   7.331  0.4884  0.3750  2.8661
  140MOL   H12030978   3.080   3.905   7.204 -0.6057  0.0185 -0.7455
  140MOL   H12130979   3.124   3.509   7.365  0.0884 -0.1971 -1.5581
  140MOL   H12230980   3.316   3.593   7.503 -1.0510  0.1570  0.7200
  140MOL   C12330981   3.642   4.037   7.290  1.3723 -0.1640  0.5723
  140MOL   C12430982   3.554   3.928   7.324  0.5754 -0.2135 -0.6070
  140MOL   C12530983   3.490   3.931   7.451 -0.7187 -0.3880  0.4800
  140MOL   C12630984   3.514   4.044   7.535 -0.6167  0.3940  0.0688
  140MOL   C12730985   3.594   4.153   7.493 -0.0864  0.1058 -1.3763
  140MOL   C12830986   3.666   4.153   7.372  0.4358  0.4883  0.9758
  140MOL   O12930987   3.753   4.257   7.342 -0.2389 -0.6342  0.1651
  140MOL   H13030988   3.704   4.028   7.201 -0.8143  2.0103 -1.2389
  140MOL   H13130989   3.541   3.845   7.255 -2.2297 -1.0726  0.9111
  140MOL   H13230990   3.485   4.058   7.638  0.4480  2.4997  0.1112
  140MOL   H13330991   3.620   4.237   7.556  2.4424 -1.6541  0.0437
  140MOL   C13430992   3.578   4.551   7.195  0.1539 -0.1256  0.2019
  140MOL   C13530993   3.641   4.422   7.195 -0.5118 -0.1275 -1.2326
  140MOL   C13630994   3.701   4.380   7.322  0.6705 -0.5002 -0.7224
  140MOL   C13730995   3.710   4.474   7.433 -0.0736  0.7253 -0.3189
  140MOL   C13830996   3.669   4.605   7.420  0.0857 -0.1221 -0.3905
  140MOL   C13930997   3.599   4.646   7.298 -0.0176  0.1591 -0.2526
  140MOL   O14030998   3.545   4.769   7.300 -0.1175 -0.0863 -0.3696
  140MOL   H14130999   3.520   4.585   7.111  0.3783 -0.4086 -0.0659
  140MOL   H14231000   3.640   4.345   7.119  1.9048 -2.3481  0.8762
  140MOL   H14331001   3.765   4.452   7.523  0.6196  3.1528 -0.1264
  140MOL   H14431002   3.673   4.682   7.494 -1.1211  1.1332 -1.6007
  140MOL   C14531003   3.177   4.728   7.296  0.3509 -0.0376 -0.5219
  140MOL   C14631004   3.315   4.725   7.259 -1.1376  0.4682 -0.2357
  140MOL   C14731005   3.415   4.777   7.343 -0.0130  0.0512 -1.2637
  140MOL   C14831006   3.385   4.847   7.464  0.4855  0.3314 -0.6019
  140MOL   C14931007   3.248   4.848   7.493  0.8001 -0.5484 -0.3238
  140MOL   C15031008   3.146   4.794   7.414 -0.1834 -0.4869  0.0424
  140MOL   O15131009   3.009   4.813   7.446  0.2382  0.6163 -0.3608
  140MOL   H15231010   3.105   4.668   7.242  1.3595 -1.9732  0.2029
  140MOL   H15331011   3.340   4.678   7.165 -0.6202 -0.6595  0.4598
  140MOL   H15431012   3.459   4.885   7.533 -1.4502  2.3393  0.3959
  140MOL   H15531013   3.210   4.904   7.577  2.1223  0.3376 -0.3069
  140MOL   C15631014   2.847   4.479   7.465  0.2542  0.4573 -0.0090
  140MOL   C15731015   2.937   4.585   7.504  0.3545  0.1289  0.5648
  140MOL   C15831016   2.926   4.709   7.432  0.4808  0.8995 -0.1522
  140MOL   C15931017   2.834   4.725   7.323  0.1453  1.0112  0.6913
  140MOL   C16031018   2.755   4.612   7.290 -0.3993  0.6722  0.3305
  140MOL   C16131019   2.761   4.488   7.359 -0.4054 -0.3257  1.1824
  140MOL   O16231020   2.688   4.376   7.317  0.2342 -0.2988  0.2776
  140MOL   H16331021   2.859   4.390   7.525 -0.8296  1.4764  1.7863
  140MOL   H16431022   2.985   4.572   7.600  2.9675 -3.9022 -1.1491
  140MOL   H16531023   2.834   4.820   7.273 -0.5708  1.7746  2.1086
  140MOL   H16631024   2.683   4.620   7.210 -1.0439 -0.8805  0.7422
  140MOL   C16731025   2.529   4.215   7.616 -0.6664 -0.0293 -0.0369
  140MOL   C16831026   2.568   4.314   7.523 -0.5988 -0.5567  0.4933
  140MOL   C16931027   2.651   4.284   7.411 -0.4576  0.3237 -0.2271
  140MOL   C17031028   2.695   4.154   7.397 -0.2396  0.0221 -0.3534
  140MOL   C17131029   2.666   4.052   7.487 -0.4755 -0.1483 -0.1260
  140MOL   C17231030   2.577   4.084   7.591  0.6701  0.4820  0.1210
  140MOL   O17331031   2.536   3.985   7.680 -0.4655 -0.5297  0.3677
  140MOL   H17431032   2.464   4.235   7.700 -1.9743  0.8385 -1.2456
  140MOL   H17531033   2.538   4.415   7.550  2.0492  0.4686 -0.2093
  140MOL   H17631034   2.746   4.143   7.302  0.4033  0.4474 -0.0520
  140MOL   H17731035   2.702   3.951   7.474  0.3735  0.0560  0.6295
  140MOL   C17831036   2.227   3.801   7.610  0.2980 -0.3683  0.6427
  140MOL   C17931037   2.364   3.835   7.602  0.1952  0.1968  0.0717
  140MOL   C18031038   2.406   3.946   7.679 -0.2723 -0.3461 -0.4611
  140MOL   C18131039   2.309   4.014   7.756 -0.1594 -0.4135  0.1808
  140MOL   C18231040   2.171   3.983   7.748  0.2722 -0.3650  0.8589
  140MOL   C18331041   2.129   3.877   7.676  0.1999  0.4952 -0.6343
  140MOL   O18431042   1.995   3.853   7.663  0.0642  0.0006 -0.0077
  140MOL   H18531043   2.192   3.721   7.545  1.8012  0.2508 -0.9684
  140MOL   H18631044   2.429   3.781   7.535  0.9804 -0.0739  1.0343
  140MOL   H18731045   2.355   4.092   7.814  0.6163 -0.8213  0.1231
  140MOL   H18831046   2.102   4.042   7.806 -0.6394  0.7190 -1.2653
  140MOL   C18931047   1.888   4.036   7.355  0.0017  0.0771 -0.6493
  140MOL   C19031048   1.968   3.995   7.461  0.3952 -0.1737  0.0032
  140MOL   C19131049   1.926   3.901   7.551  0.0401  0.0438 -0.0414
  140MOL   C19231050   1.799   3.836   7.532 -0.7049 -0.2060 -0.4901
  140MOL   C19331051   1.722   3.874   7.424 -0.0762 -0.1367 -0.0753
  140MOL   C19431052   1.763   3.974   7.340  0.5274  0.0590  0.6448
  140MOL   O19531053   1.687   3.990   7.229 -0.0946  0.1306  0.9043
  140MOL   H19631054   1.926   4.113   7.290 -2.0975 -0.4875 -2.6194
  140MOL   H19731055   2.059   4.053   7.471 -0.1909  0.8656 -0.6313
  140MOL   H19831056   1.757   3.765   7.601  3.4674  0.5428  3.0082
  140MOL   H19931057   1.637   3.808   7.407 -0.3612 -0.0864  1.0543
  140MOL   C20031058   1.326   3.966   7.217  0.1636  0.0233  0.3550
  140MOL   C20131059   1.457   3.939   7.186  0.5241 -0.2859  0.1224
  140MOL   C20231060   1.554   4.019   7.248 -0.1443 -0.4718 -0.1135
  140MOL   C20331061   1.514   4.126   7.334  0.2086  0.0597 -0.3799
  140MOL   C20431062   1.378   4.155   7.365 -0.0211  0.4878  0.8208
  140MOL   C20531063   1.283   4.069   7.300  1.0180 -0.6963  0.3221
  140MOL   O20631064   1.149   4.089   7.322  0.8162  0.2107  0.2484
  140MOL   H20731065   1.257   3.898   7.168  0.7859 -1.4147  1.4141
  140MOL   H20831066   1.471   3.855   7.120 -0.1099  0.3049 -0.7903
  140MOL   H20931067   1.588   4.179   7.392 -1.9509  0.9733  1.6260
  140MOL   H21031068   1.362   4.232   7.439  1.3918  0.7926  0.8362
  140MOL   C21131069   0.871   4.293   7.225  0.5465 -0.0653 -0.0778
  140MOL   C21231070   0.949   4.187   7.280 -0.0882  0.4729 -0.5055
  140MOL   C21331071   1.082   4.184   7.257  0.1905 -0.0534 -0.4756
  140MOL   C21431072   1.145   4.278   7.168  0.2953 -0.5781 -0.1694
  140MOL   C21531073   1.065   4.364   7.095 -0.0774 -0.0837 -1.0327
  140MOL   C21631074   0.934   4.379   7.130  0.0465  0.2617  0.0916
  140MOL   O21731075   0.854   4.473   7.073  0.3076  0.4708  0.2726
  140MOL   H21831076   0.774   4.315   7.266  0.2477 -0.6903 -0.4279
  140MOL   H21931077   0.914   4.115   7.353  2.0552  0.7670  0.8459
  140MOL   H22031078   1.251   4.271   7.151  0.0563 -1.0290 -1.5079
  140MOL   H22131079   1.117   4.426   7.023  2.3400  0.4982  1.1323
  140MOL   H22231080   0.876   4.484   6.982  1.4335  1.2044  0.6189
  141MOL     C131081   3.749   6.747   1.930  0.4319 -0.1431 -0.0649
  141MOL     C231082   3.865   6.677   1.978  0.1453  0.0742  0.3365
  141MOL     C331083   3.954   6.741   2.066 -0.4418 -0.0135 -0.1002
  141MOL     C431084   3.927   6.873   2.115  0.4016  0.0753  0.3390
  141MOL     C531085   3.810   6.942   2.066 -0.0386 -0.3494  0.0706
  141MOL     C631086   3.717   6.878   1.979  0.2367  0.1098  0.3224
  141MOL     O731087   3.612   6.949   1.924 -0.4362  0.1671 -0.2144
  141MOL     H831088   3.682   6.699   1.861  0.7086 -1.6383  0.6951
  141MOL     H931089   3.889   6.578   1.944 -2.7546 -0.9823  1.1887
  141MOL    H1031090   3.997   6.919   2.183 -1.7599  0.4811  2.3364
  141MOL    H1131091   3.786   7.038   2.111  0.3744 -0.4664  0.5440
  141MOL    H1231092   4.041   6.688   2.101 -0.7260 -0.0725  0.5460
  141MOL    C1331093   3.696   7.070   1.592  0.0160  0.0883 -0.0997
  141MOL    C1431094   3.711   7.003   1.710 -0.4498 -0.2883 -0.0311
  141MOL    C1531095   3.624   7.034   1.818 -0.9038 -0.0027  0.7171
  141MOL    C1631096   3.534   7.142   1.806  0.3400  0.1492 -0.0636
  141MOL    C1731097   3.527   7.222   1.694  0.2309  0.4731  0.5223
  141MOL    C1831098   3.608   7.182   1.577  0.0414 -0.1986 -0.4458
  141MOL    O1931099   3.581   7.237   1.455 -0.6447 -0.6030 -0.1324
  141MOL    H2031100   3.746   7.047   1.499  1.9071  0.8274  0.7194
  141MOL    H2131101   3.778   6.918   1.717 -2.0421 -1.7954 -2.5843
  141MOL    H2231102   3.474   7.167   1.891 -0.9091  1.5914 -1.3422
  141MOL    H2331103   3.459   7.306   1.683 -0.3538 -0.0983 -0.2854
  141MOL    C2431104   3.531   7.560   1.298  0.2372 -0.0104 -0.7108
  141MOL    C2531105   3.511   7.427   1.334  0.3736 -0.7606  0.6400
  141MOL    C2631106   3.597   7.372   1.432 -0.7743  0.0798  0.4425
  141MOL    C2731107   3.703   7.446   1.482 -0.1157  0.3467 -0.6003
  141MOL    C2831108   3.724   7.578   1.441 -0.0052 -0.2541  0.0020
  141MOL    C2931109   3.633   7.639   1.348 -1.2813  0.3343 -0.5361
  141MOL    O3031110   3.654   7.761   1.298 -0.1260 -0.2528 -0.1603
  141MOL    H3131111   3.465   7.601   1.223  2.6112  1.5921 -1.9848
  141MOL    H3231112   3.441   7.362   1.284  0.4321  0.3746 -0.9376
  141MOL    H3331113   3.775   7.402   1.549 -0.0406 -1.8919 -2.1063
  141MOL    H3431114   3.814   7.628   1.473  1.6698 -2.3380 -1.3096
  141MOL    C3531115   3.634   7.950   0.984 -0.4079  0.5232 -0.1791
  141MOL    C3631116   3.627   7.916   1.121 -0.6579 -0.3979  0.0863
  141MOL    C3731117   3.661   7.788   1.162  0.0775  0.0456  0.3484
  141MOL    C3831118   3.693   7.689   1.067 -0.1784  0.6921  0.0820
  141MOL    C3931119   3.691   7.721   0.933 -0.1834  0.3083  0.0992
  141MOL    C4031120   3.672   7.854   0.890 -0.5286  0.1394 -0.3023
  141MOL    O4131121   3.682   7.888   0.760 -0.5038  0.3402 -0.6693
  141MOL    H4231122   3.610   8.051   0.953 -3.3063 -0.2097 -0.4736
  141MOL    H4331123   3.602   7.996   1.189  0.3898  1.2757 -1.4544
  141MOL    H4431124   3.727   7.592   1.098 -2.1616 -0.2762 -0.6942
  141MOL    H4531125   3.724   7.649   0.860 -0.3687 -0.8974  1.1818
  141MOL    C4631126   3.949   7.717   0.568  0.1881  0.4325 -0.0451
  141MOL    C4731127   3.825   7.740   0.621  0.2006 -0.6103  0.9749
  141MOL    C4831128   3.802   7.861   0.697 -0.1353  0.5341  0.0701
  141MOL    C4931129   3.905   7.950   0.704  0.1935  0.6358 -0.6230
  141MOL    C5031130   4.029   7.932   0.643 -0.3023  0.3081  1.0241
  141MOL    C5131131   4.049   7.817   0.570 -0.8280 -0.2471 -0.2190
  141MOL    O5231132   4.175   7.788   0.527  0.5708 -0.3598  0.0160
  141MOL    H5331133   3.974   7.624   0.519  0.7166  0.2727  0.5205
  141MOL    H5431134   3.747   7.667   0.610 -1.0928  0.6658  1.5650
  141MOL    H5531135   3.897   8.036   0.769  2.7253 -0.8471  1.7218
  141MOL    H5631136   4.103   8.010   0.656 -0.9241  1.3822 -1.5764
  141MOL    C5731137   4.196   7.984   0.208 -0.1565 -0.6804  0.2499
  141MOL    C5831138   4.166   7.945   0.344  0.1891 -0.1052  0.0577
  141MOL    C5931139   4.215   7.830   0.402 -0.3575  0.1542 -0.7231
  141MOL    C6031140   4.301   7.752   0.319  0.4404  0.4419 -0.6801
  141MOL    C6131141   4.339   7.794   0.185  0.2712  0.3417  0.3799
  141MOL    C6231142   4.284   7.907   0.125  0.0414 -0.0125  0.3144
  141MOL    O6331143   4.318   7.958   0.002  0.3275  0.2997 -0.3777
  141MOL    H6431144   4.153   8.073   0.165  3.7320  1.5538  0.7030
  141MOL    H6531145   4.090   8.003   0.393  0.3745  0.2743 -0.0925
  141MOL    H6631146   4.331   7.653   0.351  2.5732  0.6706 -1.8537
  141MOL    H6731147   4.392   7.725   0.120  0.6690  3.0963 -2.3727
  141MOL    C6831148   4.098   7.754   8.033  0.6788  0.1210 -0.3579
  141MOL    C6931149   4.137   7.832   8.144  0.2806 -0.6211 -0.5432
  141MOL    C7031150   4.270   7.883   8.143  0.3046 -0.3682 -0.6618
  141MOL    C7131151   4.357   7.857   8.037  0.5831  0.5235  0.4322
  141MOL    C7231152   4.315   7.782   7.926  0.1587  0.1212 -0.7849
  141MOL    C7331153   4.186   7.730   7.919  0.2306 -0.3138 -0.8569
  141MOL    O7431154   4.134   7.673   7.811 -0.2661  0.3713 -0.3489
  141MOL    H7531155   4.003   7.703   8.033  0.6235  0.2203  0.1828
  141MOL    H7631156   4.084   7.824   8.238  1.5805 -0.1325  0.2452
  141MOL    H7731157   4.455   7.901   8.037  1.6504 -1.6646 -3.0472
  141MOL    H7831158   4.373   7.777   7.835  1.0242  1.1014 -0.2901
  141MOL    C7931159   4.285   7.351   7.721 -0.0322 -0.5795 -0.2515
  141MOL    C8031160   4.271   7.489   7.744  0.2576  0.4777  0.3370
  141MOL    C8131161   4.147   7.539   7.795 -0.8622 -0.2295  0.5145
  141MOL    C8231162   4.049   7.449   7.840 -0.1652 -0.3462  0.2240
  141MOL    C8331163   4.072   7.310   7.825 -1.2001  0.0903  0.3141
  141MOL    C8431164   4.193   7.263   7.766  0.1518 -0.4173  0.8932
  141MOL    O8531165   4.209   7.131   7.731 -0.0867 -0.2355 -0.2991
  141MOL    H8631166   4.373   7.313   7.671  0.8210 -1.5256  1.8650
  141MOL    H8731167   4.349   7.557   7.713  0.6000  0.0567  0.2857
  141MOL    H8831168   3.958   7.484   7.886  0.1364 -0.1272  0.6629
  141MOL    H8931169   3.996   7.235   7.843  0.7617 -2.1431 -0.3502
  141MOL    C9031170   4.210   6.938   7.410 -0.0355 -0.1982 -0.3402
  141MOL    C9131171   4.244   6.976   7.544  1.3257  0.1179  0.0837
  141MOL    C9231172   4.186   7.096   7.597 -0.3558  0.0223  0.4263
  141MOL    C9331173   4.098   7.171   7.512  0.2383  0.2114  0.1275
  141MOL    C9431174   4.066   7.126   7.379  0.7953 -0.1478 -0.5130
  141MOL    C9531175   4.122   7.010   7.328 -0.1204 -0.3711  0.3851
  141MOL    O9631176   4.105   6.961   7.201  0.3643 -0.5696  0.4868
  141MOL    H9731177   4.248   6.839   7.385 -0.0528 -0.9198  2.3417
  141MOL    H9831178   4.301   6.915   7.613  2.7323  0.2374 -0.9544
  141MOL    H9931179   4.061   7.266   7.546 -0.5477 -0.5597  1.4569
  141MOL   H10031180   3.983   7.172   7.326 -0.3361  0.6082  1.8216
  141MOL   C10131181   4.176   7.231   6.960 -1.1024  0.8878 -0.1220
  141MOL   C10231182   4.191   7.141   7.072  0.4337 -0.1233  0.0624
  141MOL   C10331183   4.098   7.045   7.096 -0.2214 -0.5031 -0.1080
  141MOL   C10431184   3.987   7.031   7.014  0.5064  0.7482 -0.0465
  141MOL   C10531185   3.978   7.107   6.894  0.4085  0.4123 -0.9838
  141MOL   C10631186   4.076   7.203   6.863  1.0741 -0.2467 -0.0320
  141MOL   O10731187   4.081   7.267   6.740 -0.1866  0.7391  0.2559
  141MOL   H10831188   4.254   7.303   6.940  0.5507 -0.2835  1.8924
  141MOL   H10931189   4.268   7.163   7.146 -0.8081  1.1205  1.0233
  141MOL   H11031190   3.917   6.952   7.036  2.0703 -0.7057 -0.2449
  141MOL   H11131191   3.891   7.097   6.831 -0.5132  3.8467 -0.3531
  141MOL   C11231192   3.907   7.590   6.801  0.1633 -0.5668 -0.1409
  141MOL   C11331193   3.931   7.451   6.793  0.2931 -0.0522  0.1681
  141MOL   C11431194   4.054   7.405   6.739 -0.1881 -0.0935 -0.7136
  141MOL   C11531195   4.154   7.488   6.704  0.4529 -0.0520  0.7528
  141MOL   C11631196   4.139   7.626   6.721 -0.0694  1.2781  0.6837
  141MOL   C11731197   4.012   7.676   6.767  0.1608 -0.2408 -0.7521
  141MOL   O11831198   4.005   7.805   6.805  1.1644 -0.3787 -0.0334
  141MOL   H11931199   3.813   7.616   6.848  0.5595 -1.3752  1.1330
  141MOL   H12031200   3.850   7.387   6.824  1.7897 -1.6198  0.9043
  141MOL   H12131201   4.237   7.441   6.653  1.2314 -0.6799  2.5681
  141MOL   H12231202   4.223   7.695   6.716  1.6808 -0.7292  1.5467
  141MOL   C12331203   3.951   8.102   6.584  0.4560  0.3350 -0.0106
  141MOL   C12431204   4.008   7.986   6.647 -0.3942 -0.1187 -0.3756
  141MOL   C12531205   3.934   7.901   6.732  0.4071  1.1624  0.0699
  141MOL   C12631206   3.802   7.940   6.758  0.6471  0.3994 -0.4172
  141MOL   C12731207   3.739   8.049   6.692  0.3474 -0.2440  0.2059
  141MOL   C12831208   3.813   8.133   6.609 -0.0201  0.6956  0.2247
  141MOL   O12931209   3.755   8.244   6.548 -0.5075  0.1450  0.3552
  141MOL   H13031210   4.019   8.156   6.520  1.2126  0.1635  0.6456
  141MOL   H13131211   4.107   7.956   6.617  0.3823  1.6598  0.3558
  141MOL   H13231212   3.733   7.887   6.821  1.0883 -1.1605 -1.2400
  141MOL   H13331213   3.635   8.077   6.701 -0.6989 -3.6634 -0.4229
  141MOL   C13431214   3.956   0.285   6.636 -0.4091  0.0885  0.4093
  141MOL   C13531215   3.920   0.158   6.590 -0.1796  0.4389 -0.0509
  141MOL   C13631216   3.788   0.116   6.588  0.3434  0.2459 -0.2004
  141MOL   C13731217   3.686   0.200   6.629  0.0555 -0.4479 -0.2894
  141MOL   C13831218   3.721   0.332   6.670  0.5241 -0.1840  0.4160
  141MOL   C13931219   3.859   0.372   6.682  0.6649 -0.3702 -0.1205
  141MOL   O14031220   3.891   0.499   6.729  0.1548  0.4368 -0.2267
  141MOL   H14131221   4.056   0.323   6.651 -0.5767  0.2126  1.2656
  141MOL   H14231222   4.004   0.101   6.552  0.3856  1.5093 -0.4337
  141MOL   H14331223   3.582   0.173   6.644 -0.3434 -0.6950 -3.1400
  141MOL   H14431224   3.648   0.402   6.708 -0.8481 -0.4608 -1.6540
  141MOL   C14531225   4.011   0.424   7.068  0.4108 -0.2815  0.3806
  141MOL   C14631226   3.972   0.401   6.934 -0.4165 -0.4488  0.1086
  141MOL   C14731227   3.930   0.514   6.862 -0.3104 -0.5726 -0.0664
  141MOL   C14831228   3.939   0.644   6.915 -0.0228  0.0134 -1.2787
  141MOL   C14931229   3.969   0.660   7.053 -0.3483  0.2418 -0.7502
  141MOL   C15031230   4.003   0.549   7.131  0.6813  0.7279  0.3316
  141MOL   O15131231   4.022   0.548   7.269 -0.5047  0.1686  0.0230
  141MOL   H15231232   4.038   0.346   7.137  1.9898 -0.3240 -0.2681
  141MOL   H15331233   3.960   0.300   6.897 -0.2581 -0.6896  0.7035
  141MOL   H15431234   3.920   0.732   6.855  0.6539  2.0387  1.3390
  141MOL   H15531235   3.968   0.758   7.098 -0.8835 -0.0810 -0.0478
  141MOL   C15631236   3.722   0.600   7.471 -0.3564 -0.5995 -0.1645
  141MOL   C15731237   3.821   0.537   7.395  0.6460  0.2847  0.0790
  141MOL   C15831238   3.932   0.609   7.347 -0.2954 -0.5374 -0.7074
  141MOL   C15931239   3.944   0.749   7.376 -0.2292 -0.2207 -0.0798
  141MOL   C16031240   3.843   0.815   7.446 -0.5218 -0.3065  0.3506
  141MOL   C16131241   3.739   0.740   7.496  0.2839  0.3004  0.1652
  141MOL   O16231242   3.652   0.796   7.591  0.2362 -0.1877  0.0177
  141MOL   H16331243   3.633   0.551   7.509 -0.9369  0.8064  0.3403
  141MOL   H16431244   3.809   0.434   7.363  0.3516  0.0964  0.7910
  141MOL   H16531245   4.024   0.804   7.328 -0.4273  1.0223  0.9886
  141MOL   H16631246   3.859   0.922   7.452  1.2445 -0.5956  1.0644
  141MOL   C16731247   3.719   0.974   7.900 -0.0459  0.2983 -0.7561
  141MOL   C16831248   3.688   0.872   7.805  0.3128 -0.8425 -0.1436
  141MOL   C16931249   3.683   0.901   7.668 -0.0647  0.6973 -0.0834
  141MOL   C17031250   3.687   1.033   7.621  0.7083  0.3259  0.0855
  141MOL   C17131251   3.698   1.132   7.716  0.3038  1.0216 -0.4668
  141MOL   C17231252   3.726   1.105   7.853  0.1968 -0.4159 -0.1911
  141MOL   O17331253   3.748   1.212   7.944 -0.3401 -0.6194  0.9850
  141MOL   H17431254   3.738   0.947   8.003  0.2300  0.1104 -0.8558
  141MOL   H17531255   3.683   0.774   7.848  0.0750 -0.2370  1.2211
  141MOL   H17631256   3.685   1.053   7.515 -0.8758 -0.1813  0.0084
  141MOL   H17731257   3.703   1.235   7.683  0.5930  0.6890 -1.4674
  141MOL   C17831258   3.950   1.125   8.248  0.3119 -0.0388  0.1419
  141MOL   C17931259   3.846   1.169   8.165 -0.6063 -0.1114  0.0059
  141MOL   C18031260   3.856   1.191   8.028  0.0722  0.2616 -0.0136
  141MOL   C18131261   3.984   1.176   7.975  0.2054 -0.1539 -0.2177
  141MOL   C18231262   4.091   1.140   8.049 -0.7245 -0.2519  0.0440
  141MOL   C18331263   4.077   1.114   8.187 -0.5876 -0.8632  0.7335
  141MOL   O18431264   4.179   1.064   0.010  0.1241  0.4403  0.0869
  141MOL   H18531265   3.936   1.096   0.097  0.8531  0.6340  0.4130
  141MOL   H18631266   3.751   1.186   8.214 -0.4271  2.0406 -0.3450
  141MOL   H18731267   3.987   1.196   7.869  0.0828  0.9091 -0.0237
  141MOL   H18831268   4.189   1.127   8.004 -1.1217 -0.7357 -0.6903
  141MOL   C18931269   4.194   0.708   8.232 -0.4355  0.1270  0.3926
  141MOL   C19031270   4.144   0.835   0.005  0.6064  0.0058  0.3615
  141MOL   C19131271   4.225   0.942   8.224  0.0673 -0.0620  0.0930
  141MOL   C19231272   4.354   0.932   8.165  0.5105 -0.3102  0.5383
  141MOL   C19331273   4.402   0.803   8.142  0.0120 -0.0191 -0.6046
  141MOL   C19431274   4.322   0.694   8.169  0.5362  0.0196 -0.4852
  141MOL   O19531275   4.371   0.569   8.157  0.7297  0.2642 -0.0968
  141MOL   H19631276   4.141   0.618   0.006  0.5408 -0.7856 -0.6138
  141MOL   H19731277   4.046   0.858   0.043 -0.0609 -0.0631 -1.2668
  141MOL   H19831278   4.407   1.024   8.146  0.7237 -0.1011  2.0916
  141MOL   H19931279   4.504   0.788   8.109  1.1571  1.7567  1.9161
  141MOL   C20031280   4.411   0.411   0.233  0.1709  0.0311 -0.3673
  141MOL   C20131281   4.352   0.475   0.127  0.8013 -0.1962  0.0368
  141MOL   C20231282   4.429   0.512   0.017  0.0066  0.2390 -0.7525
  141MOL   C20331283   4.571   0.497   0.026 -0.0892 -0.3540  0.1545
  141MOL   C20431284   4.631   0.431   0.133 -0.0673  1.3876  0.6450
  141MOL   C20531285   4.552   0.382   0.238 -0.1968  0.8173 -0.3032
  141MOL   O20631286   4.601   0.312   0.336 -0.3509 -0.4193 -0.6805
  141MOL   H20731287   4.345   0.363   0.304 -0.6569  1.3092 -0.2704
  141MOL   H20831288   4.244   0.478   0.121  0.8637 -1.1074 -1.8011
  141MOL   H20931289   4.631   0.527   8.195 -1.2531 -2.5466 -1.4884
  141MOL   H21031290   4.737   0.411   0.136 -0.0499  1.2667 -0.6796
  141MOL   C21131291   4.542   0.529   0.643  0.2912 -0.3947  0.5044
  141MOL   C21231292   4.568   0.489   0.508 -0.3012  0.1514 -0.0947
  141MOL   C21331293   4.578   0.352   0.466  0.9851 -0.0531  0.3511
  141MOL   C21431294   4.560   0.255   0.568  0.5349 -0.6759 -0.2620
  141MOL   C21531295   4.527   0.298   0.701  0.4084 -1.5502  0.3154
  141MOL   C21631296   4.525   0.430   0.740 -0.3193 -0.5730 -0.3594
  141MOL   O21731297   4.488   0.467   0.862  0.2502  0.0317  0.0253
  141MOL   H21831298   4.534   0.633   0.671 -1.4836 -0.3522 -0.1237
  141MOL   H21931299   4.590   0.562   0.431  0.8044 -1.1680 -1.0580
  141MOL   H22031300   4.546   0.150   0.545 -0.9995 -0.3858 -0.7179
  141MOL   H22131301   4.502   0.228   0.781 -0.4662  0.7200  2.0935
  141MOL   H22231302   4.491   0.395   0.923  0.7509 -0.9408 -1.1387
  142MOL     C131303   2.775   6.744   5.522 -0.6438  0.5505  0.6653
  142MOL     C231304   2.856   6.847   5.473  0.3768  0.6953  0.1323
  142MOL     C331305   2.852   6.890   5.343 -0.2039  0.4869  0.1307
  142MOL     C431306   2.763   6.825   5.253 -0.3102  0.1067 -0.5062
  142MOL     C531307   2.670   6.734   5.305 -0.1595 -0.4256 -0.7057
  142MOL     C631308   2.673   6.694   5.439  0.4633  0.1517  0.4490
  142MOL     O731309   2.574   6.617   5.489  0.1650  0.0201  0.0211
  142MOL     H831310   2.783   6.713   5.625  2.0069  0.6537  0.5170
  142MOL     H931311   2.921   6.897   5.544  1.1464  1.7437 -1.2804
  142MOL    H1031312   2.758   6.848   5.147 -0.0133 -0.5805 -0.6705
  142MOL    H1131313   2.595   6.713   5.230 -2.3684  3.1190  0.3959
  142MOL    H1231314   2.904   6.978   5.307 -1.9506  1.2437 -0.6169
  142MOL    C1331315   2.318   6.820   5.646 -0.0170  0.7764 -0.7367
  142MOL    C1431316   2.403   6.759   5.553 -0.3851 -1.2429 -0.5543
  142MOL    C1531317   2.501   6.668   5.587 -0.5961  0.0934  0.5298
  142MOL    C1631318   2.514   6.635   5.725 -0.2846  0.4781 -0.4125
  142MOL    C1731319   2.428   6.700   5.820 -0.5495  0.6600 -0.4415
  142MOL    C1831320   2.322   6.782   5.781 -0.0263 -0.0957 -0.2781
  142MOL    O1931321   2.237   6.816   5.881 -0.1358 -0.5448  0.5949
  142MOL    H2031322   2.232   6.878   5.617 -1.5961 -1.2436 -0.2200
  142MOL    H2131323   2.390   6.788   5.450 -2.4605  1.2462  0.3597
  142MOL    H2231324   2.588   6.562   5.752 -0.2681 -0.1170 -2.0349
  142MOL    H2331325   2.437   6.665   5.922 -1.0317 -1.1565 -0.9984
  142MOL    C2431326   1.929   7.009   5.799 -0.3985 -0.0749  0.1794
  142MOL    C2531327   2.023   6.904   5.822  0.0976  0.6286 -0.1192
  142MOL    C2631328   2.159   6.925   5.852 -0.4029  0.0612 -0.6850
  142MOL    C2731329   2.208   7.056   5.829  0.1048 -0.2078  0.4172
  142MOL    C2831330   2.120   7.164   5.806  0.4654  0.5411  0.2969
  142MOL    C2931331   1.980   7.139   5.798  0.3885 -0.4311 -0.3351
  142MOL    O3031332   1.889   7.245   5.778 -0.3919  0.6010 -0.1889
  142MOL    H3131333   1.822   6.991   5.801 -0.1862 -1.3035  1.3558
  142MOL    H3231334   1.980   6.808   5.845 -0.1876  0.5333 -1.0399
  142MOL    H3331335   2.315   7.064   5.828  0.3053 -2.1821  2.1085
  142MOL    H3431336   2.152   7.266   5.816 -0.3767  0.8350  0.0221
  142MOL    C3531337   1.536   7.299   5.881 -0.2491  1.1290  0.1722
  142MOL    C3631338   1.655   7.288   5.804  0.3856 -0.0199  0.5808
  142MOL    C3731339   1.781   7.253   5.863 -0.0506 -0.3168  0.5323
  142MOL    C3831340   1.786   7.231   6.003  0.3093  0.0433 -0.7833
  142MOL    C3931341   1.665   7.247   6.078  0.0328  0.9464 -0.5068
  142MOL    C4031342   1.543   7.274   6.019 -0.7513  0.0229 -0.4192
  142MOL    O4131343   1.433   7.287   6.095  0.3652 -0.0265  0.2376
  142MOL    H4231344   1.447   7.332   5.831 -1.8846 -3.1768  0.0109
  142MOL    H4331345   1.659   7.318   5.700  1.9844 -0.2803  0.5454
  142MOL    H4431346   1.879   7.205   6.052  1.3580  0.0269 -2.7430
  142MOL    H4531347   1.665   7.253   6.186 -2.6416  0.1344 -0.4320
  142MOL    C4631348   1.259   6.962   6.055  0.6966  0.3637  0.0772
  142MOL    C4731349   1.362   7.054   6.066 -0.0538 -0.2008 -0.4256
  142MOL    C4831350   1.334   7.193   6.088 -0.3162 -0.4423  0.1921
  142MOL    C4931351   1.202   7.237   6.108 -0.1267  0.1861  0.0238
  142MOL    C5031352   1.100   7.142   6.100 -0.5449 -0.0560  0.9398
  142MOL    C5131353   1.126   7.010   6.060  0.6558 -0.1501  0.3975
  142MOL    O5231354   1.018   6.932   6.060  0.7965 -0.6812  0.3254
  142MOL    H5331355   1.270   6.857   6.031  1.1291  1.0660 -3.0218
  142MOL    H5431356   1.461   7.013   6.058 -0.8726 -2.1804 -0.7455
  142MOL    H5531357   1.182   7.337   6.144 -1.3462 -0.0381 -0.0231
  142MOL    H5631358   0.999   7.179   6.105 -1.1304 -1.8003  2.7894
  142MOL    C5731359   1.012   6.738   5.749  0.1022 -0.8985 -0.2629
  142MOL    C5831360   1.044   6.784   5.875 -0.4229  0.5291 -0.4085
  142MOL    C5931361   0.978   6.885   5.936 -0.0108  0.0437 -0.4727
  142MOL    C6031362   0.878   6.949   5.864 -0.2534  0.8288  0.3882
  142MOL    C6131363   0.844   6.917   5.729  0.3526  0.3853  0.9217
  142MOL    C6231364   0.906   6.802   5.676  0.7070  0.3643 -0.9045
  142MOL    O6331365   0.871   6.757   5.556 -0.4370  0.4414  0.0508
  142MOL    H6431366   1.075   6.662   5.705  1.2712 -1.4178  2.2217
  142MOL    H6531367   1.120   6.728   5.926  0.2773  1.2273 -0.6738
  142MOL    H6631368   0.834   7.037   5.909  1.4409  2.2907 -0.7833
  142MOL    H6731369   0.760   6.963   5.679 -0.9680 -1.3770  1.4886
  142MOL    C6831370   0.799   6.918   5.238 -0.2896 -0.2551 -0.0434
  142MOL    C6931371   0.786   6.828   5.346 -0.1920 -0.4401 -0.4617
  142MOL    C7031372   0.884   6.839   5.450  0.1724  0.3130  0.5218
  142MOL    C7131373   0.996   6.923   5.430 -0.8159 -0.1597 -0.7320
  142MOL    C7231374   1.015   7.004   5.314  0.3009  0.0367  0.3300
  142MOL    C7331375   0.914   7.002   5.211  0.4542  0.6114 -0.3206
  142MOL    O7431376   0.926   7.076   5.100  0.1682  0.2031 -0.1618
  142MOL    H7531377   0.711   6.920   5.174 -0.0123 -0.2866 -0.4276
  142MOL    H7631378   0.706   6.754   5.346 -1.1281  0.5609 -1.2963
  142MOL    H7731379   1.058   6.932   5.519 -3.4050 -0.0390  1.1241
  142MOL    H7831380   1.102   7.066   5.312  0.0902  0.3244  0.1381
  142MOL    C7931381   0.800   7.420   5.173 -0.1482 -0.5254  0.8919
  142MOL    C8031382   0.803   7.281   5.151 -0.2593  0.6069  0.3170
  142MOL    C8131383   0.919   7.213   5.106 -0.7446  0.0895  0.8111
  142MOL    C8231384   1.027   7.293   5.071 -0.5568 -0.3123  0.4417
  142MOL    C8331385   1.030   7.431   5.091 -0.0947 -0.1141 -0.1986
  142MOL    C8431386   0.913   7.498   5.141  0.0980  0.6065  0.0712
  142MOL    O8531387   0.914   7.632   5.149  0.2279  0.0243  0.0977
  142MOL    H8631388   0.710   7.475   5.199 -0.2888 -0.9738  1.3725
  142MOL    H8731389   0.709   7.227   5.154 -0.0843  0.2499 -0.5570
  142MOL    H8831390   1.118   7.238   5.052 -0.2466 -1.1146  3.8717
  142MOL    H8931391   1.126   7.473   5.066  1.4611 -2.3281  1.8444
  142MOL    C9031392   0.737   7.821   5.410 -0.3759 -0.0289 -0.0063
  142MOL    C9131393   0.771   7.774   5.279 -0.7442  0.3125 -0.5057
  142MOL    C9231394   0.879   7.683   5.272 -0.5442  0.8612  0.1179
  142MOL    C9331395   0.945   7.640   5.389 -0.0559  0.3236 -0.6917
  142MOL    C9431396   0.917   7.698   5.513 -0.8314 -0.1849  0.3781
  142MOL    C9531397   0.808   7.784   5.524 -0.0891  0.9431  0.3035
  142MOL    O9631398   0.763   7.834   5.648  0.1335 -0.8259 -0.1088
  142MOL    H9731399   0.659   7.896   5.411 -1.0858 -0.7733  1.3486
  142MOL    H9831400   0.727   7.819   5.191 -0.9297  0.3967 -0.3686
  142MOL    H9931401   1.009   7.553   5.387  0.6815  0.8825 -2.1717
  142MOL   H10031402   0.960   7.658   5.604 -1.3185 -0.0057  0.6880
  142MOL   C10131403   1.016   7.867   5.923 -0.4516 -0.3926 -0.2093
  142MOL   C10231404   0.913   7.811   5.842  0.0425  0.2014 -0.2170
  142MOL   C10331405   0.863   7.887   5.733 -0.1465  0.4807 -1.1204
  142MOL   C10431406   0.909   8.014   5.713  0.6511 -0.1489  0.0897
  142MOL   C10531407   1.007   8.071   5.791  0.9101 -0.4247 -0.0478
  142MOL   C10631408   1.067   7.996   5.896 -0.8868 -0.1548  0.4714
  142MOL   O10731409   1.169   8.040   5.978  0.0161  0.4170  0.1324
  142MOL   H10831410   1.058   7.810   6.004  0.2629  1.4833  0.7601
  142MOL   H10931411   0.866   7.715   5.856  1.1920 -0.2246  0.8207
  142MOL   H11031412   0.866   8.077   5.636 -2.2272 -1.1804  0.7822
  142MOL   H11131413   1.033   8.175   5.779 -0.2015 -0.0002  1.1024
  142MOL   C11231414   1.384   0.084   5.907  0.1909 -0.5008 -0.0676
  142MOL   C11331415   1.280   0.002   5.959  0.1410  0.2901 -0.5924
  142MOL   C11431416   1.262   8.122   5.918  0.4224  0.0227 -0.0457
  142MOL   C11531417   1.353   8.070   5.821 -0.1097 -0.3479  0.8083
  142MOL   C11631418   1.435   8.156   5.753 -0.1359 -0.2002  0.3691
  142MOL   C11731419   1.455   0.036   5.795  1.0760  0.7876 -0.1127
  142MOL   O11831420   1.537   0.126   5.726  0.2273  0.6190 -0.5084
  142MOL   H11931421   1.380   0.187   5.941  0.5611 -0.1205 -1.1507
  142MOL   H12031422   1.203   0.041   6.023 -0.8460  0.3370 -1.7912
  142MOL   H12131423   1.346   7.969   5.783 -2.4667  0.6459 -1.5638
  142MOL   H12231424   1.497   8.118   5.674 -1.5425  0.9551 -1.3345
  142MOL   C12331425   1.354   0.310   5.472 -0.6025  0.0933 -0.1891
  142MOL   C12431426   1.404   0.270   5.599 -0.2242 -0.5511  0.8417
  142MOL   C12531427   1.505   0.174   5.605 -1.1253  0.1405  0.0182
  142MOL   C12631428   1.578   0.143   5.489 -0.3147 -0.4771 -0.0475
  142MOL   C12731429   1.535   0.180   5.357 -0.2136  0.0949 -0.5688
  142MOL   C12831430   1.417   0.261   5.350 -0.5177  0.9073  0.8125
  142MOL   O12931431   1.357   0.288   5.231  0.2227 -0.5356 -0.9246
  142MOL   H13031432   1.269   0.376   5.461  1.4494  2.4622 -2.7632
  142MOL   H13131433   1.346   0.298   5.685 -1.5399  2.4109 -0.9188
  142MOL   H13231434   1.664   0.078   5.497 -0.3725 -0.5860 -0.3103
  142MOL   H13331435   1.590   0.141   5.272  1.7596  0.6959  0.4036
  142MOL   C13431436   1.152   8.239   5.181 -0.2137  0.4094  0.0742
  142MOL   C13531437   1.205   0.097   5.247  0.0333  0.3725  0.2994
  142MOL   C13631438   1.293   0.183   5.173 -0.1543 -0.0827 -0.2523
  142MOL   C13731439   1.304   0.161   5.035 -0.5451 -0.2962  0.8201
  142MOL   C13831440   1.247   0.047   4.967 -1.0950  0.1626 -0.6421
  142MOL   C13931441   1.179   8.205   5.044  0.7823 -0.5690 -0.3264
  142MOL   O14031442   1.114   8.099   4.986 -0.1453  0.3432  0.6680
  142MOL   H14131443   1.097   8.173   5.246  1.0269  1.0627  1.8060
  142MOL   H14231444   1.176   0.127   5.347 -1.7798 -0.1937 -0.0428
  142MOL   H14331445   1.360   0.238   4.983 -2.4281  0.0368 -0.7594
  142MOL   H14431446   1.271   0.038   4.862 -1.2609 -0.5998 -0.6165
  142MOL   C14531447   1.348   7.851   4.842  0.0475  0.8039 -0.1448
  142MOL   C14631448   1.269   7.966   4.861 -0.8364  0.2245 -0.4877
  142MOL   C14731449   1.180   7.986   4.970  0.2426  0.1216  0.7540
  142MOL   C14831450   1.163   7.879   5.059  0.1097 -0.1071 -0.3411
  142MOL   C14931451   1.239   7.766   5.046 -0.4881 -0.1449 -0.2334
  142MOL   C15031452   1.325   7.747   4.939 -0.4556 -0.6483 -0.1886
  142MOL   O15131453   1.389   7.630   4.930  0.6903  0.3602  0.6634
  142MOL   H15231454   1.409   7.833   4.755 -0.7815  0.7451 -0.7117
  142MOL   H15331455   1.285   8.056   4.803  1.4014  0.4421  0.4216
  142MOL   H15431456   1.099   7.892   5.145  0.4701 -2.9399  0.3898
  142MOL   H15531457   1.228   7.684   5.116  0.1541  0.7605  0.9343
  142MOL   C15631458   1.751   7.671   4.856  0.2168  0.0604  0.0591
  142MOL   C15731459   1.630   7.670   4.927 -0.0725  0.1959  0.4586
  142MOL   C15831460   1.509   7.615   4.875 -0.1349  0.2482  0.2401
  142MOL   C15931461   1.516   7.536   4.760 -0.1146 -0.8202 -0.1692
  142MOL   C16031462   1.634   7.535   4.689  0.0236  0.4076  0.3384
  142MOL   C16131463   1.752   7.600   4.741  0.4905 -0.0825  0.4433
  142MOL   O16231464   1.876   7.584   4.674  0.8677  0.0226  0.0782
  142MOL   H16331465   1.840   7.701   4.909  0.2031 -0.4370  0.3691
  142MOL   H16431466   1.620   7.724   5.020  3.8877  1.1879  0.3837
  142MOL   H16531467   1.425   7.493   4.720  0.7845 -1.2592 -1.7727
  142MOL   H16631468   1.646   7.490   4.592 -0.7180 -0.8884  0.8506
  142MOL   C16731469   1.905   7.916   4.495  0.3091 -0.0299  0.0829
  142MOL   C16831470   1.851   7.811   4.569 -0.2205  0.9149 -0.1948
  142MOL   C16931471   1.923   7.695   4.608 -0.8431  0.4776 -0.1092
  142MOL   C17031472   2.053   7.684   4.553 -0.1155 -0.2222 -0.6526
  142MOL   C17131473   2.107   7.788   4.470 -0.6401  0.7931  0.1960
  142MOL   C17231474   2.035   7.907   4.448  0.1379  0.0707  0.4513
  142MOL   O17331475   2.087   8.018   4.385 -0.1830 -0.0946 -0.3228
  142MOL   H17431476   1.840   8.000   4.475  0.8708  0.6525  1.0920
  142MOL   H17531477   1.746   7.818   4.595 -0.7627 -0.4113 -1.9479
  142MOL   H17631478   2.109   7.593   4.564  2.1404  0.9031 -2.2959
  142MOL   H17731479   2.197   7.761   4.417 -0.0410  2.7076  0.2196
  142MOL   C17831480   2.426   7.999   4.251  0.2480 -0.0361  0.6489
  142MOL   C17931481   2.320   8.022   4.347 -0.1979 -0.7069  0.0445
  142MOL   C18031482   2.187   8.003   4.298 -0.1518  0.0613 -0.7811
  142MOL   C18131483   2.159   7.971   4.167  0.2273 -0.6870 -0.2885
  142MOL   C18231484   2.267   7.965   4.079  0.3538 -0.3259  0.8087
  142MOL   C18331485   2.404   7.972   4.122 -0.1465  0.3467  0.5729
  142MOL   O18431486   2.501   7.940   4.030 -0.1920  0.6893  0.2916
  142MOL   H18531487   2.529   8.008   4.284  0.3376 -1.4742  0.7950
  142MOL   H18631488   2.333   8.053   4.449 -1.4927  1.3392 -0.3791
  142MOL   H18731489   2.056   7.957   4.137  0.5947 -1.0344 -1.4077
  142MOL   H18831490   2.244   7.957   3.974  1.7222  0.8389  0.4009
  142MOL   C18931491   2.681   8.244   3.921  0.5629 -0.3319  0.7034
  142MOL   C19031492   2.641   8.135   3.999 -0.8073  0.2064 -0.2106
  142MOL   C19131493   2.544   8.043   3.953 -0.0061 -0.2523  0.1929
  142MOL   C19231494   2.489   8.059   3.826  0.2939  0.1157 -0.3944
  142MOL   C19331495   2.520   8.175   3.751 -0.1639 -0.0494  0.4269
  142MOL   C19431496   2.615   0.013   3.793  0.3706  0.0037 -0.0433
  142MOL   O19531497   2.633   0.124   3.711 -0.0971 -0.2851  0.3066
  142MOL   H19631498   2.758   0.061   3.948 -0.5394  1.8573 -1.6030
  142MOL   H19731499   2.679   8.124   4.100 -2.7465  2.2364  0.7756
  142MOL   H19831500   2.421   7.982   3.794 -1.6080  2.0570 -1.1819
  142MOL   H19931501   2.464   8.184   3.660  0.1566 -3.5265 -0.2043
  142MOL   C20031502   2.433   0.416   3.820  0.1408  0.4322 -0.5517
  142MOL   C20131503   2.467   0.287   3.769 -0.3375 -0.2789  0.1138
  142MOL   C20231504   2.600   0.248   3.758 -0.0145 -0.1448 -0.0245
  142MOL   C20331505   2.704   0.340   3.796 -0.2670 -0.0713 -0.3995
  142MOL   C20431506   2.666   0.466   3.851 -0.2616  0.3178 -0.4591
  142MOL   C20531507   2.535   0.502   3.860 -0.3741  0.1453 -0.0175
  142MOL   O20631508   2.512   0.633   3.900  0.0759 -0.4942  0.5979
  142MOL   H20731509   2.332   0.440   3.850  1.4005  0.8416  3.7240
  142MOL   H20831510   2.389   0.215   3.746 -3.2225  2.9696 -0.7660
  142MOL   H20931511   2.808   0.312   3.796  0.1563  1.4623 -0.2472
  142MOL   H21031512   2.745   0.535   3.877  0.6909 -0.9128 -0.0275
  142MOL   C21131513   2.712   0.923   3.798  0.1638  0.2887  0.3272
  142MOL   C21231514   2.666   0.816   3.876  0.5609 -0.2694  0.2133
  142MOL   C21331515   2.571   0.726   3.826 -0.0359 -0.2818 -0.0712
  142MOL   C21431516   2.537   0.745   3.687  0.6392 -0.1662 -0.0481
  142MOL   C21531517   2.583   0.849   3.609  0.3131 -0.9151 -0.3550
  142MOL   C21631518   2.673   0.940   3.667  0.3889 -0.3727  0.1797
  142MOL   O21731519   2.728   1.043   3.597  0.4236 -0.0071 -0.4921
  142MOL   H21831520   2.776   0.997   3.842  0.8146 -0.3887  0.5131
  142MOL   H21931521   2.705   0.807   3.976  0.1045  2.5894  0.6919
  142MOL   H22031522   2.472   0.679   3.632 -0.8085 -0.3281  1.8293
  142MOL   H22131523   2.551   0.866   3.507 -2.7326 -1.5324  0.4337
  142MOL   H22231524   2.714   1.051   3.503  0.2131  3.6901 -0.2199
  143MOL     C131525   4.058   4.738   0.159  0.9019  0.0989 -1.0096
  143MOL     C231526   4.055   4.879   0.147  0.3636  0.8445 -0.9159
  143MOL     C331527   4.144   4.942   0.063  0.1909  0.0282  0.0979
  143MOL     C431528   4.226   4.871   8.226 -0.8027  0.2716 -0.3465
  143MOL     C531529   4.222   4.731   8.239  0.9589 -0.6670 -0.6559
  143MOL     C631530   4.150   4.665   0.086  0.7000  0.1115 -0.4638
  143MOL     O731531   4.170   4.532   0.110 -0.6932 -0.3438 -0.6057
  143MOL     H831532   3.992   4.701   0.236  2.5935 -0.9526 -0.0122
  143MOL     H931533   3.989   4.942   0.205  1.4545  1.1744 -0.0069
  143MOL    H1031534   4.294   4.918   8.157 -2.0108  1.5644 -0.6756
  143MOL    H1131535   4.283   4.666   8.176 -1.2785 -2.5013 -1.0105
  143MOL    H1231536   4.134   5.049   0.053  1.7834  0.1715 -0.1245
  143MOL    C1331537   3.938   4.329   8.158  0.4235 -0.5690  0.5695
  143MOL    C1431538   4.024   4.431   8.199 -0.5970 -0.3165 -0.1392
  143MOL    C1531539   4.085   4.432   0.074  0.3598  0.1106 -0.1926
  143MOL    C1631540   4.051   4.335   0.168 -0.9058 -0.4858  0.7038
  143MOL    C1731541   3.972   4.227   0.127 -0.8156  0.1039 -0.2213
  143MOL    C1831542   3.917   4.230   0.001 -0.0475  0.1436 -0.1800
  143MOL    O1931543   3.839   4.129   8.210  0.1111  0.2861  0.7095
  143MOL    H2031544   3.895   4.323   8.059 -3.2902  0.6832  2.0149
  143MOL    H2131545   4.063   4.506   8.131 -0.0545  0.4924  1.0542
  143MOL    H2231546   4.093   4.344   0.267  1.3604  1.3680 -0.3830
  143MOL    H2331547   3.963   4.144   0.195  2.7709 -0.2965 -0.1116
  143MOL    C2431548   3.484   4.158   0.063  0.3569 -0.2297 -0.1230
  143MOL    C2531549   3.613   4.201   0.028 -0.1487  0.1971  0.2920
  143MOL    C2631550   3.713   4.105   0.007  0.6081  0.3378  0.4537
  143MOL    C2731551   3.687   3.972   0.038 -0.1884  0.6661 -0.1928
  143MOL    C2831552   3.558   3.923   0.075 -0.1692  0.2595 -0.3090
  143MOL    C2931553   3.455   4.019   0.081 -0.3233 -0.7049  0.4341
  143MOL    O3031554   3.333   3.970   0.109  0.0550  0.1202  0.2136
  143MOL    H3131555   3.410   4.232   0.089  0.3375 -0.4734  0.5175
  143MOL    H3231556   3.632   4.305   0.006  0.6507 -0.1497 -0.7630
  143MOL    H3331557   3.774   3.909   0.028  0.1043  1.5887 -4.2538
  143MOL    H3431558   3.542   3.821   0.105 -0.9121  0.6816  0.7729
  143MOL    C3531559   3.111   4.097   0.372  0.3685  0.1547 -0.1786
  143MOL    C3631560   3.167   4.076   0.243  0.3285  0.8371 -0.0833
  143MOL    C3731561   3.284   3.998   0.230 -0.1290  0.6569 -0.3760
  143MOL    C3831562   3.354   3.960   0.343 -0.0408 -0.4590  0.5307
  143MOL    C3931563   3.304   3.985   0.470  0.1863  0.2499  0.2620
  143MOL    C4031564   3.183   4.053   0.491 -0.1424 -0.4787  0.3246
  143MOL    O4131565   3.134   4.094   0.617  0.1297 -0.1910  0.2021
  143MOL    H4231566   3.022   4.157   0.381  0.0758 -0.1903 -0.7080
  143MOL    H4331567   3.116   4.110   0.155 -2.1152 -1.0577  0.5265
  143MOL    H4431568   3.453   3.917   0.333  0.0192  0.2887 -2.6157
  143MOL    H4531569   3.368   3.970   0.556  0.8922  1.3238 -0.0749
  143MOL    C4631570   3.351   4.348   0.764 -0.7745 -0.3965 -0.1379
  143MOL    C4731571   3.310   4.227   0.699 -0.0571 -0.3327  0.2693
  143MOL    C4831572   3.178   4.214   0.664  0.1046  0.0897 -0.0785
  143MOL    C4931573   3.091   4.324   0.681  0.3545 -0.5362 -0.4204
  143MOL    C5031574   3.126   4.444   0.752 -0.0176  0.2251 -0.6071
  143MOL    C5131575   3.258   4.453   0.800  0.1870  0.5620 -0.3774
  143MOL    O5231576   3.289   4.572   0.868  0.2053  0.1610  0.4668
  143MOL    H5331577   3.455   4.363   0.788 -0.6147  1.2406 -1.7699
  143MOL    H5431578   3.374   4.143   0.678 -0.4698 -0.9592  1.4656
  143MOL    H5531579   2.990   4.320   0.642  0.3791  0.6856 -0.6384
  143MOL    H5631580   3.057   4.525   0.773  0.5933  0.0949  2.0631
  143MOL    C5731581   3.636   4.583   0.996  0.0656  0.5820 -0.0558
  143MOL    C5831582   3.500   4.549   0.984 -0.5838  0.0989  0.3209
  143MOL    C5931583   3.420   4.605   0.882  0.3432  0.2569  0.1918
  143MOL    C6031584   3.482   4.689   0.784  0.5037  0.3473  0.3896
  143MOL    C6131585   3.622   4.706   0.784 -0.3667  0.3334 -0.0758
  143MOL    C6231586   3.694   4.655   0.894  0.3830  0.1618 -0.0604
  143MOL    O6331587   3.831   4.674   0.902 -0.0884  0.1869  0.3235
  143MOL    H6431588   3.698   4.550   1.078  1.9450  2.1930 -0.8154
  143MOL    H6531589   3.451   4.493   1.062 -0.5753  0.5604  0.6628
  143MOL    H6631590   3.426   4.732   0.702  1.1658 -0.4468 -0.4847
  143MOL    H6731591   3.677   4.761   0.710 -0.1591 -0.6265 -0.6525
  143MOL    C6831592   3.967   4.375   0.736 -0.4395 -0.7584  0.7178
  143MOL    C6931593   3.883   4.474   0.780  0.1419 -0.3482 -0.2876
  143MOL    C7031594   3.915   4.566   0.880  0.1010  0.3965  0.0473
  143MOL    C7131595   4.038   4.553   0.939  0.0808  0.3650 -0.7645
  143MOL    C7231596   4.130   4.454   0.902  0.7436 -0.7269  0.0532
  143MOL    C7331597   4.100   4.370   0.795  0.4482  0.2347  0.6581
  143MOL    O7431598   4.201   4.283   0.745 -0.4399 -0.4104 -0.5511
  143MOL    H7531599   3.942   4.304   0.659 -0.9648  0.3739 -0.1719
  143MOL    H7631600   3.784   4.485   0.738 -0.7810  0.8694  2.1140
  143MOL    H7731601   4.064   4.632   1.008 -0.1289  2.1435 -2.6638
  143MOL    H7831602   4.218   4.431   0.962  0.1321  0.5016  1.4759
  143MOL    C7931603   4.077   3.947   0.845  0.3905  0.7228 -0.4734
  143MOL    C8031604   4.084   4.086   0.837  0.4857 -0.3481 -0.3145
  143MOL    C8131605   4.174   4.152   0.745  0.0755  0.5620  0.0014
  143MOL    C8231606   4.245   4.068   0.657 -0.2475 -0.0553 -0.1690
  143MOL    C8331607   4.244   3.930   0.673  0.7599 -0.0101 -0.1564
  143MOL    C8431608   4.159   3.868   0.768  0.3487 -0.1397  0.2266
  143MOL    O8531609   4.163   3.733   0.780 -0.6394  0.2331  0.8694
  143MOL    H8631610   4.014   3.904   0.921  1.3818  1.4477  0.7725
  143MOL    H8731611   4.025   4.149   0.901  1.7554  0.8151 -0.2570
  143MOL    H8831612   4.322   4.096   0.586  0.6499 -1.1933  0.3451
  143MOL    H8931613   4.311   3.864   0.619 -1.3077 -0.5634 -2.0837
  143MOL    C9031614   3.937   3.591   0.528  0.6765  0.0229 -0.1830
  143MOL    C9131615   3.991   3.680   0.627  0.5976 -0.0685  0.9319
  143MOL    C9231616   4.118   3.660   0.672 -0.1194  0.1843 -0.6725
  143MOL    C9331617   4.200   3.555   0.624  0.3992  0.2852 -0.2120
  143MOL    C9431618   4.153   3.472   0.521 -0.6310  0.0188  0.3825
  143MOL    C9531619   4.022   3.492   0.470  1.0080 -0.2685 -0.1400
  143MOL    O9631620   3.986   3.415   0.362  0.0826  0.0022 -0.0960
  143MOL    H9731621   3.838   3.597   0.484  1.4282  1.8519 -1.6652
  143MOL    H9831622   3.930   3.762   0.663  0.0014 -0.3536  0.5955
  143MOL    H9931623   4.300   3.546   0.663 -0.1206 -0.0765  1.0910
  143MOL   H10031624   4.218   3.406   0.465 -0.8406  0.7978 -0.8166
  143MOL   C10131625   3.748   3.449   0.087 -0.3918 -0.1422  0.4307
  143MOL   C10231626   3.823   3.388   0.189 -0.1936 -0.9153  0.5327
  143MOL   C10331627   3.923   3.468   0.252 -0.6189  0.0430  0.4264
  143MOL   C10431628   3.951   3.595   0.204 -0.1045 -0.0967  0.0760
  143MOL   C10531629   3.883   3.653   0.094 -0.0666 -0.2289  0.0454
  143MOL   C10631630   3.782   3.577   0.034 -0.4240 -0.0304 -1.3221
  143MOL   O10731631   3.705   3.624   8.184  0.7774 -0.1628 -0.0404
  143MOL   H10831632   3.670   3.397   0.034 -0.3039  2.1988 -2.1189
  143MOL   H10931633   3.797   3.285   0.206  0.3895 -1.1692 -0.0663
  143MOL   H11031634   4.027   3.659   0.246 -0.5689  2.6245 -3.0784
  143MOL   H11131635   3.920   3.747   0.055 -1.8299  0.0721 -0.9469
  143MOL   C11231636   3.745   3.366   7.911  0.0743  0.4857  0.5396
  143MOL   C11331637   3.760   3.428   8.036 -0.3145 -0.2300 -0.2339
  143MOL   C11431638   3.694   3.555   8.063 -0.6795  0.1336  0.2812
  143MOL   C11531639   3.621   3.612   7.961 -0.0120 -0.3587  0.0225
  143MOL   C11631640   3.592   3.537   7.844  0.3092 -0.7181 -0.6131
  143MOL   C11731641   3.658   3.418   7.810  0.7707  0.4703  0.3519
  143MOL   O11831642   3.648   3.354   7.690 -0.1944 -0.5124  0.1942
  143MOL   H11931643   3.799   3.274   7.895 -1.0317 -0.0142 -0.2964
  143MOL   H12031644   3.836   3.388   8.102 -0.2768  0.3716  0.0808
  143MOL   H12131645   3.558   3.698   7.981 -1.5069 -0.8191 -2.4520
  143MOL   H12231646   3.523   3.583   7.775 -1.9526  0.1704  2.1817
  143MOL   C12331647   3.326   3.165   7.711  1.0949  0.8568 -0.3378
  143MOL   C12431648   3.439   3.234   7.756 -0.0310  0.0481  0.3289
  143MOL   C12531649   3.534   3.283   7.657  0.6164  0.8703  0.0598
  143MOL   C12631650   3.525   3.239   7.524  0.4814  0.1473  0.1362
  143MOL   C12731651   3.411   3.173   7.482  0.2869  0.3681  0.0849
  143MOL   C12831652   3.307   3.138   7.574 -0.6885  0.7801  0.6473
  143MOL   O12931653   3.197   3.062   7.526 -0.4704 -0.6742  0.3835
  143MOL   H13031654   3.249   3.134   7.780  1.6145  0.8584  0.2439
  143MOL   H13131655   3.448   3.253   7.862  1.3012 -0.0949  0.2502
  143MOL   H13231656   3.595   3.270   7.448  1.5087  0.5650  1.2343
  143MOL   H13331657   3.403   3.137   7.381  0.2785 -1.7154  0.7941
  143MOL   C13431658   3.056   3.209   7.222 -0.2069  0.3180 -0.2715
  143MOL   C13531659   3.113   3.196   7.351  0.2503  0.0954 -0.4894
  143MOL   C13631660   3.150   3.072   7.400 -0.3737  0.3261  0.3168
  143MOL   C13731661   3.138   2.959   7.316 -0.2827  0.7173 -0.0396
  143MOL   C13831662   3.093   2.971   7.182  0.1612 -0.1879 -0.5708
  143MOL   C13931663   3.048   3.098   7.138 -0.2220 -0.1320  0.6764
  143MOL   O14031664   2.984   3.114   7.016 -0.6244 -0.6592  0.3247
  143MOL   H14131665   3.025   3.306   7.186  0.8010  0.4194 -0.8761
  143MOL   H14231666   3.107   3.280   7.419 -0.7652  0.7458 -1.3645
  143MOL   H14331667   3.159   2.859   7.349 -1.5998 -0.0279 -1.4129
  143MOL   H14431668   3.082   2.885   7.118  0.5168  0.8612 -2.0914
  143MOL   C14531669   2.755   2.885   6.840  0.3517 -0.4207 -0.0395
  143MOL   C14631670   2.803   2.979   6.931  0.0054 -0.1347 -0.2497
  143MOL   C14731671   2.938   3.009   6.947 -0.5188 -0.0387 -0.2284
  143MOL   C14831672   3.035   2.926   6.872  0.4125 -0.8036 -0.1889
  143MOL   C14931673   2.987   2.825   6.782  0.0037  0.3685 -0.1010
  143MOL   C15031674   2.847   2.807   6.764  0.5541  0.7793  0.1553
  143MOL   O15131675   2.802   2.709   6.679  0.0763 -0.2280  0.5500
  143MOL   H15231676   2.652   2.861   6.822  0.5803 -0.5733 -1.2077
  143MOL   H15331677   2.727   3.036   6.981 -0.2243 -0.4603 -0.2346
  143MOL   H15431678   3.141   2.944   6.888  0.4353 -1.3868  0.3231
  143MOL   H15531679   3.062   2.776   6.721  0.3090 -0.1360  0.6838
  143MOL   C15631680   2.560   2.476   6.829  0.4953  0.0157 -0.2345
  143MOL   C15731681   2.621   2.586   6.771  0.6258  0.0402  0.0672
  143MOL   C15831682   2.758   2.594   6.742  0.4521 -0.6460  0.7499
  143MOL   C15931683   2.831   2.479   6.771 -0.2526  0.9131  0.4158
  143MOL   C16031684   2.778   2.374   6.844 -0.5243  0.2216  0.0462
  143MOL   C16131685   2.640   2.368   6.870 -0.0648 -0.5258 -0.5132
  143MOL   O16231686   2.591   2.260   6.933 -0.3281  0.0366 -0.5010
  143MOL   H16331687   2.454   2.479   6.847  0.4823  2.3857 -0.6015
  143MOL   H16431688   2.564   2.675   6.751 -1.0477 -1.2931 -1.2822
  143MOL   H16531689   2.936   2.484   6.745 -0.7940  1.2804 -1.8297
  143MOL   H16631690   2.852   2.305   6.882  1.4128  2.0242 -0.3082
  143MOL   C16731691   2.516   2.332   7.286  0.0478 -0.1544 -0.3510
  143MOL   C16831692   2.498   2.321   7.146 -1.0137  0.2993 -0.2200
  143MOL   C16931693   2.600   2.262   7.069  0.1680 -0.2391  0.0947
  143MOL   C17031694   2.710   2.211   7.130  0.2636  1.2152  0.4257
  143MOL   C17131695   2.726   2.211   7.269  0.0176 -0.2730 -0.0464
  143MOL   C17231696   2.623   2.268   7.352  0.3531 -0.6675 -0.8931
  143MOL   O17331697   2.631   2.254   7.485  0.1109  0.3237 -0.8577
  143MOL   H17431698   2.436   2.380   7.340 -0.2598 -0.9873 -0.0540
  143MOL   H17531699   2.415   2.369   7.097 -3.0008  1.0206  3.6110
  143MOL   H17631700   2.786   2.164   7.069  1.6652  2.9478  0.7696
  143MOL   H17731701   2.797   2.154   7.327 -0.2380  0.4088  0.9559
  143MOL   C17831702   2.668   1.937   7.676 -0.2681 -0.7715 -0.2115
  143MOL   C17931703   2.694   2.069   7.632  0.2053 -0.6094 -0.5830
  143MOL   C18031704   2.604   2.125   7.536 -0.0945 -0.1014 -0.6900
  143MOL   C18131705   2.486   2.053   7.502 -0.8208  0.3211  0.0253
  143MOL   C18231706   2.473   1.918   7.540  0.0979 -0.0651  0.0261
  143MOL   C18331707   2.557   1.860   7.635 -0.0665 -0.9197  0.9502
  143MOL   O18431708   2.531   1.738   7.692 -0.2864  0.2545  0.2972
  143MOL   H18531709   2.731   1.888   7.750  0.1613  0.0480 -0.0251
  143MOL   H18631710   2.781   2.115   7.677 -2.1470  0.7927  2.6951
  143MOL   H18731711   2.417   2.107   7.439 -2.0132 -0.0971  0.9497
  143MOL   H18831712   2.391   1.861   7.501 -0.0375  0.4564 -0.4484
  143MOL   C18931713   2.270   1.507   7.580 -0.6532  0.0476  0.3455
  143MOL   C19031714   2.393   1.573   7.596 -0.1450  0.0172  0.2329
  143MOL   C19131715   2.406   1.683   7.679 -0.4370 -0.0743  0.4982
  143MOL   C19231716   2.294   1.720   7.762  0.0599  0.2783 -0.1589
  143MOL   C19331717   2.171   1.653   7.745 -0.3102 -0.0233 -0.5375
  143MOL   C19431718   2.161   1.547   7.654 -0.3515  0.2098  0.1708
  143MOL   O19531719   2.049   1.474   7.639 -0.3339 -0.2842  0.3002
  143MOL   H19631720   2.261   1.428   7.507 -0.4809  2.3711 -2.3118
  143MOL   H19731721   2.478   1.552   7.532 -0.9125  1.0061 -1.1434
  143MOL   H19831722   2.297   1.797   7.837 -0.4797 -0.8142  1.0172
  143MOL   H19931723   2.084   1.687   7.799 -0.1740  1.4151 -1.2015
  143MOL   C20031724   1.701   1.541   7.719  0.0559 -0.3119 -0.3885
  143MOL   C20131725   1.822   1.475   7.712 -0.1925 -0.1607 -0.2023
  143MOL   C20231726   1.926   1.544   7.651 -0.1483  0.4400 -0.7709
  143MOL   C20331727   1.906   1.660   7.574  0.3857  0.2054  0.0507
  143MOL   C20431728   1.774   1.720   7.573  0.5082 -0.2083 -0.2039
  143MOL   C20531729   1.671   1.660   7.647  0.0374 -0.0997 -0.5153
  143MOL   O20631730   1.548   1.723   7.648  0.2124 -0.0661  0.1886
  143MOL   H20731731   1.619   1.497   7.773  0.6944  1.6966  2.3226
  143MOL   H20831732   1.839   1.382   7.765 -1.4805  0.4408  1.3117
  143MOL   H20931733   1.981   1.707   7.511 -1.8820  1.8181 -1.5031
  143MOL   H21031734   1.756   1.804   7.508 -2.1681 -1.0905 -0.6276
  143MOL   C21131735   1.516   1.870   7.990 -0.0360  0.3481  0.2610
  143MOL   C21231736   1.560   1.840   7.858 -0.0910  0.6055  0.8057
  143MOL   C21331737   1.496   1.755   7.769 -0.5742 -0.0549  0.3368
  143MOL   C21431738   1.379   1.692   7.813 -0.4736 -0.4187  0.9202
  143MOL   C21531739   1.327   1.715   7.943 -0.3381 -0.8689 -0.3016
  143MOL   C21631740   1.388   1.811   8.027  0.1333 -0.5210  0.3499
  143MOL   O21731741   1.335   1.843   8.146  0.2300 -0.3594  0.3308
  143MOL   H21831742   1.566   1.939   8.057 -1.0516  0.6095  0.7628
  143MOL   H21931743   1.649   1.888   7.822 -0.8829 -0.7458 -3.2085
  143MOL   H22031744   1.311   1.649   7.741 -1.2527 -0.2542  1.5463
  143MOL   H22131745   1.233   1.667   7.967  0.2458 -2.6452 -1.5459
  143MOL   H22231746   1.386   1.903   8.198 -0.3342 -0.0692  0.5598
  144MOL     C131747   2.631   4.461   5.502  0.0284  1.1424 -0.5756
  144MOL     C231748   2.508   4.390   5.486 -0.1883 -0.5986  0.3424
  144MOL     C331749   2.450   4.381   5.355 -0.0175 -0.3371  0.1874
  144MOL     C431750   2.515   4.448   5.244  0.0449  0.1349 -0.5216
  144MOL     C531751   2.636   4.523   5.269 -0.0965  0.3338 -0.9877
  144MOL     C631752   2.703   4.522   5.393  0.1952 -0.5149  0.6845
  144MOL     O731753   2.824   4.592   5.403  0.4460 -0.4115  0.1870
  144MOL     H831754   2.677   4.468   5.599  0.8511  1.5649 -0.9908
  144MOL     H931755   2.461   4.340   5.568 -2.2024  0.8749  0.1341
  144MOL    H1031756   2.471   4.449   5.146  0.5438  0.6096 -0.7389
  144MOL    H1131757   2.684   4.572   5.186 -0.2202  1.3411 -0.4682
  144MOL    H1231758   2.357   4.332   5.332 -0.9075  2.4424 -2.5736
  144MOL    C1331759   3.153   4.497   5.290 -0.0333 -0.1919  0.6700
  144MOL    C1431760   3.025   4.562   5.295 -0.7454  0.0480  0.1981
  144MOL    C1531761   2.937   4.518   5.391 -0.0498 -0.2471  0.3107
  144MOL    C1631762   2.964   4.414   5.479 -0.6186  0.3082  0.2460
  144MOL    C1731763   3.087   4.348   5.465  0.4193  0.9447 -0.8223
  144MOL    C1831764   3.187   4.396   5.378 -0.5248  0.0421  0.2536
  144MOL    O1931765   3.314   4.337   5.367  0.2019 -0.5925 -0.1472
  144MOL    H2031766   3.227   4.540   5.225 -1.9568 -0.4170 -1.7271
  144MOL    H2131767   2.999   4.645   5.231  0.5668  0.4989  0.2435
  144MOL    H2231768   2.906   4.379   5.563  0.1562 -0.2696  0.5483
  144MOL    H2331769   3.112   4.266   5.531 -2.0357 -1.5974 -2.9291
  144MOL    C2431770   3.516   4.373   5.670 -0.4717  0.8774 -0.4405
  144MOL    C2531771   3.450   4.401   5.550 -0.0644  0.3109  0.3414
  144MOL    C2631772   3.370   4.306   5.486 -0.1327  0.3362 -0.0322
  144MOL    C2731773   3.361   4.174   5.541 -0.2428  0.0858  0.1118
  144MOL    C2831774   3.437   4.146   5.650  0.3278  0.6587  0.1747
  144MOL    C2931775   3.518   4.242   5.717  0.5010  0.6927 -0.2479
  144MOL    O3031776   3.591   4.206   5.832 -0.3748  0.0054  0.9094
  144MOL    H3131777   3.573   4.442   5.731 -1.4571 -0.0346  1.5150
  144MOL    H3231778   3.454   4.498   5.503  0.3132 -0.5538 -1.4809
  144MOL    H3331779   3.301   4.101   5.489  0.8915 -0.2580 -0.7351
  144MOL    H3431780   3.426   4.045   5.686  1.3491 -0.2409 -1.9245
  144MOL    C3531781   3.586   4.448   6.107  0.3294 -0.3348 -0.5222
  144MOL    C3631782   3.637   4.369   6.001 -0.0850  0.3122 -0.0255
  144MOL    C3731783   3.547   4.275   5.941 -0.1859 -0.2631  0.0385
  144MOL    C3831784   3.418   4.252   5.992 -0.5007  0.2769  0.0528
  144MOL    C3931785   3.376   4.319   6.112  0.3671  0.3903 -0.2833
  144MOL    C4031786   3.456   4.422   6.164 -1.1991 -0.0236 -0.2253
  144MOL    O4131787   3.409   4.504   6.264 -0.0766  0.0520 -0.4295
  144MOL    H4231788   3.653   4.523   6.146 -0.3458 -0.3294  0.6557
  144MOL    H4331789   3.737   4.384   5.965  0.2951  1.3049  1.4001
  144MOL    H4431790   3.348   4.183   5.949 -0.9661  0.4275  0.5681
  144MOL    H4531791   3.279   4.314   6.158 -0.0151  3.5148 -0.6427
  144MOL    C4631792   3.245   4.824   6.173 -0.2347 -0.1956 -0.0397
  144MOL    C4731793   3.268   4.685   6.197 -0.0843 -0.1400  0.1485
  144MOL    C4831794   3.392   4.636   6.240 -0.3557 -0.3972  0.1681
  144MOL    C4931795   3.499   4.730   6.256  0.0353 -0.1049 -0.0645
  144MOL    C5031796   3.487   4.869   6.214 -0.6681  0.2876  0.3930
  144MOL    C5131797   3.359   4.912   6.186 -0.0618  0.0450 -0.0904
  144MOL    O5231798   3.347   5.043   6.146  0.1317 -0.4097 -0.2431
  144MOL    H5331799   3.152   4.872   6.147 -1.2896 -1.5210  1.1907
  144MOL    H5431800   3.187   4.618   6.172  0.6083  0.0057 -2.5994
  144MOL    H5531801   3.596   4.697   6.291  0.2756  2.4869  1.7911
  144MOL    H5631802   3.575   4.932   6.216  1.1695 -2.2226  2.7465
  144MOL    C5731803   3.222   5.273   5.905  0.7036 -0.9708 -0.1415
  144MOL    C5831804   3.248   5.207   6.024 -0.1129 -0.2273 -0.3670
  144MOL    C5931805   3.297   5.074   6.028  0.2362 -0.2210  0.6873
  144MOL    C6031806   3.328   5.013   5.909  0.5667  0.4914 -0.1945
  144MOL    C6131807   3.285   5.074   5.788 -0.0493  1.3253  0.4518
  144MOL    C6231808   3.234   5.204   5.782 -0.3381  0.4828 -0.7646
  144MOL    O6331809   3.198   5.258   5.666  0.2999 -0.4493 -0.0246
  144MOL    H6431810   3.185   5.375   5.909  0.7631 -0.9725  0.6299
  144MOL    H6531811   3.231   5.260   6.117 -0.2558  0.2011 -0.6373
  144MOL    H6631812   3.368   4.913   5.902  2.2211  0.9230  2.6964
  144MOL    H6731813   3.313   5.020   5.699  1.2181 -1.4826  2.4634
  144MOL    C6831814   3.500   5.457   5.588 -1.1687  0.0390 -0.7214
  144MOL    C6931815   3.418   5.357   5.642 -0.6174  0.1590 -0.3478
  144MOL    C7031816   3.280   5.361   5.618 -0.4724  0.7889 -0.5097
  144MOL    C7131817   3.224   5.466   5.542  0.0050  0.7368 -0.0625
  144MOL    C7231818   3.308   5.562   5.488 -0.0925  0.7343  0.2745
  144MOL    C7331819   3.447   5.566   5.516  0.1479 -0.1419 -0.5069
  144MOL    O7431820   3.529   5.666   5.470 -0.9821 -0.1768 -0.0746
  144MOL    H7531821   3.607   5.464   5.603 -1.3426 -0.7411  1.0789
  144MOL    H7631822   3.470   5.274   5.688 -2.0080 -0.2514  0.5057
  144MOL    H7731823   3.119   5.464   5.521  0.4043 -0.6788 -2.0359
  144MOL    H7831824   3.263   5.641   5.428 -0.9241 -1.6266 -2.3359
  144MOL    C7931825   3.799   5.616   5.217 -0.3905 -0.1353 -0.3100
  144MOL    C8031826   3.729   5.644   5.338 -0.8056  0.6713 -0.5885
  144MOL    C8131827   3.592   5.647   5.349 -0.0840  1.2940 -0.2447
  144MOL    C8231828   3.517   5.615   5.234 -0.3052 -0.0943 -0.7412
  144MOL    C8331829   3.584   5.588   5.113 -0.3744  0.0964 -0.4071
  144MOL    C8431830   3.726   5.592   5.100  0.0424 -0.2496 -0.2260
  144MOL    O8531831   3.790   5.565   4.985 -0.4581 -0.2038 -0.1883
  144MOL    H8631832   3.906   5.598   5.226 -0.0736  2.2812  0.9750
  144MOL    H8731833   3.789   5.660   5.427 -1.8149 -3.1451  0.9004
  144MOL    H8831834   3.409   5.625   5.237 -0.3584  1.7853 -4.8052
  144MOL    H8931835   3.516   5.574   5.030 -0.1458 -0.2434 -0.5386
  144MOL    C9031836   3.969   5.789   4.757  0.5781 -0.0974  0.0628
  144MOL    C9131837   3.937   5.679   4.840 -0.2078 -0.0785 -0.7602
  144MOL    C9231838   3.809   5.668   4.900 -0.3777 -0.7352 -0.0267
  144MOL    C9331839   3.711   5.777   4.877  0.2030 -0.0928  0.5429
  144MOL    C9431840   3.748   5.886   4.791 -0.1846 -1.0034 -0.5443
  144MOL    C9531841   3.871   5.886   4.724  0.1478  0.6639  0.2144
  144MOL    O9631842   3.896   5.979   4.622  0.3667 -0.1642 -0.1585
  144MOL    H9731843   4.064   5.802   4.708  1.4485 -3.1874  0.7913
  144MOL    H9831844   4.009   5.600   4.857  1.6241  1.5349 -0.7975
  144MOL    H9931845   3.613   5.774   4.922 -1.0037  2.7179 -1.7239
  144MOL   H10031846   3.682   5.967   4.763  1.8864  0.2567 -1.8467
  144MOL   C10131847   3.941   6.303   4.776  0.4964  0.5104  0.1394
  144MOL   C10231848   3.874   6.191   4.725  0.1675 -0.5510 -0.6802
  144MOL   C10331849   3.958   6.091   4.668  0.3549 -0.3550  0.0165
  144MOL   C10431850   4.093   6.107   4.656 -0.3634  0.8482 -0.5155
  144MOL   C10531851   4.162   6.214   4.717  0.3423 -0.2476 -0.1146
  144MOL   C10631852   4.084   6.315   4.780  0.3684  0.3016  0.3523
  144MOL   O10731853   4.139   6.420   4.844  0.2893  0.0704  0.2318
  144MOL   H10831854   3.886   6.381   4.826 -0.3005 -0.2079  0.3802
  144MOL   H10931855   3.768   6.171   4.734 -0.1319  0.8428 -0.9611
  144MOL   H11031856   4.145   6.021   4.615  0.1923  1.9728 -2.2195
  144MOL   H11131857   4.270   6.219   4.713  0.3129  1.3879  0.6347
  144MOL   C11231858   4.270   6.338   5.188  0.5164 -0.1773 -0.0342
  144MOL   C11331859   4.248   6.338   5.046  0.6912  0.2525 -0.0497
  144MOL   C11431860   4.170   6.432   4.978  0.1029 -0.3652  0.1850
  144MOL   C11531861   4.105   6.522   5.055 -0.8770 -0.0736 -0.3061
  144MOL   C11631862   4.130   6.530   5.196 -0.6994 -0.7611 -0.0941
  144MOL   C11731863   4.209   6.435   5.263 -0.3969  0.0329 -0.1531
  144MOL   O11831864   4.205   6.431   5.399  0.5177 -0.1861  0.2078
  144MOL   H11931865   4.321   6.257   5.239  0.9239  0.8994  1.3095
  144MOL   H12031866   4.275   6.244   4.999  0.0149 -0.1818  0.4265
  144MOL   H12131867   4.031   6.579   5.001 -1.1458  0.2165  0.3546
  144MOL   H12231868   4.082   6.606   5.256 -2.4688 -0.4718 -1.8261
  144MOL   C12331869   4.038   6.268   5.684 -0.2240  0.1775  0.1524
  144MOL   C12431870   4.130   6.337   5.604 -0.5319  0.5022 -0.1133
  144MOL   C12531871   4.106   6.359   5.466  0.0272 -0.3390  0.1613
  144MOL   C12631872   3.991   6.300   5.407 -0.2254  0.9069  0.2753
  144MOL   C12731873   3.900   6.228   5.484 -0.6851  0.1509 -0.7071
  144MOL   C12831874   3.921   6.212   5.623  0.1779 -0.8888 -0.0812
  144MOL   O12931875   3.820   6.147   5.693 -0.4467  0.0218  0.5665
  144MOL   H13031876   4.054   6.248   5.788 -1.0847 -1.0695  0.0572
  144MOL   H13131877   4.216   6.379   5.655  0.0336  0.8214 -1.3133
  144MOL   H13231878   3.955   6.314   5.306 -2.7144  1.0547  1.1573
  144MOL   H13331879   3.812   6.187   5.437  0.4464 -1.6521 -1.3082
  144MOL   C13431880   3.885   5.872   5.920  0.6315  0.3734 -0.2966
  144MOL   C13531881   3.887   6.008   5.877 -0.5264  0.4904  0.2673
  144MOL   C13631882   3.848   6.028   5.741  0.3570 -0.4876 -0.5759
  144MOL   C13731883   3.815   5.922   5.656 -0.3275  0.1454 -0.6414
  144MOL   C13831884   3.811   5.790   5.707 -0.4997  0.0936  0.2658
  144MOL   C13931885   3.848   5.765   5.838  0.5736 -0.0657  0.0821
  144MOL   O14031886   3.847   5.639   5.881  0.2612  0.3577 -0.0861
  144MOL   H14131887   3.924   5.851   6.019  0.5907  0.7327 -0.2012
  144MOL   H14231888   3.916   6.086   5.946  2.9668 -1.2417  0.8700
  144MOL   H14331889   3.791   5.933   5.552  1.4449 -1.9033 -1.3082
  144MOL   H14431890   3.779   5.710   5.643  0.3962  1.5426 -2.0672
  144MOL   C14531891   3.620   5.488   6.126 -0.1917  0.0936  0.4137
  144MOL   C14631892   3.738   5.531   6.066  0.5471 -0.0849 -0.0430
  144MOL   C14731893   3.732   5.600   5.945 -0.4837  0.1112 -0.1213
  144MOL   C14831894   3.609   5.626   5.882 -0.8920 -0.0529 -0.0048
  144MOL   C14931895   3.491   5.580   5.946 -0.0713  0.4625  0.2546
  144MOL   C15031896   3.494   5.512   6.073 -0.0729 -0.2477  0.8876
  144MOL   O15131897   3.382   5.455   6.139  0.7902 -0.7080  0.3554
  144MOL   H15231898   3.622   5.432   6.218 -0.6933 -0.2942  0.1970
  144MOL   H15331899   3.826   5.509   6.124  0.7127  1.6625  0.3993
  144MOL   H15431900   3.587   5.691   5.798 -0.9706  0.6388  0.5461
  144MOL   H15531901   3.396   5.601   5.900  1.0052 -1.2194 -2.8628
  144MOL   C15631902   3.328   5.620   6.460  0.1141  0.8284  0.3613
  144MOL   C15731903   3.342   5.607   6.318  0.6494 -0.5208  0.3542
  144MOL   C15831904   3.384   5.483   6.271 -0.6697  0.8123 -0.3017
  144MOL   C15931905   3.417   5.385   6.367 -0.1011  0.6741  0.0865
  144MOL   C16031906   3.410   5.401   6.510 -0.4667 -0.2289  0.5776
  144MOL   C16131907   3.370   5.523   6.550 -0.1065  0.3265 -0.2035
  144MOL   O16231908   3.358   5.558   6.686  0.8398  0.3604  0.5700
  144MOL   H16331909   3.293   5.718   6.490 -1.5267  0.8157 -1.4916
  144MOL   H16431910   3.310   5.684   6.250  0.0250 -1.2745 -0.2218
  144MOL   H16531911   3.437   5.284   6.336  2.2662  0.8665  0.9073
  144MOL   H16631912   3.444   5.325   6.579  2.2871  1.4706  1.1490
  144MOL   C16731913   3.083   5.370   6.839 -0.4775 -0.2182  0.6796
  144MOL   C16831914   3.201   5.397   6.766  0.1039 -0.7946  0.1542
  144MOL   C16931915   3.234   5.534   6.746  0.0617  0.4665  0.5998
  144MOL   C17031916   3.148   5.643   6.773  0.1714 -0.4690  0.8554
  144MOL   C17131917   3.029   5.608   6.844 -0.4812  0.1354 -0.3196
  144MOL   C17231918   2.999   5.476   6.884  0.1793 -0.5650  0.3208
  144MOL   O17331919   2.884   5.443   6.951  0.2484 -0.0844 -0.6231
  144MOL   H17431920   3.047   5.270   6.851  1.1979 -1.0457 -0.9285
  144MOL   H17531921   3.269   5.320   6.732  1.7000 -0.0587  1.6198
  144MOL   H17631922   3.179   5.744   6.751 -2.1423  0.0449 -0.2020
  144MOL   H17731923   2.957   5.685   6.867  0.1496 -0.0215  2.3728
  144MOL   C17831924   2.937   5.322   7.295 -0.8067 -0.1566 -0.3048
  144MOL   C17931925   2.941   5.329   7.157 -0.2456 -0.3352  0.2894
  144MOL   C18031926   2.894   5.444   7.091  0.0767 -0.0439 -0.0321
  144MOL   C18131927   2.837   5.553   7.166 -0.4961 -0.5972  0.4770
  144MOL   C18231928   2.844   5.546   7.304  0.7344 -0.1194 -0.1085
  144MOL   C18331929   2.892   5.431   7.370 -0.1827 -0.3558  0.0463
  144MOL   O18431930   2.889   5.433   7.505 -0.1365 -0.4552 -0.6582
  144MOL   H18531931   2.966   5.235   7.353  2.3955  0.6074 -0.6742
  144MOL   H18631932   2.961   5.241   7.098 -1.5103 -0.4369  0.0003
  144MOL   H18731933   2.796   5.643   7.124 -1.0143 -1.1417 -0.1962
  144MOL   H18831934   2.789   5.620   7.360 -0.5318 -0.5702 -0.7387
  144MOL   C18931935   3.083   5.288   7.785 -0.6687 -0.6653  0.4879
  144MOL   C19031936   2.975   5.332   7.707  0.4743  0.2562  0.3449
  144MOL   C19131937   2.998   5.394   7.582  0.1365 -0.2723 -0.3820
  144MOL   C19231938   3.133   5.435   7.552  0.0412 -0.2166 -0.0102
  144MOL   C19331939   3.241   5.395   7.633 -0.0343 -1.0855  0.4322
  144MOL   C19431940   3.213   5.314   7.743 -0.2713  0.0938 -0.9762
  144MOL   O19531941   3.315   5.282   7.824 -0.9630 -0.3270  0.3512
  144MOL   H19631942   3.065   5.226   7.872  2.1453 -1.4844  0.5224
  144MOL   H19731943   2.871   5.320   7.736 -0.5695  1.6948 -2.6242
  144MOL   H19831944   3.157   5.494   7.464  1.1830 -0.1676  0.3319
  144MOL   H19931945   3.339   5.435   7.611 -1.4050  0.3740 -3.5373
  144MOL   C20031946   3.346   4.935   7.934  0.0582  0.1202 -0.3223
  144MOL   C20131947   3.298   5.066   7.922  0.2507  0.9147  0.0557
  144MOL   C20231948   3.356   5.154   7.832 -0.1280  0.8645  0.6676
  144MOL   C20331949   3.469   5.109   7.756 -0.0177 -0.2073  0.3524
  144MOL   C20431950   3.524   4.976   7.776 -0.5123  0.1034 -0.0489
  144MOL   C20531951   3.458   4.893   7.865 -0.2690  0.6975 -0.3255
  144MOL   O20631952   3.514   4.767   7.893 -0.1342  0.6842  0.4026
  144MOL   H20731953   3.287   4.863   7.988 -2.1702 -0.6658 -3.6525
  144MOL   H20831954   3.205   5.083   7.975 -1.4494 -1.6300 -1.9724
  144MOL   H20931955   3.510   5.176   7.682 -1.1197 -1.1000 -1.0872
  144MOL   H21031956   3.607   4.942   7.716  1.9042  0.4088  2.9451
  144MOL   C21131957   3.723   4.734   8.196  0.3356  0.4322 -0.0240
  144MOL   C21231958   3.671   4.785   8.079 -0.3103 -0.5510  0.0967
  144MOL   C21331959   3.555   4.734   8.019  0.3476  0.4661 -0.4712
  144MOL   C21431960   3.483   4.636   8.091 -0.1790 -0.1406 -0.0425
  144MOL   C21531961   3.530   4.588   8.215 -0.5625  0.1237  0.4989
  144MOL   C21631962   3.654   4.632   0.015 -0.0618  0.4101  0.8493
  144MOL   O21731963   3.695   4.580   0.136 -0.5230  0.7591 -0.1054
  144MOL   H21831964   3.816   4.779   8.230  1.5420 -1.5394 -0.6599
  144MOL   H21931965   3.729   4.856   8.022 -1.2357  0.6788  0.6722
  144MOL   H22031966   3.393   4.598   8.044 -0.2065  0.1009 -0.1858
  144MOL   H22131967   3.466   4.525   0.019 -1.8563  0.2352 -0.7813
  144MOL   H22231968   3.636   4.514   0.168 -0.4593  1.3199  1.2089
  145MOL     C131969   3.946   5.285   5.043  0.1209  0.1847  0.7618
  145MOL     C231970   4.025   5.331   4.941  0.3064  0.2659  0.4102
  145MOL     C331971   4.157   5.279   4.932 -0.5937  0.1562 -0.1832
  145MOL     C431972   4.209   5.187   5.029  0.0484 -0.1040  0.1027
  145MOL     C531973   4.126   5.139   5.130  0.1374  0.2766 -0.5008
  145MOL     C631974   3.989   5.185   5.138 -0.3111  0.0270  0.8945
  145MOL     O731975   3.908   5.134   5.235  0.5040 -0.4739  0.4641
  145MOL     H831976   3.844   5.320   5.051  0.5646  1.7355 -0.2600
  145MOL     H931977   3.992   5.395   4.861  1.6796 -0.7727 -1.0162
  145MOL    H1031978   4.308   5.144   5.025 -0.5942 -1.6520  0.7933
  145MOL    H1131979   4.163   5.060   5.193 -2.2799 -1.2551 -0.9395
  145MOL    H1231980   4.216   5.305   4.846  1.2059 -1.2643  0.5687
  145MOL    C1331981   3.676   4.894   5.086  0.0587 -0.3362 -0.2641
  145MOL    C1431982   3.739   5.013   5.117 -0.8422  0.5654 -0.0017
  145MOL    C1531983   3.847   5.014   5.210  0.3203  0.0551 -0.2207
  145MOL    C1631984   3.866   4.900   5.291  0.2130  0.2403 -0.2748
  145MOL    C1731985   3.793   4.783   5.265  0.5033  0.0537 -0.4396
  145MOL    C1831986   3.706   4.777   5.158 -0.1678  0.7903  0.0497
  145MOL    O1931987   3.634   4.661   5.137 -0.0983 -0.0709  0.2757
  145MOL    H2031988   3.586   4.894   5.026 -2.0233 -0.9142  2.7322
  145MOL    H2131989   3.712   5.108   5.072 -0.8769  0.0088 -1.1748
  145MOL    H2231990   3.947   4.903   5.362  0.8773 -2.9786 -0.8188
  145MOL    H2331991   3.797   4.692   5.322  0.7731  0.2017 -0.2242
  145MOL    C2431992   3.493   4.494   4.832  0.1590 -0.3073 -0.6557
  145MOL    C2531993   3.502   4.548   4.965  0.0830 -0.1347  0.2161
  145MOL    C2631994   3.624   4.602   5.014  0.2212 -0.0263  0.6307
  145MOL    C2731995   3.736   4.606   4.927 -0.6475 -0.9396  0.4796
  145MOL    C2831996   3.727   4.545   4.800 -0.6869  0.6704 -0.6621
  145MOL    C2931997   3.611   4.480   4.756 -0.4727  0.3655 -0.3329
  145MOL    O3031998   3.607   4.419   4.635  0.3062  0.1463  0.2295
  145MOL    H3131999   3.404   4.442   4.799  1.0899 -3.0234  0.9100
  145MOL    H3232000   3.414   4.536   5.026 -0.1825  0.6679 -0.0045
  145MOL    H3332001   3.837   4.639   4.951 -0.6205 -0.8546  0.2464
  145MOL    H3432002   3.817   4.540   4.742  0.8212  0.4940  1.6400
  145MOL    C3532003   3.619   4.057   4.676 -0.7457 -0.0877  0.1365
  145MOL    C3632004   3.569   4.186   4.656  0.5998 -0.5818  0.3388
  145MOL    C3732005   3.658   4.291   4.631 -0.2638 -0.0040 -0.2787
  145MOL    C3832006   3.799   4.265   4.630  0.2325  0.2333  0.3090
  145MOL    C3932007   3.848   4.138   4.653  0.5524  0.4997  0.1075
  145MOL    C4032008   3.758   4.030   4.681  0.0478 -0.0199 -0.3336
  145MOL    O4132009   3.806   3.900   4.697  0.0529 -0.2206  0.1054
  145MOL    H4232010   3.551   3.976   4.698 -1.2869  0.6234  1.1019
  145MOL    H4332011   3.462   4.204   4.659  0.5374 -1.0877  2.0789
  145MOL    H4432012   3.865   4.349   4.616  0.6875 -0.2457 -0.4662
  145MOL    H4532013   3.953   4.115   4.646 -0.1321 -2.2479 -2.0791
  145MOL    C4632014   3.693   3.646   4.938 -0.2901  0.1050 -0.2234
  145MOL    C4732015   3.720   3.704   4.810  0.0188 -0.3405  0.3481
  145MOL    C4832016   3.777   3.833   4.813  0.1230 -0.7063  0.2967
  145MOL    C4932017   3.835   3.885   4.934  0.5424 -0.0498 -0.0436
  145MOL    C5032018   3.808   3.825   5.057 -0.4366  0.6502 -0.3883
  145MOL    C5132019   3.737   3.700   5.060 -0.2144  0.7363  0.1672
  145MOL    O5232020   3.717   3.637   5.182 -0.0293  0.4301  0.2768
  145MOL    H5332021   3.646   3.549   4.934 -1.3482  0.5750  0.5296
  145MOL    H5432022   3.685   3.662   4.717  0.8050  1.6987 -0.8903
  145MOL    H5532023   3.885   3.980   4.920 -1.0891  0.7802 -0.2740
  145MOL    H5632024   3.847   3.868   5.148 -0.0815 -0.4956  0.0148
  145MOL    C5732025   3.824   3.288   5.160 -0.1672 -0.7009  1.3147
  145MOL    C5832026   3.824   3.428   5.150 -0.2559  0.1112 -0.1167
  145MOL    C5932027   3.718   3.501   5.201 -0.0989 -0.0823  0.5401
  145MOL    C6032028   3.619   3.433   5.270  0.1385  0.2362  0.1049
  145MOL    C6132029   3.619   3.295   5.288  0.1453 -0.1034 -0.2247
  145MOL    C6232030   3.722   3.221   5.230  0.3498 -0.2482 -0.0129
  145MOL    O6332031   3.721   3.086   5.256  0.4078 -0.3725 -0.1582
  145MOL    H6432032   3.905   3.231   5.118 -0.7879  0.6533 -1.8336
  145MOL    H6532033   3.901   3.482   5.096 -0.0619  0.9799  1.0024
  145MOL    H6632034   3.538   3.486   5.317 -1.3472 -1.2347 -0.7544
  145MOL    H6732035   3.540   3.264   5.355  1.4775  1.4681  2.1473
  145MOL    C6832036   3.575   2.936   4.961  0.2123  0.1492  1.0209
  145MOL    C6932037   3.632   3.035   5.044  0.0580  0.2858 -0.6975
  145MOL    C7032038   3.667   2.993   5.172 -0.4895  0.4940 -0.8444
  145MOL    C7132039   3.640   2.861   5.218  1.2182 -0.0733 -0.4482
  145MOL    C7232040   3.571   2.771   5.138  0.1368 -0.3199  0.4219
  145MOL    C7332041   3.550   2.806   5.001  0.2023  0.3265  0.2726
  145MOL    O7432042   3.491   2.714   4.914 -0.1299 -0.2928  0.0343
  145MOL    H7532043   3.552   2.958   4.858  2.7565 -0.1831  0.3445
  145MOL    H7632044   3.659   3.128   4.996  1.5703  0.0527 -0.3294
  145MOL    H7732045   3.647   2.826   5.320  0.0328  0.9409 -0.0098
  145MOL    H7832046   3.558   2.669   5.172 -1.2286  0.0418  1.0165
  145MOL    C7932047   3.590   2.646   4.559 -0.0453  0.2122  0.1073
  145MOL    C8032048   3.518   2.698   4.674 -0.2548  0.0960  0.0400
  145MOL    C8132049   3.569   2.689   4.806 -0.0060  1.0291  0.0554
  145MOL    C8232050   3.698   2.631   4.815 -0.4284 -0.3523 -0.0231
  145MOL    C8332051   3.774   2.583   4.709  0.2073 -0.8982 -0.4591
  145MOL    C8432052   3.723   2.596   4.578  0.2466  0.3860  0.3730
  145MOL    O8532053   3.803   2.555   4.472  0.3954  0.1724 -0.3730
  145MOL    H8632054   3.554   2.655   4.458  0.9822 -0.3196 -0.3170
  145MOL    H8732055   3.417   2.735   4.664 -0.5268 -0.4623  0.7775
  145MOL    H8832056   3.743   2.623   4.913  0.9026  1.0740 -0.4855
  145MOL    H8932057   3.873   2.545   4.730  0.5288  0.3021  0.2587
  145MOL    C9032058   3.638   2.409   4.181 -0.0004 -0.7127 -0.4129
  145MOL    C9132059   3.710   2.499   4.257 -1.1473  0.1961  0.9727
  145MOL    C9232060   3.741   2.464   4.389 -0.4845 -0.1153 -0.1324
  145MOL    C9332061   3.717   2.329   4.434 -0.2718 -0.5692 -0.5952
  145MOL    C9432062   3.648   2.239   4.350 -0.7916 -0.1958 -0.2273
  145MOL    C9532063   3.604   2.284   4.227  0.0127  0.8570 -0.2008
  145MOL    O9632064   3.525   2.189   4.159  0.4267 -0.1792  0.6949
  145MOL    H9732065   3.605   2.437   4.082  2.2779  3.4603 -0.1175
  145MOL    H9832066   3.723   2.602   4.226 -1.5698  0.1517  0.6384
  145MOL    H9932067   3.759   2.305   4.531 -0.2281 -0.3426 -0.5561
  145MOL   H10032068   3.631   2.133   4.365 -3.3008 -0.0004 -1.4566
  145MOL   C10132069   3.393   2.279   3.832  0.4636  0.4726 -0.4959
  145MOL   C10232070   3.478   2.236   3.933  0.3169  0.2426 -0.1386
  145MOL   C10332071   3.433   2.226   4.066 -0.2792  0.1465  0.0102
  145MOL   C10432072   3.297   2.248   4.100 -0.5332 -0.1366 -0.1834
  145MOL   C10532073   3.212   2.282   3.992  0.6282 -0.0097  0.6759
  145MOL   C10632074   3.260   2.303   3.862  0.5182  0.3315 -0.6460
  145MOL   O10732075   3.179   2.344   3.762 -0.3254  0.4488  0.5546
  145MOL   H10832076   3.418   2.283   3.727 -4.1998  0.2853 -1.7237
  145MOL   H10932077   3.583   2.222   3.912  0.4904  1.2479  0.0343
  145MOL   H11032078   3.264   2.261   4.202  1.8666 -0.3127  0.6452
  145MOL   H11132079   3.107   2.308   3.996  0.2798 -1.1515 -0.6302
  145MOL   C11232080   3.029   2.210   3.452  0.6962 -0.1160 -0.0836
  145MOL   C11332081   3.073   2.301   3.546  0.0021 -0.1991  0.1870
  145MOL   C11432082   3.136   2.250   3.665  0.0074  0.4436  0.0589
  145MOL   C11532083   3.147   2.110   3.682 -0.1945 -0.1087 -0.3575
  145MOL   C11632084   3.094   2.019   3.581  0.5358 -0.3062 -0.4655
  145MOL   C11732085   3.029   2.073   3.469 -0.0137 -0.0533 -0.2663
  145MOL   O11832086   2.977   1.991   3.375  0.4011  0.3606  0.4065
  145MOL   H11932087   2.994   2.245   3.356  2.9977  0.0737 -0.8812
  145MOL   H12032088   3.072   2.409   3.536 -1.2814 -0.4313 -2.9363
  145MOL   H12132089   3.194   2.066   3.769  1.1248 -0.6004 -1.3041
  145MOL   H12232090   3.090   1.911   3.589  0.2109 -0.3783 -1.4639
  145MOL   C12332091   3.096   1.739   3.129  1.2349 -0.1267  0.3864
  145MOL   C12432092   3.014   1.818   3.213 -0.3809 -0.8410  0.3625
  145MOL   C12532093   3.067   1.919   3.296 -0.2653 -0.0902 -0.4428
  145MOL   C12632094   3.205   1.956   3.288 -0.1053  0.6691  0.3265
  145MOL   C12732095   3.284   1.875   3.201  0.2601 -0.7707  0.0840
  145MOL   C12832096   3.231   1.771   3.120 -0.3853 -0.6662 -0.8627
  145MOL   O12932097   3.317   1.694   3.044 -0.0124 -0.1132  0.1511
  145MOL   H13032098   3.067   1.666   3.055  3.5353  0.6757 -1.3637
  145MOL   H13132099   2.908   1.796   3.216 -0.6721  0.6862  1.8726
  145MOL   H13232100   3.257   2.029   3.347 -1.2050  0.5247  1.4954
  145MOL   H13332101   3.392   1.885   3.207  0.4308 -3.0139  0.9736
  145MOL   C13432102   3.350   1.880   2.723 -0.1647 -0.1094 -0.1224
  145MOL   C13532103   3.293   1.820   2.841  0.2952 -0.7210 -0.5950
  145MOL   C13632104   3.371   1.748   2.929 -0.1586  0.4065 -0.4773
  145MOL   C13732105   3.502   1.717   2.896 -0.3464  0.2735  0.4251
  145MOL   C13832106   3.553   1.763   2.771 -0.9214  0.1393 -0.3316
  145MOL   C13932107   3.477   1.843   2.687 -0.6050  0.4814 -0.2148
  145MOL   O14032108   3.539   1.888   2.575  0.2080 -0.6190  0.0475
  145MOL   H14132109   3.285   1.938   2.659 -3.3283  0.2639  3.2322
  145MOL   H14232110   3.186   1.824   2.858  0.0262 -2.1851 -1.7604
  145MOL   H14332111   3.563   1.659   2.962  1.1555  1.4170  0.0572
  145MOL   H14432112   3.653   1.729   2.749 -1.1395 -0.1818 -0.8463
  145MOL   C14532113   3.341   1.943   2.274  0.7341 -0.0725  0.4477
  145MOL   C14632114   3.408   1.968   2.394  0.5187 -0.4468 -0.7194
  145MOL   C14732115   3.480   1.867   2.460  0.0604 -0.1881  0.2343
  145MOL   C14832116   3.492   1.744   2.398  0.2285  0.6305 -0.4394
  145MOL   C14932117   3.423   1.713   2.284 -0.1429 -0.4986  0.1333
  145MOL   C15032118   3.354   1.816   2.215 -0.5039 -0.6601 -0.0831
  145MOL   O15132119   3.289   1.799   2.097  0.0227  0.2385  0.5600
  145MOL   H15232120   3.280   2.020   2.230 -0.3761 -0.3407  1.4922
  145MOL   H15332121   3.409   2.058   2.454 -0.1971 -1.2821  0.5414
  145MOL   H15432122   3.564   1.681   2.449  0.2658  0.7993 -0.2854
  145MOL   H15532123   3.428   1.612   2.245  1.2180  0.5314 -2.5107
  145MOL   C15632124   3.465   1.923   1.803  0.0673  0.1206  0.2852
  145MOL   C15732125   3.385   1.925   1.917  0.1578 -0.3124 -1.1981
  145MOL   C15832126   3.361   1.800   1.983 -0.4445 -0.3426 -0.0555
  145MOL   C15932127   3.410   1.679   1.926  0.3550 -0.2624  0.2381
  145MOL   C16032128   3.501   1.684   1.821  0.3745  0.2653 -0.3435
  145MOL   C16132129   3.525   1.806   1.754  0.3895 -0.3841 -0.1087
  145MOL   O16232130   3.604   1.808   1.639 -0.6856  0.3661 -0.1055
  145MOL   H16332131   3.476   2.018   1.753 -1.6602  0.3939  0.3852
  145MOL   H16432132   3.330   2.011   1.954 -0.6110 -0.7476 -1.3076
  145MOL   H16532133   3.390   1.585   1.974  0.4798 -0.6749 -0.5057
  145MOL   H16632134   3.559   1.597   1.795  1.7565  1.3445 -1.0209
  145MOL   C16732135   3.904   1.648   1.496  0.5330  0.3648  0.3540
  145MOL   C16832136   3.775   1.706   1.503 -0.0250 -0.2470 -0.0527
  145MOL   C16932137   3.717   1.740   1.632 -0.7713 -0.1866  0.2546
  145MOL   C17032138   3.798   1.724   1.745 -0.4916 -0.0253 -0.4611
  145MOL   C17132139   3.926   1.665   1.740 -0.6683  0.4419 -0.1821
  145MOL   C17232140   3.977   1.624   1.614 -0.1194  0.6394 -0.4777
  145MOL   O17332141   4.100   1.565   1.602 -0.4234  0.0434 -0.0985
  145MOL   H17432142   3.940   1.619   1.399 -0.4318  0.2391  0.0281
  145MOL   H17532143   3.723   1.729   1.411  2.1910 -0.9903 -1.5425
  145MOL   H17632144   3.750   1.758   1.835 -1.6302 -0.5368 -0.8660
  145MOL   H17732145   3.986   1.652   1.829  0.0334  2.5725 -0.3062
  145MOL   C17832146   4.217   1.296   1.816 -0.2008  0.3113  0.8247
  145MOL   C17932147   4.194   1.421   1.762  0.4089  0.2357 -0.4776
  145MOL   C18032148   4.118   1.439   1.649 -0.0673  0.1649 -0.3567
  145MOL   C18132149   4.074   1.329   1.575 -0.4372 -0.0748 -0.0770
  145MOL   C18232150   4.089   1.200   1.623 -0.7523  0.2952  0.2115
  145MOL   C18332151   4.171   1.185   1.739  0.3899 -1.0814  0.1526
  145MOL   O18432152   4.205   1.054   1.775 -0.4838  0.8161  0.1957
  145MOL   H18532153   4.286   1.282   1.898  1.5301  1.8141 -0.3395
  145MOL   H18632154   4.230   1.509   1.812 -0.8256 -0.4586  1.6999
  145MOL   H18732155   4.022   1.344   1.482  1.8596  1.6333 -1.1497
  145MOL   H18832156   4.057   1.111   1.571 -1.3216  1.3732 -1.3148
  145MOL   C18932157   4.541   0.943   1.667 -0.1338  0.0856 -0.1760
  145MOL   C19032158   4.441   1.005   1.745  0.0292 -0.2817 -0.7764
  145MOL   C19132159   4.304   0.986   1.708  0.4551  0.4163  0.0367
  145MOL   C19232160   4.266   0.891   1.605  0.2049  0.4436  0.7226
  145MOL   C19332161   4.371   0.823   1.533  0.2814 -0.2582 -0.1501
  145MOL   C19432162   4.508   0.849   1.561  0.1494  0.5171 -0.4394
  145MOL   O19532163   4.601   0.795   1.481 -0.3943 -0.1387 -0.1440
  145MOL   H19632164   4.642   0.976   1.686 -1.1657  3.1682  0.1365
  145MOL   H19732165   4.474   1.067   1.828 -1.6324 -3.6810  2.5443
  145MOL   H19832166   4.165   0.873   1.573  1.0658  2.2827 -3.3661
  145MOL   H19932167   4.347   0.750   1.457  1.0975 -0.0461 -0.6197
  145MOL   C20032168   4.905   0.761   1.684 -0.3145  1.3831 -0.2494
  145MOL   C20132169   4.773   0.749   1.644 -0.6599  0.7025  0.6055
  145MOL   C20232170   4.730   0.803   1.525  0.2851 -0.2017  0.2794
  145MOL   C20332171   4.824   0.873   1.447 -0.5914  0.1567 -0.2524
  145MOL   C20432172   4.958   0.882   1.487 -0.0691  0.7665  0.1240
  145MOL   C20532173   5.005   0.817   1.603  0.5875  0.5607  0.1867
  145MOL   O20632174   5.140   0.800   1.616 -0.3814 -0.8709  0.3171
  145MOL   H20732175   4.922   0.709   1.777 -0.9727 -3.4703 -2.6773
  145MOL   H20832176   4.705   0.704   1.714  1.2801 -0.3938  1.8477
  145MOL   H20932177   4.796   0.909   1.349  0.2585 -1.1414 -0.9926
  145MOL   H21032178   5.027   0.936   1.425  0.4421  1.3572  1.1828
  145MOL   C21132179   5.329   0.561   1.416  1.0887  0.6909  0.2195
  145MOL   C21232180   5.280   0.679   1.468 -0.1721 -0.2717 -0.0090
  145MOL   C21332181   5.191   0.677   1.575  0.0826 -0.3142  0.4083
  145MOL   C21432182   5.171   0.556   1.643  1.3154 -0.3427 -0.2206
  145MOL   C21532183   5.223   0.433   1.593 -0.2738  0.0362 -0.1306
  145MOL   C21632184   5.292   0.435   1.474 -0.7228  0.4211  1.0162
  145MOL   O21732185   5.345   0.327   1.406  0.2513  0.4241 -0.0392
  145MOL   H21832186   5.392   0.565   1.328  1.6764 -1.6987  0.4861
  145MOL   H21932187   5.297   0.775   1.421 -0.6176 -0.3198 -0.2682
  145MOL   H22032188   5.106   0.568   1.728  2.1462  1.2484  0.2159
  145MOL   H22132189   5.193   0.343   1.644  2.1981 -0.1275  1.1085
  145MOL   H22232190   5.313   0.245   1.441 -0.4976  1.7269  2.4253
  146MOL     C132191   3.288   3.067   2.943  0.7407  0.1250 -0.1063
  146MOL     C232192   3.325   2.941   2.998  0.2354  0.1174  0.9058
  146MOL     C332193   3.343   2.928   3.134  0.2233  0.2102 -0.3204
  146MOL     C432194   3.338   3.036   3.224 -0.1621 -0.2242  0.5772
  146MOL     C532195   3.297   3.168   3.164 -0.3968 -0.3292 -1.3330
  146MOL     C632196   3.267   3.175   3.027 -0.6613  0.5139 -0.2148
  146MOL     O732197   3.235   3.302   2.986  0.3597  0.8609 -0.7536
  146MOL     H832198   3.257   3.077   2.840 -2.9957  0.4183  0.9570
  146MOL     H932199   3.330   2.853   2.937 -1.8601  0.4638  0.1974
  146MOL    H1032200   3.352   3.006   3.327  0.0631  1.0317  0.9238
  146MOL    H1132201   3.285   3.250   3.234 -0.2525 -1.4660  0.0628
  146MOL    H1232202   3.347   2.826   3.168 -0.9065  0.5662  0.9651
  146MOL    C1332203   3.273   3.387   2.628  0.1302 -0.2378 -0.3013
  146MOL    C1432204   3.213   3.340   2.750  0.1754 -0.3821 -0.7727
  146MOL    C1532205   3.287   3.343   2.870 -0.0728 -0.1926  0.6180
  146MOL    C1632206   3.428   3.364   2.868  0.1355  0.1281 -0.8424
  146MOL    C1732207   3.487   3.403   2.745  0.7150  0.2725  0.1314
  146MOL    C1832208   3.409   3.414   2.624  0.1329 -0.3537  0.0564
  146MOL    O1932209   3.457   3.458   2.503 -0.1653 -0.0492 -0.2816
  146MOL    H2032210   3.206   3.395   2.544  0.4111  0.3472 -0.4674
  146MOL    H2132211   3.107   3.321   2.751 -0.4605  2.9181 -0.5147
  146MOL    H2232212   3.485   3.372   2.959  0.9967  2.9259 -1.5590
  146MOL    H2332213   3.593   3.424   2.738  0.6611  0.0985 -1.3768
  146MOL    C2432214   3.559   3.139   2.356 -0.9067  0.3460 -0.4262
  146MOL    C2532215   3.509   3.229   2.446  0.1109  0.3996 -0.6423
  146MOL    C2632216   3.513   3.367   2.418  0.6467  0.6976  0.3600
  146MOL    C2732217   3.569   3.412   2.300 -0.1015  0.6275  0.1466
  146MOL    C2832218   3.623   3.316   2.209 -0.1474 -0.9441 -0.3884
  146MOL    C2932219   3.620   3.179   2.239  0.1727 -0.1280  0.0212
  146MOL    O3032220   3.683   3.086   2.153 -0.4263  0.1481  0.8160
  146MOL    H3132221   3.565   3.032   2.372  2.2424  0.2563 -1.8843
  146MOL    H3232222   3.459   3.193   2.535  2.9668 -1.6000  0.1929
  146MOL    H3332223   3.569   3.515   2.267 -0.1134  0.3224 -0.8389
  146MOL    H3432224   3.679   3.351   2.123 -1.4821  1.7794 -0.2010
  146MOL    C3532225   3.734   3.146   1.794  0.1847  0.1753 -0.2785
  146MOL    C3632226   3.771   3.130   1.934  0.2653  0.0501 -0.4088
  146MOL    C3732227   3.662   3.101   2.019  0.5668 -0.7851 -1.2474
  146MOL    C3832228   3.531   3.088   1.969  0.2306 -0.2540 -0.0726
  146MOL    C3932229   3.504   3.086   1.833 -0.2818  0.6596 -0.1883
  146MOL    C4032230   3.605   3.127   1.744  0.0821  0.4394 -0.0293
  146MOL    O4132231   3.586   3.132   1.604 -0.3086  0.5416 -0.4467
  146MOL    H4232232   3.819   3.166   1.730  0.7014 -0.8311  0.0815
  146MOL    H4332233   3.871   3.152   1.966  0.3751 -0.3656 -0.4601
  146MOL    H4432234   3.448   3.062   2.032 -2.1198  1.6951 -2.2715
  146MOL    H4532235   3.405   3.056   1.805  0.2464 -0.6430 -0.6721
  146MOL    C4632236   3.582   2.934   1.301  0.8572 -0.0616  0.6696
  146MOL    C4732237   3.595   3.041   1.387  0.6109  0.0747 -0.0103
  146MOL    C4832238   3.583   3.017   1.526 -0.7574 -0.2627 -0.2647
  146MOL    C4932239   3.566   2.885   1.571  0.5789 -0.2095  0.2342
  146MOL    C5032240   3.583   2.775   1.484 -0.0591  0.4007 -0.0024
  146MOL    C5132241   3.579   2.801   1.348  0.0844 -0.2784  0.9414
  146MOL    O5232242   3.578   2.693   1.258  0.1721 -0.0519 -0.1378
  146MOL    H5332243   3.586   2.948   1.194 -4.0269 -3.0410 -0.0314
  146MOL    H5432244   3.615   3.141   1.352  0.4952  0.4271  0.9282
  146MOL    H5532245   3.559   2.856   1.674 -1.2979 -0.6058  0.0099
  146MOL    H5632246   3.576   2.674   1.522  1.2337  0.7566  1.2113
  146MOL    C5732247   3.205   2.637   1.230  0.1985 -0.4965  0.2654
  146MOL    C5832248   3.328   2.701   1.262  0.3602 -0.0777  0.5784
  146MOL    C5932249   3.447   2.648   1.219  0.1473  0.1156  0.4029
  146MOL    C6032250   3.452   2.542   1.138 -0.2038  0.6121  0.2732
  146MOL    C6132251   3.330   2.479   1.103 -0.3003  0.1390 -0.8311
  146MOL    C6232252   3.204   2.524   1.149 -0.0882  0.9322 -0.7165
  146MOL    O6332253   3.086   2.466   1.104 -0.1957  0.4896 -0.3810
  146MOL    H6432254   3.120   2.686   1.275  1.5521  1.3203  0.9187
  146MOL    H6532255   3.320   2.778   1.338  0.3711 -0.8997  1.4248
  146MOL    H6632256   3.552   2.516   1.106 -1.3423  0.2273 -3.0611
  146MOL    H6732257   3.343   2.395   1.036 -1.0783 -0.2874 -0.4554
  146MOL    C6832258   2.847   2.485   1.399 -0.0151 -0.0253 -0.4722
  146MOL    C6932259   2.958   2.451   1.319  0.1467 -0.3763 -0.2426
  146MOL    C7032260   2.971   2.488   1.182  0.0933 -0.4460  0.4020
  146MOL    C7132261   2.871   2.558   1.122 -0.2301 -0.4724 -0.2471
  146MOL    C7232262   2.753   2.592   1.196 -0.0386 -0.0534 -0.5304
  146MOL    C7332263   2.748   2.557   1.335  0.2862 -0.5847  1.0742
  146MOL    O7432264   2.634   2.588   1.404 -0.6429  0.3117 -0.0179
  146MOL    H7532265   2.843   2.445   1.500 -2.0269  0.8407 -0.1886
  146MOL    H7632266   3.031   2.391   1.372 -0.8019  0.0410  1.5568
  146MOL    H7732267   2.867   2.577   1.016 -1.3897 -1.6169 -0.4284
  146MOL    H7832268   2.677   2.646   1.142  0.2127  0.9687  0.1091
  146MOL    C7932269   2.296   2.465   1.373 -0.0309 -0.1033 -0.1427
  146MOL    C8032270   2.404   2.542   1.342 -0.1057 -0.4371 -0.1999
  146MOL    C8132271   2.531   2.503   1.399  0.2479  0.3384  1.1873
  146MOL    C8232272   2.541   2.378   1.463 -0.0844 -0.3426  0.0404
  146MOL    C8332273   2.432   2.291   1.474  0.6947 -0.0481  0.4707
  146MOL    C8432274   2.306   2.336   1.435 -0.0645  0.5192  0.7223
  146MOL    O8532275   2.196   2.257   1.442  0.1312 -0.1859 -0.7402
  146MOL    H8632276   2.201   2.508   1.347 -1.0303 -1.7592  0.6884
  146MOL    H8732277   2.390   2.638   1.296  0.0278  0.3195  1.2779
  146MOL    H8832278   2.637   2.354   1.507 -1.5967 -2.6015  2.3161
  146MOL    H8932279   2.426   2.194   1.521 -2.1000  0.5311  1.4369
  146MOL    C9032280   1.866   2.390   1.502 -0.4302 -0.1838  0.5648
  146MOL    C9132281   1.977   2.345   1.432  0.0810 -0.1063  0.5200
  146MOL    C9232282   2.092   2.321   1.510 -0.9494 -0.2306  0.1337
  146MOL    C9332283   2.091   2.333   1.652  0.3032  0.1055  0.2405
  146MOL    C9432284   1.982   2.392   1.714  0.1372  0.0800  0.0494
  146MOL    C9532285   1.873   2.434   1.637  1.0975  0.4044 -0.8196
  146MOL    O9632286   1.770   2.501   1.687  0.1058 -0.0354  0.1120
  146MOL    H9732287   1.781   2.398   1.435 -0.5421 -0.3388  0.6887
  146MOL    H9832288   1.978   2.332   1.325 -0.0688  1.1170  0.3633
  146MOL    H9932289   2.178   2.285   1.695  0.1102  1.4532  2.2029
  146MOL   H10032290   1.978   2.409   1.821 -0.1428 -1.7155  0.3404
  146MOL   C10132291   1.435   2.395   1.580 -0.1483 -1.1302  0.5390
  146MOL   C10232292   1.548   2.467   1.591 -0.1361 -0.4640  0.6690
  146MOL   C10332293   1.650   2.437   1.686  0.0300  0.3497  0.2362
  146MOL   C10432294   1.625   2.336   1.787  0.3769 -0.2361  0.3743
  146MOL   C10532295   1.512   2.263   1.774  0.3568  0.6489 -0.3733
  146MOL   C10632296   1.419   2.285   1.669 -0.6700  0.0250  0.0621
  146MOL   O10732297   1.308   2.204   1.665  0.7176 -0.1661 -0.5159
  146MOL   H10832298   1.352   2.412   1.513 -0.3134  0.2201  1.0818
  146MOL   H10932299   1.572   2.538   1.513 -0.2286 -0.4723  0.6330
  146MOL   H11032300   1.696   2.321   1.867 -0.3562 -1.5782  0.7777
  146MOL   H11132301   1.484   2.187   1.846  0.2670  1.4009  0.3913
  146MOL   C11232302   1.186   1.999   1.389  0.3629 -0.1515  0.4752
  146MOL   C11332303   1.203   2.113   1.472  0.4276 -0.1086 -0.3524
  146MOL   C11432304   1.304   2.106   1.570 -0.7740  0.0100 -0.9025
  146MOL   C11532305   1.403   2.005   1.574 -0.0840 -0.3374  0.0536
  146MOL   C11632306   1.391   1.899   1.477 -0.0276 -0.5995 -0.4723
  146MOL   C11732307   1.277   1.891   1.392  1.0668 -0.3715  0.4679
  146MOL   O11832308   1.261   1.779   1.305 -0.1860 -0.0098 -0.3989
  146MOL   H11932309   1.111   1.987   1.313  0.7861 -0.3551  0.0896
  146MOL   H12032310   1.132   2.195   1.472  1.4939  0.8250  0.3607
  146MOL   H12132311   1.467   1.992   1.660 -0.4242  1.8459  0.6742
  146MOL   H12232312   1.452   1.811   1.488 -0.5616 -1.0694 -1.2624
  146MOL   C12332313   1.571   1.766   1.096 -0.1450 -0.3561  0.0422
  146MOL   C12432314   1.450   1.814   1.154 -0.8140 -0.1943 -0.6578
  146MOL   C12532315   1.366   1.727   1.230  0.3895  0.1215 -0.4021
  146MOL   C12632316   1.398   1.593   1.232 -0.1473 -0.6839 -0.2361
  146MOL   C12732317   1.516   1.541   1.171 -0.3824  0.4831  0.9023
  146MOL   C12832318   1.611   1.630   1.112  0.0170  0.2099  0.0066
  146MOL   O12932319   1.731   1.583   1.073  0.2489  1.1691  0.1542
  146MOL   H13032320   1.633   1.841   1.050 -0.6710  0.3810  0.5318
  146MOL   H13132321   1.420   1.917   1.140  3.3621  1.5207  2.0312
  146MOL   H13232322   1.328   1.534   1.290 -1.2424  0.2794 -0.5706
  146MOL   H13332323   1.530   1.434   1.180  0.4347  0.6978  2.3288
  146MOL   C13432324   1.913   1.653   0.753  0.9541 -0.1670  0.1089
  146MOL   C13532325   1.878   1.647   0.895 -0.5347  0.5185  0.7507
  146MOL   C13632326   1.757   1.590   0.937  0.1690 -0.6777 -0.5602
  146MOL   C13732327   1.676   1.523   0.847 -0.2756  0.2199 -0.9083
  146MOL   C13832328   1.714   1.524   0.713  0.3451 -0.0859  0.9038
  146MOL   C13932329   1.827   1.589   0.661  0.2446  0.2491 -0.3504
  146MOL   O14032330   1.843   1.600   0.529  0.0623 -0.0063  0.4777
  146MOL   H14132331   2.010   1.695   0.729  1.1695  0.8391  2.5122
  146MOL   H14232332   1.942   1.685   0.974 -0.1062  1.6940 -0.1378
  146MOL   H14332333   1.587   1.468   0.875  0.8325 -1.6453 -0.9382
  146MOL   H14432334   1.639   1.485   0.646  0.4132  0.0240  0.7629
  146MOL   C14532335   2.072   1.841   0.350 -0.6143 -0.0724 -0.0072
  146MOL   C14632336   2.024   1.722   0.413 -0.2537 -0.2605  0.6307
  146MOL   C14732337   1.899   1.717   0.478 -0.1225  0.1971 -1.0000
  146MOL   C14832338   1.819   1.836   0.474  0.3827  0.6870  0.2376
  146MOL   C14932339   1.866   1.955   0.421  0.3633  0.0871 -0.0209
  146MOL   C15032340   1.991   1.954   0.348 -0.2274 -0.2712  0.4549
  146MOL   O15132341   2.025   2.069   0.277 -0.2895  0.4136  0.0355
  146MOL   H15232342   2.170   1.860   0.307 -0.7262 -1.4674 -0.9373
  146MOL   H15332343   2.089   1.636   0.418  0.2779  0.1891  1.7342
  146MOL   H15432344   1.716   1.840   0.508  0.7423  1.1060  1.3139
  146MOL   H15532345   1.803   2.042   0.424  0.8388  0.4026  0.9293
  146MOL   C15632346   2.200   2.258   0.539  0.3081 -0.7738  0.5268
  146MOL   C15732347   2.158   2.152   0.458  0.1630  1.0411 -0.2988
  146MOL   C15832348   2.077   2.174   0.351 -0.0422 -0.1123  0.6610
  146MOL   C15932349   2.053   2.307   0.308  1.0225  0.3896 -0.2075
  146MOL   C16032350   2.103   2.416   0.385 -0.6358  0.3927  0.5709
  146MOL   C16132351   2.179   2.394   0.499 -0.8651  0.7315 -0.0364
  146MOL   O16232352   2.221   2.507   0.567  0.4079 -0.0829  0.0466
  146MOL   H16332353   2.237   2.240   0.638 -0.9784 -0.8586  1.0086
  146MOL   H16432354   2.159   2.051   0.496 -1.2375  1.1552  0.0678
  146MOL   H16532355   1.998   2.322   0.217  0.5596  1.9806  0.3123
  146MOL   H16632356   2.099   2.513   0.339  3.5376 -0.2575 -1.3803
  146MOL   C16732357   2.307   2.854   0.483  0.4028  0.1158 -0.3203
  146MOL   C16832358   2.242   2.741   0.520 -0.3334  0.0616 -0.3357
  146MOL   C16932359   2.291   2.608   0.502  0.0083 -0.7241 -0.5014
  146MOL   C17032360   2.406   2.592   0.417 -0.7317 -1.0119  0.2132
  146MOL   C17132361   2.464   2.707   0.364 -0.2118  0.1192  0.1266
  146MOL   C17232362   2.428   2.839   0.408 -0.2028  0.7487 -0.7386
  146MOL   O17332363   2.499   2.949   0.366  0.1357  0.6134 -0.0432
  146MOL   H17432364   2.269   2.950   0.515 -1.6246 -1.2488  1.5070
  146MOL   H17532365   2.149   2.763   0.570 -1.0432  0.2113 -1.6894
  146MOL   H17632366   2.441   2.491   0.403  1.4666 -0.1992 -0.4618
  146MOL   H17732367   2.541   2.705   0.288 -1.5327  1.0433 -1.2696
  146MOL   C17832368   2.863   3.009   0.393  0.0855  0.0524 -0.0599
  146MOL   C17932369   2.735   2.993   0.337  0.6300  0.6392  0.0990
  146MOL   C18032370   2.621   2.981   0.421  0.1162  0.3541  0.6976
  146MOL   C18132371   2.636   3.002   0.559  0.8549  0.6236  0.4455
  146MOL   C18232372   2.761   3.037   0.603  0.1469  0.5227  0.3727
  146MOL   C18332373   2.877   3.041   0.526  0.3438  0.2870  0.2331
  146MOL   O18432374   2.993   3.067   0.589 -0.6019 -0.0956 -0.1239
  146MOL   H18532375   2.950   3.014   0.329  0.9958 -1.0791  1.0421
  146MOL   H18632376   2.722   2.978   0.231 -1.0460  0.7146  0.2731
  146MOL   H18732377   2.548   2.992   0.620 -0.3716  0.4083 -1.3340
  146MOL   H18832378   2.779   3.065   0.706  1.3915  1.9222 -0.2013
  146MOL   C18932379   3.074   3.428   0.621  0.7321 -0.1056 -0.6757
  146MOL   C19032380   3.037   3.306   0.560 -0.0726 -0.0986 -0.7344
  146MOL   C19132381   3.023   3.191   0.639 -0.1389  0.1525  0.3015
  146MOL   C19232382   3.048   3.196   0.775  0.3093 -0.6155 -0.1617
  146MOL   C19332383   3.093   3.317   0.840  0.5527 -0.3028 -1.2207
  146MOL   C19432384   3.106   3.433   0.757 -0.1499  0.0995  1.0623
  146MOL   O19532385   3.141   3.556   0.813  0.4075 -0.7798  0.3400
  146MOL   H19632386   3.065   3.523   0.571 -1.6678 -0.3539 -0.8017
  146MOL   H19732387   3.015   3.303   0.454  0.5139 -0.5676 -0.8419
  146MOL   H19832388   3.028   3.110   0.837 -1.0435 -1.5703 -1.8682
  146MOL   H19932389   3.112   3.309   0.946 -0.2283 -1.0688 -1.1247
  146MOL   C20032390   2.820   3.717   0.904 -0.2031  0.7500  0.5798
  146MOL   C20132391   2.923   3.621   0.894 -0.1888  0.6728 -0.1860
  146MOL   C20232392   3.036   3.643   0.810  0.7793 -0.2133  0.3937
  146MOL   C20332393   3.042   3.760   0.732 -0.2948  0.1984 -0.0067
  146MOL   C20432394   2.934   3.849   0.729 -0.1622  0.0556  0.3454
  146MOL   C20532395   2.824   3.825   0.811  0.5216 -0.2279 -0.0041
  146MOL   O20632396   2.717   3.913   0.803 -0.1982  0.6595  0.1962
  146MOL   H20732397   2.733   3.686   0.961 -2.0652 -1.7619 -3.4485
  146MOL   H20832398   2.922   3.527   0.947  3.4148 -1.0402 -2.8966
  146MOL   H20932399   3.129   3.772   0.670  0.9922  1.7307  2.0465
  146MOL   H21032400   2.930   3.924   0.652 -2.4207 -0.7105 -0.3132
  146MOL   C21132401   2.734   4.276   0.799 -0.5365  0.2066  0.2713
  146MOL   C21232402   2.721   4.138   0.762  0.2960  0.0721  0.5250
  146MOL   C21332403   2.736   4.041   0.855 -0.6055 -0.3062 -0.2519
  146MOL   C21432404   2.783   4.067   0.989  0.5628  0.5574  0.0630
  146MOL   C21532405   2.806   4.199   1.022 -0.4794  1.2865 -0.0644
  146MOL   C21632406   2.777   4.296   0.929  0.0318 -0.6880 -0.7588
  146MOL   O21732407   2.782   4.431   0.959  0.1832 -0.0002 -0.5861
  146MOL   H21832408   2.737   4.364   0.738  1.4140  1.2174  1.7590
  146MOL   H21932409   2.698   4.106   0.661 -1.4278  0.6694  0.7120
  146MOL   H22032410   2.801   3.982   1.053  0.4863  1.1310  0.8450
  146MOL   H22132411   2.842   4.225   1.121  0.1236 -1.3094  0.4443
  146MOL   H22232412   2.838   4.455   1.032  0.0005  0.8027 -0.7072
  147MOL     C132413   7.896   5.859   6.363  0.0192  0.1545 -0.8262
  147MOL     C232414   8.023   5.831   6.309 -0.2194  0.0254 -0.0099
  147MOL     C332415   8.121   5.930   6.306  0.0655 -0.0991 -0.4519
  147MOL     C432416   8.090   6.060   6.338  0.1314 -0.2134  0.0074
  147MOL     C532417   7.968   6.085   6.402 -0.1961 -0.1302 -0.5535
  147MOL     C632418   7.874   5.984   6.414  0.5238  0.5028  0.3515
  147MOL     O732419   7.755   6.005   6.484  0.3165 -0.3665 -0.2286
  147MOL     H832420   7.820   5.781   6.370 -0.1503  0.5909  4.9096
  147MOL     H932421   8.042   5.733   6.268  2.5219  0.6793 -0.4222
  147MOL    H1032422   8.164   6.139   6.342 -1.2093  1.0197  1.9499
  147MOL    H1132423   7.966   6.180   6.454 -1.2993 -0.4043 -0.0954
  147MOL    H1232424   8.219   5.901   6.272 -1.3031 -2.7127 -2.3300
  147MOL    C1332425   7.415   5.931   6.380 -0.7359 -0.5886 -0.6078
  147MOL    C1432426   7.535   5.931   6.452  0.8060  0.2795 -0.4124
  147MOL    C1532427   7.636   6.015   6.413 -0.4023 -0.0754  0.3805
  147MOL    C1632428   7.619   6.102   6.301  0.3458 -0.3230  0.0916
  147MOL    C1732429   7.495   6.105   6.230 -0.4260  0.7322 -0.1166
  147MOL    C1832430   7.393   6.017   6.272  0.2315  0.1158  0.8198
  147MOL    O1932431   7.270   5.995   6.216 -0.1784 -0.1397 -0.0072
  147MOL    H2032432   7.334   5.871   6.418  0.5089 -0.8145  1.8008
  147MOL    H2132433   7.558   5.862   6.532  0.5291 -0.9386 -1.3602
  147MOL    H2232434   7.702   6.165   6.272 -0.2408  0.3392 -0.1500
  147MOL    H2332435   7.487   6.171   6.145  0.1651 -0.4957 -1.1499
  147MOL    C2432436   7.062   6.258   6.057  0.3289 -0.1117 -0.6918
  147MOL    C2532437   7.129   6.134   6.077 -0.6238 -0.0887  0.6267
  147MOL    C2632438   7.202   6.113   6.199 -0.2324  1.3436 -0.3785
  147MOL    C2732439   7.197   6.214   6.298  0.8079 -0.1463  0.0603
  147MOL    C2832440   7.119   6.334   6.280  0.5998  0.1473  0.5348
  147MOL    C2932441   7.061   6.357   6.157 -0.1471 -0.1512 -0.0627
  147MOL    O3032442   6.985   6.469   6.141 -0.7584 -0.2057 -0.3823
  147MOL    H3132443   7.014   6.279   5.963 -0.0014  1.6234 -0.1394
  147MOL    H3232444   7.136   6.062   5.998 -2.4851  0.4155 -0.0259
  147MOL    H3332445   7.255   6.193   6.386 -0.5186 -2.3081  0.4591
  147MOL    H3432446   7.116   6.406   6.360  2.3949  0.0941  0.6716
  147MOL    C3532447   6.632   6.350   6.117 -0.4147 -0.2221  0.5724
  147MOL    C3632448   6.770   6.345   6.144  0.2304 -0.1432  0.1587
  147MOL    C3732449   6.853   6.457   6.110  0.2819 -1.0232 -0.1143
  147MOL    C3832450   6.807   6.568   6.042  0.2509 -0.6654  0.2378
  147MOL    C3932451   6.669   6.567   6.013  0.7561  0.3928 -0.6110
  147MOL    C4032452   6.584   6.465   6.054  0.0051 -0.2625  0.3772
  147MOL    O4132453   6.447   6.482   6.045  0.9471 -0.0546 -0.0769
  147MOL    H4232454   6.572   6.269   6.156 -2.4034  0.8314 -0.2022
  147MOL    H4332455   6.804   6.255   6.193 -0.3489  0.0129  0.8641
  147MOL    H4432456   6.873   6.650   6.016  0.7642 -0.4053  2.2557
  147MOL    H4532457   6.627   6.649   5.956  1.3834 -0.0360 -1.6960
  147MOL    C4632458   6.304   6.247   5.796  1.1094  0.2007  0.5686
  147MOL    C4732459   6.388   6.347   5.852  0.2168 -0.2700 -0.3312
  147MOL    C4832460   6.364   6.388   5.984  0.4095 -0.1987  0.2265
  147MOL    C4932461   6.259   6.337   6.067 -0.0909 -0.1686 -0.0966
  147MOL    C5032462   6.179   6.233   6.007  0.0833  0.0528  0.2769
  147MOL    C5132463   6.202   6.198   5.879 -0.0346  0.2696  0.7814
  147MOL    O5232464   6.120   6.102   5.827  0.3025 -0.4256 -0.5940
  147MOL    H5332465   6.326   6.219   5.694 -1.0868 -0.2737  0.1885
  147MOL    H5432466   6.474   6.380   5.795 -0.6081  0.7747 -0.9814
  147MOL    H5532467   6.227   6.382   6.160 -1.2929 -1.3338  0.0822
  147MOL    H5632468   6.097   6.189   6.061 -0.0446 -0.0035  0.0364
  147MOL    C5732469   6.212   5.859   5.575  0.7980  0.0081 -0.1334
  147MOL    C5832470   6.141   5.960   5.639 -0.8258 -0.0268  0.3632
  147MOL    C5932471   6.179   5.994   5.771 -0.0837  0.6227  0.0170
  147MOL    C6032472   6.276   5.912   5.843 -0.6309 -0.3336 -0.0467
  147MOL    C6132473   6.361   5.825   5.769  0.0790 -0.2662  0.0478
  147MOL    C6232474   6.323   5.796   5.636 -1.2815  0.2154  0.1118
  147MOL    O6332475   6.389   5.698   5.571  0.0253 -0.2707 -0.1180
  147MOL    H6432476   6.181   5.844   5.472 -0.1180  0.7006  0.0345
  147MOL    H6532477   6.068   6.017   5.583 -1.1460  0.5794  1.3681
  147MOL    H6632478   6.292   5.938   5.947  1.0121 -0.5735 -0.2132
  147MOL    H6732479   6.444   5.772   5.812  1.5988  0.4403 -1.9193
  147MOL    C6832480   6.639   5.757   5.305 -0.0251 -0.1385 -0.2318
  147MOL    C6932481   6.519   5.743   5.373  0.1571 -0.4780 -0.2236
  147MOL    C7032482   6.508   5.727   5.515 -0.4859  0.0359  0.5986
  147MOL    C7132483   6.632   5.715   5.582 -0.4331  0.1450 -0.3657
  147MOL    C7232484   6.755   5.737   5.514  0.3188  0.0408 -0.5005
  147MOL    C7332485   6.761   5.751   5.375  0.6036 -0.1176 -0.4637
  147MOL    O7432486   6.873   5.744   5.307  0.4448  0.2881 -0.2163
  147MOL    H7532487   6.646   5.753   5.197 -0.5563  0.5988 -0.2910
  147MOL    H7632488   6.432   5.727   5.312  0.2147 -0.4995 -0.3009
  147MOL    H7732489   6.644   5.690   5.686  0.9345 -2.7589 -1.1853
  147MOL    H7832490   6.845   5.723   5.573 -0.4624  0.1056  0.7129
  147MOL    C7932491   7.165   5.960   5.326 -0.0761  0.7750 -0.1686
  147MOL    C8032492   7.083   5.849   5.343 -0.1217  0.3574  0.0358
  147MOL    C8132493   6.946   5.856   5.300  0.1671 -0.3592 -0.6724
  147MOL    C8232494   6.904   5.982   5.246  0.2361 -0.0500 -0.4195
  147MOL    C8332495   6.991   6.092   5.237 -0.2536  0.6087 -0.1673
  147MOL    C8432496   7.123   6.081   5.271 -0.0800 -0.0015 -0.2977
  147MOL    O8532497   7.217   6.180   5.245  0.0628  0.4213  0.3704
  147MOL    H8632498   7.270   5.950   5.349 -0.8127 -1.4449  2.4906
  147MOL    H8732499   7.122   5.758   5.388  0.9144 -0.0543 -1.6687
  147MOL    H8832500   6.812   5.991   5.191 -0.2568  0.1447  0.4254
  147MOL    H8932501   6.960   6.175   5.175  0.6134 -0.0455 -1.4962
  147MOL    C9032502   7.137   6.466   5.471 -0.0397  0.6641  0.5182
  147MOL    C9132503   7.122   6.358   5.381 -0.1835 -0.1284  0.4269
  147MOL    C9232504   7.236   6.276   5.342  0.2198 -0.0792 -0.3779
  147MOL    C9332505   7.364   6.293   5.405  0.2126 -0.4377  0.3385
  147MOL    C9432506   7.373   6.392   5.507 -1.0042  0.1551  0.0748
  147MOL    C9532507   7.259   6.474   5.542 -0.2984  0.3645 -0.6339
  147MOL    O9632508   7.267   6.567   5.644  0.0536 -0.4475 -0.0211
  147MOL    H9732509   7.055   6.534   5.489 -0.6392  0.0592  0.1158
  147MOL    H9832510   7.024   6.342   5.339  0.6858 -1.0798 -1.2903
  147MOL    H9932511   7.449   6.245   5.358  0.1169 -0.7601  0.4956
  147MOL   H10032512   7.463   6.405   5.564 -2.1505  1.4796  1.6279
  147MOL   C10132513   7.400   6.868   5.478  0.4951  0.2548  0.5145
  147MOL   C10232514   7.318   6.757   5.505 -0.2396  0.1754 -0.2019
  147MOL   C10332515   7.349   6.673   5.615  0.4580  0.1697  0.7265
  147MOL   C10432516   7.457   6.698   5.700  0.1095 -0.8458 -0.4944
  147MOL   C10532517   7.533   6.816   5.676 -0.1560 -0.2630 -0.2419
  147MOL   C10632518   7.507   6.899   5.562  1.0043 -0.0522  0.0842
  147MOL   O10732519   7.586   7.005   5.543  0.0590 -0.4582 -0.3161
  147MOL   H10832520   7.385   6.931   5.392 -2.9070  1.7157  2.1055
  147MOL   H10932521   7.235   6.737   5.440 -1.1116  1.1810  0.5838
  147MOL   H11032522   7.477   6.645   5.792  0.4661 -0.3190 -0.2712
  147MOL   H11132523   7.619   6.838   5.738  1.1930 -2.0357 -1.4323
  147MOL   C11232524   7.782   6.963   5.228  1.3115 -0.0650  0.5062
  147MOL   C11332525   7.722   6.943   5.354 -0.2558 -0.2261 -0.3293
  147MOL   C11432526   7.640   7.033   5.420 -0.5451 -0.3557  0.0888
  147MOL   C11532527   7.613   7.156   5.356  0.0251 -0.1232  0.9919
  147MOL   C11632528   7.669   7.176   5.229  0.7007 -0.1520 -0.0054
  147MOL   C11732529   7.757   7.086   5.163  0.8421 -0.2044 -0.1093
  147MOL   O11832530   7.810   7.104   5.042  0.4006  0.1495  0.5740
  147MOL   H11932531   7.849   6.886   5.192  0.3792 -1.0977  0.9728
  147MOL   H12032532   7.741   6.852   5.410 -0.3726 -0.1811 -0.2159
  147MOL   H12132533   7.552   7.236   5.394 -0.8586 -1.2549  1.9945
  147MOL   H12232534   7.643   7.264   5.172 -0.4895 -0.4384  0.0775
  147MOL   C12332535   8.107   7.318   5.096 -0.2483  0.4536 -0.1990
  147MOL   C12432536   8.023   7.206   5.087  0.2133 -0.5449  0.1970
  147MOL   C12532537   7.899   7.207   5.024  0.6473 -0.8291  0.1857
  147MOL   C12632538   7.857   7.325   4.956 -0.4641 -0.2373 -0.1233
  147MOL   C12732539   7.945   7.441   4.958 -0.3287  0.4422  0.2514
  147MOL   C12832540   8.065   7.431   5.025 -0.3750 -0.6788 -0.0451
  147MOL   O12932541   8.149   7.544   5.025  0.4965 -0.0826 -0.2828
  147MOL   H13032542   8.197   7.327   5.155 -0.0658  0.2761 -0.4468
  147MOL   H13132543   8.045   7.111   5.134 -1.3067 -1.3435 -0.6355
  147MOL   H13232544   7.761   7.317   4.906  0.1616 -3.7505 -0.8666
  147MOL   H13332545   7.918   7.532   4.907  3.6874  1.0751 -0.9271
  147MOL   C13432546   0.253   7.500   4.978  0.3001 -0.8671  0.4100
  147MOL   C13532547   0.134   7.507   5.045  0.0051 -0.1014  0.1643
  147MOL   C13632548   0.013   7.526   4.966  0.8486 -0.2174 -0.4410
  147MOL   C13732549   0.021   7.529   4.826 -0.1409  0.4279  0.1982
  147MOL   C13832550   0.146   7.524   4.765 -0.1848  0.3707 -0.2701
  147MOL   C13932551   0.262   7.505   4.837 -0.4208 -0.3331 -0.1166
  147MOL   O14032552   0.379   7.488   4.762 -0.3284  0.4736 -0.0739
  147MOL   H14132553   0.341   7.485   5.038 -0.5188  0.8551  2.0633
  147MOL   H14232554   0.130   7.507   5.153 -1.2180 -3.0998  0.1907
  147MOL   H14332555   8.185   7.538   4.766  0.6966  0.0354 -1.1138
  147MOL   H14432556   0.143   7.532   4.657  1.4121  0.1567 -0.3360
  147MOL   C14532557   0.636   7.737   4.682  0.1204  0.3894 -0.3647
  147MOL   C14632558   0.518   7.660   4.666  0.1717 -0.8032  0.5135
  147MOL   C14732559   0.480   7.579   4.775 -0.3667  0.6967 -0.0366
  147MOL   C14832560   0.567   7.569   4.892 -0.0491  0.5211 -0.3330
  147MOL   C14932561   0.677   7.659   4.907  0.1900  0.4267  0.0819
  147MOL   C15032562   0.716   7.739   4.801  0.1899 -0.3876 -0.5092
  147MOL   O15132563   0.838   7.800   4.806 -0.1357 -0.6192  0.9737
  147MOL   H15232564   0.670   7.805   4.606 -0.4480 -1.9978 -2.8425
  147MOL   H15332565   0.456   7.672   4.579  0.4458  0.5789  0.4948
  147MOL   H15432566   0.556   7.496   4.970  1.3818 -0.9929 -1.4880
  147MOL   H15532567   0.750   7.643   4.985 -1.3278  0.9458  1.6390
  147MOL   C15632568   0.824   8.155   4.678 -0.2980  0.2891 -0.2790
  147MOL   C15732569   0.841   8.017   4.685 -0.7261  0.3018  0.1176
  147MOL   C15832570   0.831   7.941   4.805  0.2817 -0.8166 -0.0278
  147MOL   C15932571   0.812   8.013   4.926 -0.5117 -0.1492  0.3005
  147MOL   C16032572   0.796   8.153   4.924 -0.3258 -0.3130  0.5779
  147MOL   C16132573   0.799   8.226   4.802  0.0499  0.2281  0.4587
  147MOL   O16232574   0.772   0.108   4.794  0.7392  0.1733 -0.3183
  147MOL   H16332575   0.852   8.212   4.591  3.1761 -0.6198  0.1991
  147MOL   H16432576   0.871   7.974   4.590  0.0002 -2.0108  1.3732
  147MOL   H16532577   0.813   7.948   5.012  1.3752  0.9842  1.1623
  147MOL   H16632578   0.787   8.197   5.023  1.4757  0.1454  0.5402
  147MOL   C16732579   0.922   0.279   5.080 -0.2243 -0.5850  0.3736
  147MOL   C16832580   0.904   0.201   4.960 -0.2103 -0.0909 -0.0148
  147MOL   C16932581   0.775   0.177   4.911 -0.3445 -0.1603 -0.2032
  147MOL   C17032582   0.656   0.214   4.981 -0.4428  0.0451  0.1493
  147MOL   C17132583   0.676   0.289   5.101 -0.0748 -0.0974 -0.1979
  147MOL   C17232584   0.805   0.327   5.147  0.6308  0.0514 -0.0141
  147MOL   O17332585   0.820   0.408   5.259  0.0943 -0.5183 -0.3597
  147MOL   H17432586   1.020   0.312   5.111 -0.8111  1.1638  0.4159
  147MOL   H17532587   0.994   0.161   4.916  0.4564  0.1735  1.0792
  147MOL   H17632588   0.556   0.193   4.947 -0.4825  0.0864  0.2417
  147MOL   H17732589   0.587   0.322   5.153 -0.6745 -1.5065 -0.2915
  147MOL   C17832590   1.006   0.417   5.580  0.4577  0.2181  0.2423
  147MOL   C17932591   0.952   0.450   5.453 -0.5249 -0.5927 -0.3227
  147MOL   C18032592   0.877   0.362   5.381  0.2860 -0.0458  0.1008
  147MOL   C18132593   0.877   0.224   5.420  0.1245 -0.1671  0.1287
  147MOL   C18232594   0.937   0.188   5.541  0.0153  0.0209  0.0523
  147MOL   C18332595   0.992   0.284   5.626 -0.8978  0.2024  0.2108
  147MOL   O18432596   1.038   0.247   5.748 -0.2553  0.3131 -0.0890
  147MOL   H18532597   1.050   0.496   5.638  0.2746  0.8843 -0.5091
  147MOL   H18632598   0.965   0.554   5.426  1.1692 -1.2406 -2.1279
  147MOL   H18732599   0.837   0.142   5.362  0.9808  1.1744 -2.4311
  147MOL   H18832600   0.916   0.089   5.578  2.2374 -0.8761 -1.0228
  147MOL   C18932601   0.877   0.186   6.071  0.1797 -0.4544  0.5366
  147MOL   C19032602   0.948   0.164   5.950 -0.5159 -0.0179  0.1904
  147MOL   C19132603   0.956   0.271   5.856  0.6049  0.3251  0.3520
  147MOL   C19232604   0.884   0.392   5.878  0.6524 -0.9539 -1.0340
  147MOL   C19332605   0.805   0.403   5.997 -0.4125 -0.7301 -0.2683
  147MOL   C19432606   0.815   0.307   6.092  1.0444  0.2242  0.0884
  147MOL   O19532607   0.739   0.320   6.206  0.1615  0.3030  0.0442
  147MOL   H19632608   0.871   0.109   6.146  1.4144  0.0041  1.1288
  147MOL   H19732609   1.003   0.073   5.930 -1.8853 -0.5796 -1.0949
  147MOL   H19832610   0.889   0.476   5.810  2.0300  0.0817  0.2714
  147MOL   H19932611   0.748   0.493   6.014  1.4575  0.3007  0.7769
  147MOL   C20032612   0.966   0.405   6.486 -0.9490 -0.1493 -0.5230
  147MOL   C20132613   0.913   0.338   6.373 -1.0914  0.5239 -0.1947
  147MOL   C20232614   0.797   0.393   6.309  0.0733 -0.9040  1.2708
  147MOL   C20332615   0.736   0.504   6.357  0.2890 -0.6031  0.0073
  147MOL   C20432616   0.795   0.588   6.453 -0.2427  0.1869 -0.4855
  147MOL   C20532617   0.906   0.525   6.523 -0.5553  0.6061  0.1028
  147MOL   O20632618   0.958   0.603   6.627  0.5089 -0.0919 -0.1316
  147MOL   H20732619   1.054   0.362   6.531 -0.7321 -0.4272 -1.2037
  147MOL   H20832620   0.958   0.244   6.346  0.0556  0.2674  2.4026
  147MOL   H20932621   0.639   0.531   6.318 -0.2086  0.1464  1.7011
  147MOL   H21032622   0.743   0.675   6.492 -0.3968 -0.6893  1.3122
  147MOL   C21132623   0.821   0.673   6.959 -0.0582 -0.1012 -0.0202
  147MOL   C21232624   0.858   0.684   6.828  0.5316 -0.3054  0.4338
  147MOL   C21332625   0.910   0.575   6.750 -0.3260 -0.4065  0.1445
  147MOL   C21432626   0.923   0.451   6.820 -0.2875  0.1202  0.1535
  147MOL   C21532627   0.902   0.441   6.958 -1.0545 -0.5287 -0.3108
  147MOL   C21632628   0.842   0.549   7.028 -0.6881  0.6097 -0.0882
  147MOL   O21732629   0.831   0.545   7.166  0.7024 -0.3759 -0.0114
  147MOL   H21832630   0.784   0.753   7.021  1.3041  0.0941  0.5422
  147MOL   H21932631   0.860   0.782   6.784  0.0266  0.8777  2.9737
  147MOL   H22032632   0.944   0.359   6.766  0.4621 -0.3543  1.2416
  147MOL   H22132633   0.931   0.348   7.003 -0.2390 -0.9871 -1.7398
  147MOL   H22232634   0.739   0.533   7.185  0.5791 -0.7555 -0.8299
  148MOL     C132635   1.108   1.095   5.294 -0.0125  0.6552  0.2958
  148MOL     C232636   1.118   1.214   5.218 -0.3867  0.2380 -0.1891
  148MOL     C332637   1.184   1.210   5.092 -0.2879  0.2113 -0.3974
  148MOL     C432638   1.246   1.090   5.048 -0.7696 -0.3357  0.6573
  148MOL     C532639   1.243   0.972   5.136 -0.0028 -0.0375 -0.0822
  148MOL     C632640   1.178   0.976   5.260  0.3028  0.3396  0.1370
  148MOL     O732641   1.173   0.865   5.339  0.7916  0.3095  0.5352
  148MOL     H832642   1.047   1.096   5.383  1.3330  3.2603  1.2639
  148MOL     H932643   1.063   1.299   5.257 -1.1261 -0.6655  0.7633
  148MOL    H1032644   1.301   1.086   4.955  0.4038 -1.7640  1.3894
  148MOL    H1132645   1.304   0.887   5.112  0.4618  0.1435  0.4373
  148MOL    H1232646   1.202   1.296   5.030 -0.2769 -0.1537 -0.8999
  148MOL    C1332647   1.482   0.900   5.537 -0.9638  0.2752 -0.1164
  148MOL    C1432648   1.380   0.936   5.450 -0.6526 -0.0572  0.3391
  148MOL    C1532649   1.274   0.844   5.432  0.6170 -0.4339 -0.4208
  148MOL    C1632650   1.268   0.727   5.511 -0.1485  0.5033  0.0890
  148MOL    C1732651   1.372   0.694   5.603  0.7103  0.3691 -0.4341
  148MOL    C1832652   1.482   0.777   5.608 -0.2899  0.4333 -0.8292
  148MOL    O1932653   1.589   0.742   5.686 -0.0005  0.6016 -0.6479
  148MOL    H2032654   1.564   0.969   5.547  2.0412 -3.2075  0.1911
  148MOL    H2132655   1.385   1.036   5.408 -3.2529  0.6256  1.5741
  148MOL    H2232656   1.185   0.660   5.496 -0.3241  0.9828 -1.1144
  148MOL    H2332657   1.369   0.600   5.657  1.1371  1.3028  1.2220
  148MOL    C2432658   1.735   0.483   5.461 -1.1621  0.3905  0.1728
  148MOL    C2532659   1.643   0.550   5.538 -0.3938 -0.7727 -0.3682
  148MOL    C2632660   1.681   0.668   5.616  0.6421  0.1490  0.1619
  148MOL    C2732661   1.812   0.719   5.595 -0.3116  0.0697  0.5393
  148MOL    C2832662   1.895   0.655   5.499 -0.5289  0.3627  0.2395
  148MOL    C2932663   1.862   0.538   5.437 -0.1279  0.4850 -0.4127
  148MOL    O3032664   1.958   0.473   5.372  0.3185 -0.0030  0.3142
  148MOL    H3132665   1.696   0.397   5.409 -0.1954  1.4503 -2.3806
  148MOL    H3232666   1.541   0.515   5.543  0.4527 -3.0661  2.4246
  148MOL    H3332667   1.845   0.809   5.646  0.4633  0.1409 -0.0610
  148MOL    H3432668   1.984   0.711   5.476 -0.3348  0.2632  0.7508
  148MOL    C3532669   1.905   0.197   5.138 -0.0907  0.3506  0.1688
  148MOL    C3632670   1.921   0.329   5.189 -0.3657  0.3110 -0.1064
  148MOL    C3732671   1.938   0.345   5.328  0.1475  0.1255  0.4769
  148MOL    C3832672   1.955   0.232   5.406 -0.1495  0.0540 -0.5395
  148MOL    C3932673   1.946   0.101   5.354 -0.6178  0.3312 -0.0667
  148MOL    C4032674   1.917   0.081   5.222  0.0154  0.2119  0.6925
  148MOL    O4132675   1.896   8.207   5.171 -0.2131  0.2032 -0.4272
  148MOL    H4232676   1.890   0.190   5.031 -0.6409  0.5664  0.2292
  148MOL    H4332677   1.917   0.416   5.125  2.1969 -0.1457 -0.9418
  148MOL    H4432678   2.005   0.246   5.501 -0.8460 -1.4588  0.0607
  148MOL    H4532679   1.982   0.022   5.419 -0.8087 -0.2528 -0.6642
  148MOL    C4632680   1.617   8.032   5.347 -0.3853 -0.0607 -0.2948
  148MOL    C4732681   1.740   8.102   5.328  0.0318  0.4039  0.4934
  148MOL    C4832682   1.773   8.153   5.198 -0.1465 -0.7432  0.0462
  148MOL    C4932683   1.685   8.130   5.092  0.0414  0.2137 -0.5596
  148MOL    C5032684   1.564   8.061   5.111 -0.2495  0.8202 -0.0546
  148MOL    C5132685   1.528   8.020   5.239  0.8388  0.6099  0.3692
  148MOL    O5232686   1.408   7.965   5.259  0.2748 -0.1683  0.3473
  148MOL    H5332687   1.608   7.990   5.446  1.8255 -0.8910 -0.4257
  148MOL    H5432688   1.803   8.110   5.416  0.0049  0.2277  0.5280
  148MOL    H5532689   1.716   8.163   4.994 -0.7493  0.1822 -0.8198
  148MOL    H5632690   1.493   8.047   5.030  0.6328  0.3794 -0.7583
  148MOL    C5732691   1.266   7.808   5.556  0.4087 -0.4968  0.8898
  148MOL    C5832692   1.287   7.909   5.455 -0.0057 -0.0748 -0.4807
  148MOL    C5932693   1.383   7.876   5.356 -0.1543 -0.0387 -0.4394
  148MOL    C6032694   1.448   7.752   5.356  0.4416 -1.0772 -0.1813
  148MOL    C6132695   1.415   7.651   5.447 -0.0171 -0.2766  0.8954
  148MOL    C6232696   1.325   7.685   5.549  0.0149  0.0468 -0.1101
  148MOL    O6332697   1.302   7.589   5.642 -0.0838 -0.3037 -0.1518
  148MOL    H6432698   1.181   7.823   5.622  2.4243 -1.4281  3.8107
  148MOL    H6532699   1.240   8.006   5.452 -0.9849 -0.3269  3.7316
  148MOL    H6632700   1.511   7.726   5.273  0.0042  0.1211 -0.8959
  148MOL    H6732701   1.455   7.550   5.444  4.2285  1.2475  3.1095
  148MOL    C6832702   1.457   7.704   5.949 -0.0775 -0.3612  0.2040
  148MOL    C6932703   1.426   7.689   5.817  1.1642  0.0528 -0.6146
  148MOL    C7032704   1.311   7.621   5.773  0.3755 -0.7556 -0.1611
  148MOL    C7132705   1.226   7.570   5.871  0.5027  0.0848  0.0198
  148MOL    C7232706   1.260   7.585   6.008 -0.1435 -0.3882  0.1933
  148MOL    C7332707   1.373   7.652   6.054 -0.0831  0.8361  0.9526
  148MOL    O7432708   1.395   7.678   6.188  0.1275 -0.3908 -0.0235
  148MOL    H7532709   1.540   7.763   5.986 -0.9538  0.2353  1.2825
  148MOL    H7632710   1.509   7.710   5.751  2.5211 -1.7993  0.4516
  148MOL    H7732711   1.133   7.521   5.844  0.6730 -1.1267  1.5188
  148MOL    H7832712   1.196   7.533   6.078 -1.4525  0.9374 -0.0021
  148MOL    C7932713   1.578   7.435   6.395  0.2273 -0.8236 -0.1080
  148MOL    C8032714   1.555   7.545   6.311  0.2645 -1.0686  0.9083
  148MOL    C8132715   1.417   7.578   6.277 -0.5584  0.1819  0.0969
  148MOL    C8232716   1.313   7.507   6.342 -0.0663 -0.3469 -0.3354
  148MOL    C8332717   1.345   7.410   6.434 -0.5453  0.3696 -0.2184
  148MOL    C8432718   1.475   7.370   6.464 -0.1947  0.2030 -0.4676
  148MOL    O8532719   1.491   7.271   6.554 -0.1232 -0.0007  0.7578
  148MOL    H8632720   1.682   7.408   6.406  0.7907  0.2639 -2.4018
  148MOL    H8732721   1.642   7.591   6.267 -0.2604  0.8368  1.8165
  148MOL    H8832722   1.211   7.529   6.316 -0.5636  0.3294  2.0763
  148MOL    H8932723   1.261   7.355   6.473 -0.8564  0.3976 -0.8310
  148MOL    C9032724   1.624   7.430   6.865 -0.3457 -0.2451 -0.4219
  148MOL    C9132725   1.552   7.413   6.747  0.2724  0.9305 -1.0299
  148MOL    C9232726   1.572   7.302   6.660  0.0538  0.1414 -0.0311
  148MOL    C9332727   1.671   7.208   6.698 -0.2031 -0.3442  0.3635
  148MOL    C9432728   1.747   7.223   6.812 -0.7497 -0.5874  0.2456
  148MOL    C9532729   1.717   7.328   6.899  0.2319  0.1201 -0.1434
  148MOL    O9632730   1.794   7.336   7.016 -0.0923  0.3684  0.7730
  148MOL    H9732731   1.603   7.518   6.923  0.6469  3.4745 -5.3036
  148MOL    H9832732   1.465   7.469   6.717  1.1501  2.8888  0.0079
  148MOL    H9932733   1.669   7.120   6.635 -1.7640  0.1325 -0.2642
  148MOL   H10032734   1.812   7.140   6.833  1.5948  0.5912 -2.0513
  148MOL   C10132735   2.162   7.336   7.018  0.3898  0.6575 -0.1715
  148MOL   C10232736   2.035   7.291   7.018  0.0074 -0.2696  0.1471
  148MOL   C10332737   1.924   7.381   7.005  0.2048 -0.4466 -0.4268
  148MOL   C10432738   1.950   7.520   6.978  0.0001 -0.2351 -0.6287
  148MOL   C10532739   2.079   7.565   6.994  0.2690  0.1121 -0.2619
  148MOL   C10632740   2.185   7.475   7.017 -0.3729 -0.0869  0.8210
  148MOL   O10732741   2.315   7.517   7.037  0.3893 -0.1728 -0.2439
  148MOL   H10832742   2.244   7.265   7.024 -0.7878 -0.7169 -0.0441
  148MOL   H10932743   2.006   7.187   7.023 -2.9807  0.4917 -0.2081
  148MOL   H11032744   1.871   7.593   6.979 -1.4039 -1.7119  1.0622
  148MOL   H11132745   2.113   7.667   6.986  3.2090 -0.7223  0.6021
  148MOL   C11232746   2.511   7.462   7.339 -0.4653 -0.1979 -1.0009
  148MOL   C11332747   2.463   7.458   7.209 -0.4260 -0.3719  0.5299
  148MOL   C11432748   2.355   7.540   7.168 -0.1211  0.0966 -0.2001
  148MOL   C11532749   2.293   7.625   7.261  0.0819  0.5406 -0.2520
  148MOL   C11632750   2.342   7.629   7.395 -1.2049  0.9356  0.4013
  148MOL   C11732751   2.453   7.553   7.431 -0.0546  0.1305  0.8588
  148MOL   O11832752   2.517   7.576   7.546 -0.4787  0.0902 -0.3770
  148MOL   H11932753   2.603   7.414   7.369  2.1024  3.2891 -3.0131
  148MOL   H12032754   2.507   7.385   7.142  0.7765  0.3922  0.4692
  148MOL   H12132755   2.202   7.675   7.229  0.1329  0.6438 -0.2312
  148MOL   H12232756   2.295   7.698   7.464 -0.3005  1.7541  0.1904
  148MOL   C12332757   2.369   7.502   7.873  0.1300  0.1937 -0.2383
  148MOL   C12432758   2.410   7.571   7.759  0.0426 -0.6279 -0.7894
  148MOL   C12532759   2.484   7.504   7.656 -0.2032 -0.1884  0.3164
  148MOL   C12632760   2.518   7.370   7.670 -0.1142  0.4658 -0.0021
  148MOL   C12732761   2.483   7.301   7.789  0.3049 -0.3926  0.0423
  148MOL   C12832762   2.410   7.367   7.890 -0.2960 -0.3170 -0.8348
  148MOL   O12932763   2.372   7.301   7.997  0.2166  0.3098  0.0386
  148MOL   H13032764   2.317   7.557   7.950  1.0913 -1.9364  2.0277
  148MOL   H13132765   2.384   7.676   7.759 -1.7301 -1.0273  0.7000
  148MOL   H13232766   2.565   7.315   7.589  0.1039 -0.4458  0.7296
  148MOL   H13332767   2.514   7.198   7.787  0.7437 -0.2812  1.0578
  148MOL   C13432768   2.008   7.214   7.927 -0.1814 -0.0244  0.3922
  148MOL   C13532769   2.124   7.295   7.952  0.8569  0.0594  0.8065
  148MOL   C13632770   2.248   7.236   7.991 -0.6670  0.5035 -0.8047
  148MOL   C13732771   2.252   7.096   8.014  0.1434 -0.1725  0.5510
  148MOL   C13832772   2.138   7.010   7.988  0.4991 -0.1290 -0.4884
  148MOL   C13932773   2.021   7.075   7.950  0.0960 -0.6038  0.5693
  148MOL   O14032774   1.898   7.015   7.931  0.1927  0.5525 -0.3375
  148MOL   H14132775   1.917   7.253   7.884 -1.1973 -2.6133  0.0786
  148MOL   H14232776   2.130   7.401   7.931  1.1398 -0.4626 -1.9333
  148MOL   H14332777   2.343   7.046   8.042  0.9304  1.1990  0.4907
  148MOL   H14432778   2.145   6.904   8.003 -0.1624  0.0395  1.1523
  148MOL   C14532779   1.829   6.655   7.873 -0.4790 -0.8075  0.2897
  148MOL   C14632780   1.832   6.785   7.929  0.2500 -0.2302  0.2696
  148MOL   C14732781   1.897   6.894   7.870  0.0420 -0.5828 -0.5767
  148MOL   C14832782   1.943   6.872   7.735 -0.4030 -0.0674  0.1599
  148MOL   C14932783   1.935   6.745   7.676 -0.0965 -0.2646 -0.3121
  148MOL   C15032784   1.886   6.633   7.750  0.2255 -1.3355  0.0970
  148MOL   O15132785   1.881   6.503   7.705  0.5490  0.2405 -0.1846
  148MOL   H15232786   1.788   6.572   7.929 -0.7591  0.9502  2.7672
  148MOL   H15332787   1.787   6.792   8.027  0.3911  1.1410  0.2585
  148MOL   H15432788   1.973   6.954   7.671  0.8846 -1.2511 -0.7891
  148MOL   H15532789   1.959   6.727   7.572  1.5242  0.8439 -0.1466
  148MOL   C15632790   1.620   6.467   7.441  0.4680 -0.1969  0.2073
  148MOL   C15732791   1.677   6.496   7.568  0.0224  0.2135 -1.1871
  148MOL   C15832792   1.814   6.481   7.586 -0.0230  0.4508  0.3106
  148MOL   C15932793   1.897   6.435   7.478 -0.5916  0.4205  1.1263
  148MOL   C16032794   1.841   6.416   7.355 -0.4294 -0.1646 -0.7398
  148MOL   C16132795   1.701   6.436   7.329 -0.8495 -0.1223 -0.1594
  148MOL   O16232796   1.652   6.409   7.199 -0.4906 -0.0650 -0.0739
  148MOL   H16332797   1.514   6.484   7.429  0.3782  1.5946  3.2690
  148MOL   H16432798   1.618   6.527   7.653  2.0753 -1.5397  0.9353
  148MOL   H16532799   1.998   6.405   7.503 -0.1785 -1.0838 -2.1746
  148MOL   H16632800   1.900   6.388   7.269  1.2547  1.9857 -0.3381
  148MOL   C16732801   1.649   6.043   7.147 -0.2664 -0.0239 -0.0167
  148MOL   C16832802   1.638   6.167   7.213 -0.5465 -0.4384 -0.1728
  148MOL   C16932803   1.665   6.284   7.145  0.6019  0.9874  0.7654
  148MOL   C17032804   1.699   6.271   7.005 -0.0211 -0.5564  0.2910
  148MOL   C17132805   1.715   6.146   6.938  0.4389 -0.0266  0.3004
  148MOL   C17232806   1.685   6.032   7.008  0.2894 -0.5056  0.1876
  148MOL   O17332807   1.707   5.907   6.945  0.1754 -0.1385 -0.3439
  148MOL   H17432808   1.619   5.956   7.203  1.2412 -0.1963  0.5483
  148MOL   H17532809   1.612   6.165   7.318 -1.7836 -0.7510 -0.4800
  148MOL   H17632810   1.724   6.361   6.950  2.0282 -0.7776  0.8453
  148MOL   H17732811   1.744   6.141   6.834 -0.1667  0.5787  0.1016
  148MOL   C17832812   1.457   5.820   6.689 -0.3826  0.6833  0.3226
  148MOL   C17932813   1.552   5.894   6.762  0.2217 -0.3589  0.6116
  148MOL   C18032814   1.610   5.845   6.882 -0.2051  0.5331 -0.1756
  148MOL   C18132815   1.559   5.725   6.933  0.6558 -0.0444  0.5218
  148MOL   C18232816   1.450   5.661   6.868 -0.2965  0.4615  0.6842
  148MOL   C18332817   1.400   5.701   6.740  0.4705  0.0624 -0.5926
  148MOL   O18432818   1.305   5.618   6.688 -0.1940  0.6647  0.0159
  148MOL   H18532819   1.416   5.859   6.597 -0.1718  1.0528  0.3831
  148MOL   H18632820   1.595   5.984   6.719  1.3852 -0.4348  1.5742
  148MOL   H18732821   1.584   5.694   7.033 -0.7139 -0.0657  0.8711
  148MOL   H18832822   1.396   5.583   6.919  1.0235 -0.1706  1.1427
  148MOL   C18932823   1.266   5.669   6.322  0.3140  0.5496  0.4523
  148MOL   C19032824   1.323   5.627   6.445 -0.3365 -0.1692  0.0796
  148MOL   C19132825   1.263   5.669   6.571 -0.1793 -0.0596  0.3534
  148MOL   C19232826   1.154   5.765   6.570 -0.2541  0.7896  0.2203
  148MOL   C19332827   1.110   5.809   6.448 -0.6577  0.3948 -0.0078
  148MOL   C19432828   1.155   5.754   6.323 -0.0552 -0.5994 -0.8132
  148MOL   O19532829   1.093   5.788   6.206  0.0228 -0.0997  0.6282
  148MOL   H19632830   1.305   5.629   6.229 -3.1366  1.7848 -1.6316
  148MOL   H19732831   1.399   5.551   6.437 -0.6956 -0.3281 -1.9804
  148MOL   H19832832   1.120   5.801   6.667  0.1403 -0.8105  0.9696
  148MOL   H19932833   1.030   5.881   6.453 -1.6090 -0.5130 -1.6459
  148MOL   C20032834   1.250   6.051   6.008 -0.3632  0.8688  0.4215
  148MOL   C20132835   1.212   5.931   6.057  0.2804  1.0774  0.1655
  148MOL   C20232836   1.116   5.913   6.161  0.3354  0.4464  0.1062
  148MOL   C20332837   1.058   6.030   6.214  0.0390  0.1470 -0.3208
  148MOL   C20432838   1.104   6.159   6.173 -0.3830  0.3696  0.0631
  148MOL   C20532839   1.194   6.165   6.066  0.1068 -0.1387 -0.0347
  148MOL   O20632840   1.232   6.292   6.029 -0.0742 -0.3044 -0.7680
  148MOL   H20732841   1.323   6.058   5.929  0.5072 -0.1934  1.1245
  148MOL   H20832842   1.246   5.842   6.007 -0.2562  0.9734 -0.0209
  148MOL   H20932843   0.973   6.026   6.281 -0.9577  1.2568 -1.4794
  148MOL   H21032844   1.055   6.248   6.211 -1.3151  1.1746 -2.9127
  148MOL   C21132845   1.534   6.398   6.211 -0.1380  0.0249  0.0948
  148MOL   C21232846   1.437   6.313   6.155  0.5891  0.3088 -0.2277
  148MOL   C21332847   1.321   6.371   6.097  0.1752 -0.3831  0.1498
  148MOL   C21432848   1.305   6.509   6.084 -0.2606 -0.2153 -0.0088
  148MOL   C21532849   1.402   6.596   6.145 -0.2622  0.0761 -0.6241
  148MOL   C21632850   1.513   6.536   6.212 -0.3117  0.0392 -0.3527
  148MOL   O21732851   1.602   6.618   6.287 -0.0547  0.8967  0.3777
  148MOL   H21832852   1.612   6.342   6.260 -0.6630 -0.8250 -0.0055
  148MOL   H21932853   1.453   6.206   6.157 -0.2686  0.1798  2.3850
  148MOL   H22032854   1.224   6.548   6.023  0.7904  0.1933 -1.1583
  148MOL   H22132855   1.382   6.702   6.147 -0.1892  0.0888  1.7621
  148MOL   H22232856   1.621   6.700   6.245 -0.2746 -0.2976 -2.1878
  149MOL     C132857   4.026   8.016   7.455 -0.3675 -0.5881  0.9587
  149MOL     C232858   4.060   8.011   7.319 -0.6270  0.2382 -0.0478
  149MOL     C332859   4.181   7.936   7.282  0.5087 -0.1134  0.0599
  149MOL     C432860   4.253   7.862   7.373  0.0931 -0.7253  0.3682
  149MOL     C532861   4.213   7.861   7.509  0.0645  0.2034  0.1614
  149MOL     C632862   4.101   7.942   7.546 -0.1668 -0.3132 -1.0097
  149MOL     O732863   4.070   7.947   7.675  0.3251 -0.3189 -0.1405
  149MOL     H832864   3.930   8.055   7.483 -1.5933 -2.3822 -0.5978
  149MOL     H932865   4.002   8.065   7.246 -0.6496  1.2178  0.6819
  149MOL    H1032866   4.341   7.809   7.341 -0.3338 -0.8272 -0.6504
  149MOL    H1132867   4.275   7.807   7.579 -0.4000  2.6628  2.5580
  149MOL    H1232868   4.212   7.935   7.179  1.5441  1.2678  0.3427
  149MOL    C1332869   4.287   8.182   7.861  0.2469 -0.1501  0.7914
  149MOL    C1432870   4.250   8.066   7.793 -0.6672 -0.5933 -0.5605
  149MOL    C1532871   4.113   8.050   7.750 -0.3094  0.4837  0.2310
  149MOL    C1632872   4.015   8.129   7.810 -0.2735  0.4893 -0.1120
  149MOL    C1732873   4.049   8.240   7.889  1.4099 -0.6414  0.5389
  149MOL    C1832874   4.187   0.011   7.916  0.2276  0.1441  0.2664
  149MOL    O1932875   4.230   0.122   7.988 -0.4092 -0.7374 -0.0468
  149MOL    H2032876   4.391   8.197   7.884  0.2563  0.9533  0.0305
  149MOL    H2132877   4.327   8.002   7.753 -0.0597 -1.2508  1.6015
  149MOL    H2232878   3.911   8.112   7.786 -0.0123 -0.4422 -0.5846
  149MOL    H2332879   3.970   0.055   7.914  0.7796 -1.2332  0.2257
  149MOL    C2432880   4.543   0.167   8.187  0.2504 -0.8787 -0.3444
  149MOL    C2532881   4.450   0.181   8.082 -0.1344  0.0025  0.2226
  149MOL    C2632882   4.325   0.113   8.090 -0.4672  0.6886 -0.1399
  149MOL    C2732883   4.302   0.031   8.205 -0.1294 -0.4756 -0.0900
  149MOL    C2832884   4.391   0.020   0.059  0.7338 -0.4894  0.6742
  149MOL    C2932885   4.518   0.080   0.036  0.3001  0.2436  0.1296
  149MOL    O3032886   4.615   0.059   0.128  0.2781 -0.0576  0.2027
  149MOL    H3132887   4.635   0.224   8.195  0.6780 -1.8510  1.9360
  149MOL    H3232888   4.474   0.243   7.997  0.7746  0.9872  1.1768
  149MOL    H3332889   4.207   8.236   8.219  0.9585 -2.4364  0.6332
  149MOL    H3432890   4.361   8.204   0.135 -1.6222  1.3057  1.4750
  149MOL    C3532891   4.936   8.154   0.080  0.0351 -0.2918  0.2874
  149MOL    C3632892   4.839   8.246   0.121  0.2536 -0.4468  0.3259
  149MOL    C3732893   4.705   8.212   0.104  0.2534  0.0673 -0.5355
  149MOL    C3832894   4.673   8.080   0.057  0.0841  0.3473  0.1863
  149MOL    C3932895   4.773   7.989   0.022  0.2897  0.9571 -0.2230
  149MOL    C4032896   4.908   8.025   0.044 -0.0818  0.3358  0.1457
  149MOL    O4132897   5.013   7.933   0.019  0.0385  0.2597  0.2569
  149MOL    H4232898   5.037   8.185   0.102  0.0217 -0.5227  0.6903
  149MOL    H4332899   4.870   0.092   0.148  1.3728 -0.7129  0.0392
  149MOL    H4432900   4.576   8.036   0.042 -0.6288  1.5043  1.3708
  149MOL    H4532901   4.726   7.895   8.250 -0.7143  1.7218 -1.2022
  149MOL    C4632902   5.381   7.980   0.041  0.2579 -0.5159 -0.0279
  149MOL    C4732903   5.252   7.932   0.063 -0.3114 -0.1639 -0.4755
  149MOL    C4832904   5.147   7.974   8.239  1.6779  0.7337 -0.1932
  149MOL    C4932905   5.172   8.049   8.121 -0.3120  0.4456 -0.0928
  149MOL    C5032906   5.295   8.104   8.093 -0.3154  0.9261 -0.2749
  149MOL    C5132907   5.403   8.061   8.180 -0.2031  0.1840  0.2984
  149MOL    O5232908   5.524   8.112   8.153 -0.0085 -0.2940 -0.4727
  149MOL    H5332909   5.461   7.934   0.098  0.5741 -2.2740 -1.8139
  149MOL    H5432910   5.240   7.861   0.144  1.3070  0.5704  0.4251
  149MOL    H5532911   5.093   8.082   8.056 -0.7630 -0.5990 -0.0990
  149MOL    H5632912   5.313   8.170   8.009  0.1583  0.7703 -0.2979
  149MOL    C5732913   5.767   7.835   8.113  0.7722 -0.2028  0.2307
  149MOL    C5832914   5.682   7.931   8.176 -0.3534  0.1349 -0.0305
  149MOL    C5932915   5.617   8.027   8.094 -0.0812 -0.5106  0.0562
  149MOL    C6032916   5.632   8.032   7.954  0.6419  0.3892  0.2521
  149MOL    C6132917   5.720   7.942   7.900 -0.3220  0.2697  0.1709
  149MOL    C6232918   5.792   7.845   7.975 -0.4192 -0.5359 -0.4175
  149MOL    O6332919   5.885   7.763   7.926 -0.2384 -0.2463 -0.0393
  149MOL    H6432920   5.801   7.750   8.170 -0.2028 -1.2451 -0.7262
  149MOL    H6532921   5.648   7.934   0.024 -1.7519  1.0633 -0.5035
  149MOL    H6632922   5.581   8.104   7.892  0.9215  0.8542  0.5595
  149MOL    H6732923   5.733   7.942   7.793  0.5384  1.3043  0.2679
  149MOL    C6832924   6.053   7.862   7.612  0.1511 -0.6115  0.3014
  149MOL    C6932925   5.946   7.825   7.698  0.2866 -0.1735  0.4080
  149MOL    C7032926   5.981   7.809   7.838  0.7138 -0.2414 -0.6024
  149MOL    C7132927   6.112   7.835   7.891  0.7128 -0.7319  0.2409
  149MOL    C7232928   6.211   7.875   7.805  0.6213 -0.0100 -0.5691
  149MOL    C7332929   6.187   7.877   7.667  0.4592 -0.5996 -0.1805
  149MOL    O7432930   6.288   7.912   7.575 -0.0623  0.0847 -0.5061
  149MOL    H7532931   6.032   7.860   7.506  1.7156 -0.5179 -0.0324
  149MOL    H7632932   5.845   7.817   7.660 -0.1059  3.6275  0.4595
  149MOL    H7732933   6.130   7.811   7.995  0.1513 -1.4007  0.1861
  149MOL    H7832934   6.302   7.915   7.848  0.3125 -0.1260  0.1988
  149MOL    C7932935   6.616   7.755   7.682 -0.4065 -0.0860  1.3354
  149MOL    C8032936   6.477   7.768   7.647  0.2881 -0.2774 -0.0535
  149MOL    C8132937   6.420   7.892   7.610  0.2690  0.0630 -0.2324
  149MOL    C8232938   6.506   8.001   7.603 -0.6464  1.1702 -0.3097
  149MOL    C8332939   6.644   7.994   7.630 -0.6800  0.0056 -0.4087
  149MOL    C8432940   6.699   7.866   7.675 -0.2009  0.3360  0.4555
  149MOL    O8532941   6.836   7.841   7.700  0.1554 -0.1571  0.1222
  149MOL    H8632942   6.659   7.659   7.708 -2.3390 -1.4347 -0.2650
  149MOL    H8732943   6.410   7.685   7.657 -1.5976  1.1862 -0.1926
  149MOL    H8832944   6.468   8.098   7.574 -2.4590  0.3211 -0.8482
  149MOL    H8932945   6.700   8.086   7.623  0.5365 -0.6722  0.1592
  149MOL    C9032946   7.040   8.120   7.852  0.5520 -0.1622  0.3364
  149MOL    C9132947   6.980   8.043   7.747 -0.0707  0.4424 -0.1021
  149MOL    C9232948   6.904   7.925   7.784 -0.4849 -0.1796 -0.3098
  149MOL    C9332949   6.895   7.897   7.922 -0.2490  0.3974 -0.4926
  149MOL    C9432950   6.955   7.978   8.017  0.2981  0.9535  0.7499
  149MOL    C9532951   7.035   8.085   7.985 -0.0433  0.0812  0.0896
  149MOL    O9632952   7.104   8.164   8.075 -0.6646  0.1789 -0.4953
  149MOL    H9732953   7.101   8.205   7.829  3.0342 -1.6432  1.2254
  149MOL    H9832954   6.985   8.069   7.643 -1.8699 -0.9615 -0.5640
  149MOL    H9932955   6.839   7.814   7.963  0.2125 -0.3774 -1.4081
  149MOL   H10032956   6.937   7.952   8.120 -2.5313  2.5946  0.7039
  149MOL   C10132957   7.457   8.067   8.119 -0.1544  0.0148 -0.0537
  149MOL   C10232958   7.317   8.064   8.114 -0.1478 -0.2624  0.8017
  149MOL   C10332959   7.242   8.173   8.077  0.3339 -0.4577 -0.5075
  149MOL   C10432960   7.304   0.039   8.027 -0.3822 -0.4626  0.9077
  149MOL   C10532961   7.446   0.046   8.023  0.0160 -0.1918  0.3093
  149MOL   C10632962   7.517   8.184   8.072  0.2674  0.4551  0.4481
  149MOL   O10732963   7.652   8.186   8.063  0.3966  0.1855  0.3175
  149MOL   H10832964   7.519   7.980   8.135  1.5787  1.2653  0.2534
  149MOL   H10932965   7.266   7.973   8.142  0.2884 -0.7653 -0.0065
  149MOL   H11032966   7.239   0.122   8.001 -3.0560 -2.6810  0.2673
  149MOL   H11132967   7.501   0.130   7.983  0.6613 -0.6099  0.3261
  149MOL   C11232968   7.864   8.122   0.105 -0.3486  0.8048  0.2991
  149MOL   C11332969   7.791   8.107   8.243  0.1740  0.8445  0.2430
  149MOL   C11432970   7.722   8.211   8.179  0.0938  0.0484  0.8808
  149MOL   C11532971   7.743   0.092   8.227 -0.7258 -0.4371  0.2213
  149MOL   C11632972   7.828   0.110   0.084 -0.3912  0.3168 -0.9836
  149MOL   C11732973   7.884   8.250   0.153  0.0145 -0.1943 -1.1602
  149MOL   O11832974   7.956   0.017   0.268  0.5718 -0.1423  0.0595
  149MOL   H11932975   7.918   8.040   0.150  0.1439 -0.6528 -2.8032
  149MOL   H12032976   7.786   8.011   8.194  1.0118  0.9490 -0.0650
  149MOL   H12132977   7.701   0.176   8.173  0.6171 -0.7169 -1.3180
  149MOL   H12232978   7.857   0.203   0.130 -0.9336 -0.2860  0.6257
  149MOL   C12332979   0.060   8.182   0.213 -0.5328 -0.4270  0.1797
  149MOL   C12432980   8.179   8.167   0.250  0.4295 -0.0482  0.3450
  149MOL   C12532981   8.090   0.025   0.261 -0.1200 -0.8835  0.1796
  149MOL   C12632982   8.143   0.156   0.245 -0.0982  0.5584  0.5010
  149MOL   C12732983   0.029   0.170   0.236 -0.0434 -0.8301 -0.1472
  149MOL   C12832984   0.115   0.062   0.207 -0.3990  1.1242 -0.6100
  149MOL   O12932985   0.245   0.092   0.176  0.2258  0.1254 -0.4995
  149MOL   H13032986   0.129   8.100   0.198 -0.5695 -0.5061  0.4413
  149MOL   H13132987   8.141   8.067   0.262  0.2159  0.2249  2.0334
  149MOL   H13232988   8.077   0.241   0.252 -2.8144 -1.4509  0.3263
  149MOL   H13332989   0.060   0.273   0.224 -0.0569 -0.6453  1.3493
  149MOL   C13432990   0.343   0.043   8.083  0.0775 -0.3284 -0.1709
  149MOL   C13532991   0.285   0.095   8.196 -0.3662 -0.7016 -0.2794
  149MOL   C13632992   0.307   0.035   0.069 -0.3802  0.5421 -0.0614
  149MOL   C13732993   0.392   8.179   0.084 -0.6451 -0.0315 -0.1169
  149MOL   C13832994   0.440   8.118   8.221 -0.0100  0.0008 -0.0670
  149MOL   C13932995   0.417   8.180   8.097 -0.4514  0.2794  0.3240
  149MOL   O14032996   0.479   8.117   7.995 -0.1500  0.3113 -0.3713
  149MOL   H14132997   0.325   0.089   7.987  1.4606  0.6015  0.0023
  149MOL   H14232998   0.226   0.185   8.198  0.6032 -0.0570  0.0536
  149MOL   H14332999   0.416   8.134   0.180 -0.1564  0.3036 -0.0851
  149MOL   H14433000   0.500   8.028   8.225 -0.0339  0.0539  2.8245
  149MOL   C14533001   0.355   7.766   7.960 -0.6638 -0.1285  0.2787
  149MOL   C14633002   0.434   7.875   8.003  0.2324 -0.5129 -0.1630
  149MOL   C14733003   0.421   8.006   7.945 -0.3297 -0.0523  0.9864
  149MOL   C14833004   0.321   8.028   7.846 -0.1405  0.2684 -0.1287
  149MOL   C14933005   0.241   7.911   7.803 -0.6245 -0.0432  1.1055
  149MOL   C15033006   0.265   7.782   7.854  0.1446  0.1438 -1.5242
  149MOL   O15133007   0.199   7.673   7.800  0.0739  0.1371 -0.7775
  149MOL   H15233008   0.370   7.672   8.012 -0.6719 -1.3227 -1.8329
  149MOL   H15333009   0.501   7.858   8.086 -1.8872 -0.2422  1.6546
  149MOL   H15433010   0.304   8.128   7.809 -0.4311  0.2944  0.0672
  149MOL   H15533011   0.162   7.931   7.732  1.0442  0.9222 -0.5364
  149MOL   C15633012   8.091   7.644   7.804 -0.2533 -0.5648  0.3510
  149MOL   C15733013   8.222   7.658   7.755  0.2863  0.4789 -0.9641
  149MOL   C15833014   0.073   7.647   7.854  0.0717 -0.7444 -0.6059
  149MOL   C15933015   0.046   7.626   7.989 -0.2187  0.3629 -0.1319
  149MOL   C16033016   8.167   7.599   8.033  0.0091  0.2014 -0.0122
  149MOL   C16133017   8.062   7.602   7.942 -0.0590 -0.0250  0.0040
  149MOL   O16233018   7.933   7.576   7.983 -0.6688  0.8470 -0.5787
  149MOL   H16333019   8.015   7.662   7.730  0.2476 -1.7713 -0.4632
  149MOL   H16433020   8.240   7.683   7.652  3.0355 -0.0694 -0.6710
  149MOL   H16533021   0.132   7.624   8.054  0.4253  0.8084 -0.9747
  149MOL   H16633022   8.141   7.583   8.137  0.8760  0.3133  0.2294
  149MOL   C16733023   7.667   7.532   7.747  0.4987 -0.0061  0.3637
  149MOL   C16833024   7.753   7.592   7.840 -0.7760  0.3074  0.7150
  149MOL   C16933025   7.842   7.512   7.908  0.1298  0.4158 -0.5779
  149MOL   C17033026   7.844   7.369   7.898 -0.0615  0.1231  0.4267
  149MOL   C17133027   7.757   7.305   7.813  0.8101 -0.6441 -0.0512
  149MOL   C17233028   7.664   7.390   7.745  0.2916  0.4575 -0.0411
  149MOL   O17333029   7.569   7.330   7.662  0.1135  0.6479  0.4867
  149MOL   H17433030   7.602   7.589   7.681 -0.0351 -1.0377 -0.0056
  149MOL   H17533031   7.770   7.698   7.848 -0.0100  0.2402 -0.0514
  149MOL   H17633032   7.904   7.311   7.967  0.0861 -1.8106 -1.2954
  149MOL   H17733033   7.752   7.198   7.810 -2.3121 -0.5176 -0.3685
  149MOL   C17833034   7.300   7.086   7.737 -0.2426  0.4148  0.6062
  149MOL   C17933035   7.418   7.143   7.679  0.5783  0.3213 -0.4722
  149MOL   C18033036   7.459   7.269   7.722 -0.2143 -0.2677 -0.3138
  149MOL   C18133037   7.383   7.343   7.821  0.2626  0.3665  0.0308
  149MOL   C18233038   7.277   7.277   7.888 -0.0898  0.2217  0.2537
  149MOL   C18333039   7.236   7.150   7.846  0.2541  0.0306  0.7499
  149MOL   O18433040   7.127   7.090   7.911 -0.3628 -0.0675  0.4204
  149MOL   H18533041   7.266   6.989   7.704 -2.9254  2.1906 -2.2328
  149MOL   H18633042   7.477   7.095   7.602 -0.4906 -0.4690 -0.8113
  149MOL   H18733043   7.403   7.445   7.849 -2.1786  0.8721  0.0397
  149MOL   H18833044   7.224   7.323   7.970 -1.3222  0.2811 -0.5575
  149MOL   C18933045   6.828   7.168   7.713 -0.5304 -0.0344  0.2845
  149MOL   C19033046   6.960   7.145   7.737 -0.1407  0.0977 -0.3613
  149MOL   C19133047   7.000   7.120   7.873 -0.8544  0.2039  0.6064
  149MOL   C19233048   6.908   7.111   7.979 -0.6010  0.4452 -0.9887
  149MOL   C19333049   6.776   7.125   7.950  0.3215  0.6376 -0.4283
  149MOL   C19433050   6.733   7.156   7.818  0.2569 -0.0641 -0.4172
  149MOL   O19533051   6.596   7.168   7.795  1.2177  0.5907 -0.2872
  149MOL   H19633052   6.796   7.188   7.612  0.5184  0.2021 -0.0164
  149MOL   H19733053   7.025   7.154   7.652  0.5844 -1.1914  0.0490
  149MOL   H19833054   6.926   7.084   8.082 -1.2076 -2.3113 -1.5604
  149MOL   H19933055   6.709   7.098   8.031 -1.4521  0.9087 -1.7590
  149MOL   C20033056   6.435   7.470   7.931 -0.5418 -1.2025 -0.8221
  149MOL   C20133057   6.524   7.389   7.857  0.3485 -0.0887  1.0917
  149MOL   C20233058   6.516   7.252   7.871  0.2236 -0.1679 -0.3636
  149MOL   C20333059   6.417   7.191   7.956  0.4630 -0.1867  0.1229
  149MOL   C20433060   6.339   7.271   8.035 -0.0914  0.0833  0.4276
  149MOL   C20533061   6.347   7.413   8.023 -0.2043  0.9008  0.0674
  149MOL   O20633062   6.272   7.489   8.112 -0.6348 -0.6042  0.6847
  149MOL   H20733063   6.439   7.578   7.925 -0.9726 -1.0930  0.6818
  149MOL   H20833064   6.594   7.430   7.785  0.6548 -0.4621  1.1756
  149MOL   H20933065   6.401   7.085   7.964  0.1908 -0.0648  1.2609
  149MOL   H21033066   6.270   7.225   8.104  0.8635 -1.7184  0.2033
  149MOL   C21133067   6.483   7.480   0.157  0.3861 -0.4009  0.4233
  149MOL   C21233068   6.442   7.466   0.026  0.2888  0.5984  0.1567
  149MOL   C21333069   6.310   7.472   8.240 -0.5036 -0.2754 -0.0083
  149MOL   C21433070   6.209   7.472   0.087  0.2045 -0.9236  0.8749
  149MOL   C21533071   6.242   7.465   0.222 -0.2675 -0.5540 -1.0929
  149MOL   C21633072   6.380   7.479   0.260 -0.0877 -0.2599  0.1279
  149MOL   O21733073   6.417   7.476   0.391 -0.4140  0.2106  0.3713
  149MOL   H21833074   6.587   7.480   0.185  0.7098  1.4953 -0.6705
  149MOL   H21933075   6.528   7.458   8.216  0.5970  2.8395  0.2280
  149MOL   H22033076   6.109   7.495   0.053 -0.7553 -2.1764  2.7808
  149MOL   H22133077   6.156   7.466   0.288 -0.5790 -1.4434 -1.4731
  149MOL   H22233078   6.344   7.486   0.450  0.5115  0.4107  1.5147
  150MOL     C133079   1.125   1.269   6.999  0.1661 -0.7406 -0.1729
  150MOL     C233080   1.225   1.189   6.947 -0.1673  0.4595  1.0770
  150MOL     C333081   1.198   1.094   6.850 -0.4630 -0.1664 -0.2671
  150MOL     C433082   1.064   1.058   6.827 -0.5399  0.5634  0.1239
  150MOL     C533083   0.962   1.137   6.881  0.0534  0.3382 -0.1558
  150MOL     C633084   0.989   1.246   6.968  0.2288  0.1754  0.0921
  150MOL     O733085   0.886   1.317   7.030 -0.6655  0.0402 -0.2401
  150MOL     H833086   1.141   1.348   7.070  1.4190  0.5452 -1.8412
  150MOL     H933087   1.327   1.222   6.954 -0.5892  2.2372 -0.7125
  150MOL    H1033088   1.045   0.980   6.755  0.1131 -0.4819  1.0605
  150MOL    H1133089   0.860   1.115   6.852  0.8243 -3.2374 -0.3570
  150MOL    H1233090   1.281   1.043   6.803 -0.8566 -0.0176 -1.1265
  150MOL    C1333091   0.850   1.670   7.100 -0.3935 -0.6636  0.2127
  150MOL    C1433092   0.874   1.535   7.119  0.0252  0.0977 -0.4267
  150MOL    C1533093   0.869   1.451   7.007  1.0230  0.2828 -0.7631
  150MOL    C1633094   0.842   1.512   6.885  0.2489 -0.1590  0.1752
  150MOL    C1733095   0.803   1.646   6.870  0.2683  0.0882 -0.0875
  150MOL    C1833096   0.809   1.730   6.980 -0.6362  0.2562  0.3511
  150MOL    O1933097   0.772   1.861   6.983 -0.8331 -0.0303 -0.1959
  150MOL    H2033098   0.866   1.738   7.183  2.2336  0.0094 -0.8229
  150MOL    H2133099   0.908   1.492   7.212  1.0997 -0.0429 -0.8717
  150MOL    H2233100   0.822   1.449   6.799 -0.4097  0.0653  0.1644
  150MOL    H2333101   0.789   1.669   6.765  0.0704  0.2441 -0.0273
  150MOL    C2433102   0.916   2.092   6.745  0.1411  0.6073  0.5888
  150MOL    C2533103   0.840   1.989   6.795  0.3248 -0.0434  0.4147
  150MOL    C2633104   0.862   1.949   6.928  0.2249 -0.0880 -1.0682
  150MOL    C2733105   0.964   2.005   7.004  0.1005 -0.0728 -0.3826
  150MOL    C2833106   1.042   2.114   6.952  0.1120  0.2104 -0.3655
  150MOL    C2933107   1.018   2.155   6.814  0.0625  0.0549  0.3975
  150MOL    O3033108   1.088   2.251   6.751  0.0173 -0.1488 -0.4518
  150MOL    H3133109   0.894   2.121   6.643  3.0698 -1.4587 -0.6948
  150MOL    H3233110   0.756   1.951   6.739  1.2680  0.6234 -1.5104
  150MOL    H3333111   0.975   1.971   7.106  2.5820  1.6423 -0.0480
  150MOL    H3433112   1.119   2.163   7.011 -0.9146  0.1946  1.0283
  150MOL    C3533113   1.048   2.622   6.686 -0.2532  0.5403 -0.5359
  150MOL    C3633114   1.073   2.485   6.671 -0.6224 -0.4972  0.1355
  150MOL    C3733115   1.050   2.388   6.767 -0.1433  0.0838 -0.1507
  150MOL    C3833116   0.999   2.436   6.892 -0.2428 -0.0652 -0.5727
  150MOL    C3933117   1.005   2.571   6.920  0.9597 -0.3365  0.1612
  150MOL    C4033118   1.023   2.670   6.815 -0.2579 -0.1999  0.1161
  150MOL    O4133119   1.015   2.804   6.847 -0.3309 -0.2557  0.2246
  150MOL    H4233120   1.067   2.690   6.605 -1.0928  1.2166 -0.1704
  150MOL    H4333121   1.104   2.457   6.571  0.2472  1.6761 -0.2255
  150MOL    H4433122   0.991   2.368   6.975 -0.2484  2.4349  1.5056
  150MOL    H4533123   0.988   2.616   7.017 -1.8079 -0.1148 -0.3961
  150MOL    C4633124   0.707   2.949   6.700 -0.0403  0.0037 -0.0504
  150MOL    C4733125   0.791   2.866   6.780 -0.4807  0.7905 -0.4508
  150MOL    C4833126   0.933   2.878   6.769  0.1924 -0.4349 -0.5072
  150MOL    C4933127   0.982   2.975   6.685  0.0118  0.8865 -0.1439
  150MOL    C5033128   0.903   3.057   6.605 -0.2988 -0.4513 -0.4914
  150MOL    C5133129   0.764   3.046   6.615  0.2106  0.4266  0.6919
  150MOL    O5233130   0.688   3.119   6.527  0.2026 -0.0220  0.4416
  150MOL    H5333131   0.599   2.949   6.705 -0.0398 -0.2026 -0.0060
  150MOL    H5433132   0.741   2.809   6.856  0.0833 -1.1617 -1.5089
  150MOL    H5533133   1.089   2.978   6.668  0.0186  0.9225 -0.0952
  150MOL    H5633134   0.944   3.126   6.534 -0.0043 -1.9713 -1.8322
  150MOL    C5733135   0.562   3.418   6.690 -0.0520 -0.7380 -0.5343
  150MOL    C5833136   0.591   3.287   6.667 -0.5213  0.4764  0.6692
  150MOL    C5933137   0.671   3.251   6.557 -0.8524  0.1685  0.5213
  150MOL    C6033138   0.750   3.345   6.491 -0.0462  0.1691 -0.5948
  150MOL    C6133139   0.727   3.478   6.522 -0.3031  0.0861  0.2152
  150MOL    C6233140   0.636   3.519   6.624  1.1207 -0.0979  0.0922
  150MOL    O6333141   0.611   3.652   6.647 -0.6058  0.1099 -0.3760
  150MOL    H6433142   0.499   3.451   6.771 -1.4042 -0.7676 -1.5763
  150MOL    H6533143   0.537   3.220   6.731  2.5317  0.6844  3.6254
  150MOL    H6633144   0.815   3.314   6.411  1.0457 -1.0829  0.7607
  150MOL    H6733145   0.774   3.561   6.472 -1.9155  1.0009  0.1739
  150MOL    C6833146   0.503   3.926   6.417  0.3848 -0.2111 -0.0274
  150MOL    C6933147   0.583   3.855   6.513  0.5607 -0.1720 -0.3541
  150MOL    C7033148   0.539   3.725   6.558 -1.0218  0.3765 -0.0659
  150MOL    C7133149   0.430   3.661   6.495 -0.9465 -0.2922 -0.4349
  150MOL    C7233150   0.356   3.725   6.391  0.0488 -0.1820  0.1407
  150MOL    C7333151   0.388   3.858   6.358 -0.5837 -0.4322 -1.0658
  150MOL    O7433152   0.313   3.921   6.261 -0.0177  0.1548  0.0073
  150MOL    H7533153   0.530   4.029   6.402  1.8371 -0.3920  1.2319
  150MOL    H7633154   0.669   3.892   6.566  1.4348 -0.0719 -1.8182
  150MOL    H7733155   0.405   3.568   6.545  1.5128 -1.3292 -1.0598
  150MOL    H7833156   0.269   3.680   6.347  1.2139 -0.0581 -2.3681
  150MOL    C7933157   0.173   4.224   6.407 -1.0978 -0.8963 -0.3052
  150MOL    C8033158   0.196   4.090   6.390  0.1774  0.7394  0.0302
  150MOL    C8133159   0.283   4.051   6.280 -0.4409 -0.3701 -0.2236
  150MOL    C8233160   0.337   4.141   6.191 -0.3390 -0.9350  0.1854
  150MOL    C8333161   0.314   4.277   6.215 -0.2427 -0.0758 -0.2978
  150MOL    C8433162   0.239   4.316   6.324 -0.2055  0.3746  0.1495
  150MOL    O8533163   0.234   4.442   6.368  0.1099 -0.1368  0.2374
  150MOL    H8633164   0.129   4.262   6.498  2.8787 -0.2056  1.4282
  150MOL    H8733165   0.140   4.024   6.455 -3.1341  2.6631 -0.7658
  150MOL    H8833166   0.400   4.110   6.109 -1.7872 -1.3773 -0.7707
  150MOL    H8933167   0.349   4.358   6.152 -0.1617 -0.7380 -1.1121
  150MOL    C9033168   0.567   4.477   6.539 -0.2488 -0.1118 -0.2216
  150MOL    C9133169   0.442   4.418   6.498  0.0399 -0.4789 -0.1134
  150MOL    C9233170   0.352   4.496   6.416 -0.0097  0.2653  0.0736
  150MOL    C9333171   0.384   4.629   6.386 -0.7208 -0.5373  0.7285
  150MOL    C9433172   0.501   4.688   6.429 -0.4399 -0.0810 -0.3835
  150MOL    C9533173   0.593   4.610   6.505  0.8005 -0.4972  0.4490
  150MOL    O9633174   0.705   4.666   6.561  0.3713 -0.3043  0.4630
  150MOL    H9733175   0.639   4.423   6.599 -0.5501  1.3293  1.4799
  150MOL    H9833176   0.420   4.314   6.520  0.1422 -0.7732 -1.3605
  150MOL    H9933177   0.304   4.669   6.327 -0.7264 -0.6408  0.6642
  150MOL   H10033178   0.530   4.788   6.401 -0.3158 -0.0624 -0.1876
  150MOL   C10133179   0.979   4.863   6.412 -0.4494  0.2252  0.2523
  150MOL   C10233180   0.865   4.840   6.484  0.0128  0.1899 -1.0850
  150MOL   C10333181   0.817   4.703   6.489  0.2934  0.0984 -0.3147
  150MOL   C10433182   0.890   4.600   6.424  0.0753 -0.3666 -0.0381
  150MOL   C10533183   1.001   4.631   6.349  0.0316 -0.1452 -0.4708
  150MOL   C10633184   1.047   4.764   6.346 -0.0766 -0.2797 -0.3145
  150MOL   O10733185   1.164   4.796   6.273  0.1734 -0.1756  0.0204
  150MOL   H10833186   1.022   4.962   6.412 -0.8284  0.3896 -0.6521
  150MOL   H10933187   0.815   4.920   6.537 -0.4101 -1.2800  0.7966
  150MOL   H11033188   0.858   4.498   6.436 -0.6014 -0.1049  0.4488
  150MOL   H11133189   1.054   4.552   6.298 -0.4781  1.1529 -3.0617
  150MOL   C11233190   1.410   4.979   6.482  0.7122  0.2275  0.0275
  150MOL   C11333191   1.310   4.888   6.448 -0.2330  0.3770  0.7869
  150MOL   C11433192   1.251   4.891   6.318  0.3284 -0.3442  0.1041
  150MOL   C11533193   1.289   4.985   6.228  0.3461  0.8331  0.4162
  150MOL   C11633194   1.395   5.072   6.261  0.2587  0.0754  0.1698
  150MOL   C11733195   1.448   5.074   6.393 -0.5264  0.6952  1.1198
  150MOL   O11833196   1.528   5.177   6.439 -0.2478 -0.1264  0.0003
  150MOL   H11933197   1.446   4.982   6.584 -0.0043  2.7969  0.2464
  150MOL   H12033198   1.278   4.818   6.524 -0.8186 -0.6268 -0.3687
  150MOL   H12133199   1.251   4.984   6.126 -1.0976  1.0657  0.9406
  150MOL   H12233200   1.430   5.137   6.183 -2.0672  1.5976  0.3367
  150MOL   C12333201   1.820   5.293   6.228  0.7838  0.0330 -0.4005
  150MOL   C12433202   1.685   5.277   6.283  0.6063  0.0831  0.1926
  150MOL   C12533203   1.656   5.185   6.384 -0.2941 -0.1928  0.4587
  150MOL   C12633204   1.763   5.120   6.451 -0.0935  0.4783  0.7641
  150MOL   C12733205   1.898   5.121   6.399 -0.4179 -0.6407  0.8643
  150MOL   C12833206   1.922   5.215   6.294  0.0435 -0.0330 -0.1150
  150MOL   O12933207   2.047   5.223   6.240  0.4815 -0.7293  0.4174
  150MOL   H13033208   1.844   5.360   6.148  1.2528 -0.8330 -1.0000
  150MOL   H13133209   1.607   5.347   6.258  1.5548  0.9625 -0.3015
  150MOL   H13233210   1.740   5.064   6.541 -2.5266 -0.8351 -0.6375
  150MOL   H13333211   1.989   5.073   6.434 -0.1746 -1.5613 -1.0129
  150MOL   C13433212   2.282   5.402   6.453  0.7380  0.2174  0.2389
  150MOL   C13533213   2.189   5.306   6.407  0.1610  0.7001 -0.2665
  150MOL   C13633214   2.126   5.323   6.282  0.1158 -1.0090 -0.1039
  150MOL   C13733215   2.146   5.433   6.200 -1.0091 -1.4393 -0.8534
  150MOL   C13833216   2.230   5.534   6.257 -0.8299  0.6908  0.3944
  150MOL   C13933217   2.296   5.517   6.380 -0.4039 -0.5849 -0.1220
  150MOL   O14033218   2.373   5.620   6.420  0.3813 -0.0979 -0.2334
  150MOL   H14133219   2.327   5.405   6.551 -0.3710 -0.8532  0.7957
  150MOL   H14233220   2.168   5.219   6.467 -1.7766 -0.0566 -1.9433
  150MOL   H14333221   2.093   5.449   6.107 -2.2951  2.0565  0.3920
  150MOL   H14433222   2.259   5.613   6.190 -0.9154  0.0419 -0.4235
  150MOL   C14533223   2.695   5.580   6.600 -0.9299  0.1559 -0.6163
  150MOL   C14633224   2.558   5.610   6.572 -0.1777 -0.1023 -0.2148
  150MOL   C14733225   2.506   5.589   6.448 -0.3576  0.7616 -0.2303
  150MOL   C14833226   2.593   5.539   6.341  0.2149 -0.4661  0.1074
  150MOL   C14933227   2.726   5.512   6.370 -0.3739 -0.5097 -0.3542
  150MOL   C15033228   2.783   5.525   6.503 -0.1688 -0.3264 -0.4080
  150MOL   O15133229   2.913   5.494   6.533 -0.3038 -0.4391  0.1500
  150MOL   H15233230   2.740   5.587   6.698 -0.5701  0.6640 -0.8134
  150MOL   H15333231   2.501   5.642   6.657  0.2452 -0.6302  0.2717
  150MOL   H15433232   2.564   5.519   6.239 -3.1767  0.0692  0.9081
  150MOL   H15533233   2.796   5.468   6.301  1.0482 -0.9354  1.3213
  150MOL   C15633234   3.118   5.219   6.384  0.3417 -0.0148  0.0054
  150MOL   C15733235   3.061   5.348   6.412  0.1674 -0.4776 -0.1690
  150MOL   C15833236   2.953   5.368   6.502 -0.9510  0.2435  0.1040
  150MOL   C15933237   2.898   5.254   6.563  0.9730 -0.0343 -0.2809
  150MOL   C16033238   2.973   5.130   6.558  0.4697  0.3378  0.8832
  150MOL   C16133239   3.072   5.113   6.467 -0.7009 -0.1124 -0.3361
  150MOL   O16233240   3.120   4.989   6.443 -0.0276  0.3580  0.0238
  150MOL   H16333241   3.200   5.204   6.315  1.0468  1.0227  0.6013
  150MOL   H16433242   3.108   5.439   6.379  0.2460 -0.4606 -0.0095
  150MOL   H16533243   2.809   5.246   6.622  2.9119  1.7720  3.0149
  150MOL   H16633244   2.944   5.048   6.622  0.9666  0.0044  0.6870
  150MOL   C16733245   3.321   4.728   6.613  0.6129 -0.0600 -0.2655
  150MOL   C16833246   3.212   4.795   6.553  0.5120  0.1556  0.1623
  150MOL   C16933247   3.225   4.929   6.507  0.3437 -0.4112  0.3387
  150MOL   C17033248   3.349   4.992   6.518 -0.3407  0.1350 -0.1694
  150MOL   C17133249   3.455   4.928   6.586  0.4926 -0.4694  1.0209
  150MOL   C17233250   3.443   4.800   6.639  0.3395  0.4082 -0.0741
  150MOL   O17333251   3.550   4.741   6.696  0.0600  0.4793 -0.6579
  150MOL   H17433252   3.309   4.624   6.639 -0.3804 -0.0517 -0.6684
  150MOL   H17533253   3.120   4.740   6.535  0.3829  0.1770  0.7405
  150MOL   H17633254   3.360   5.095   6.488  0.4937  0.0731 -0.0905
  150MOL   H17733255   3.545   4.987   6.598  0.4557 -0.2802  0.3589
  150MOL   C17833256   3.858   4.614   6.544 -0.5094  0.3792  0.0919
  150MOL   C17933257   3.773   4.684   6.633 -0.7576  1.0706 -0.0390
  150MOL   C18033258   3.632   4.668   6.612 -0.5350  0.0214  0.5040
  150MOL   C18133259   3.576   4.564   6.532  0.1296 -0.4512 -0.2752
  150MOL   C18233260   3.668   4.491   6.450  0.4504 -0.2880  0.5947
  150MOL   C18333261   3.806   4.522   6.452  0.2507 -0.1109 -1.1057
  150MOL   O18433262   3.900   4.457   6.383 -0.2795 -0.5713  0.3950
  150MOL   H18533263   3.965   4.624   6.551 -0.6644  1.9716  0.2388
  150MOL   H18633264   3.805   4.751   6.712 -0.0566 -0.7969  1.3010
  150MOL   H18733265   3.470   4.545   6.526  0.7867 -3.7968 -2.3979
  150MOL   H18833266   3.631   4.418   6.380  1.7146  0.5133 -0.9575
  150MOL   C18933267   3.884   4.105   6.280 -0.0027  0.2373 -0.1816
  150MOL   C19033268   3.885   4.244   6.272  0.2829  0.2251  0.6311
  150MOL   C19133269   3.903   4.318   6.391 -0.1899 -0.1537  0.4883
  150MOL   C19233270   3.933   4.251   6.513  0.2564  0.3139 -0.0808
  150MOL   C19333271   3.922   4.112   6.516 -0.2594  0.1741 -0.0241
  150MOL   C19433272   3.894   4.034   6.399  0.6100  0.2658 -0.0672
  150MOL   O19533273   3.905   3.896   6.408 -0.5302  0.3369  0.6086
  150MOL   H19633274   3.867   4.041   6.195  0.6785 -1.4544  0.9386
  150MOL   H19733275   3.848   4.295   6.184  1.8375 -1.4286 -1.0029
  150MOL   H19833276   3.967   4.304   6.601 -1.0085 -2.3944  2.1279
  150MOL   H19933277   3.951   4.059   6.606  3.1379 -1.6098 -2.0440
  150MOL   C20033278   4.218   3.734   6.298 -0.0113  0.1222 -0.4108
  150MOL   C20133279   4.121   3.800   6.377 -0.6975 -0.5823  0.3019
  150MOL   C20233280   3.996   3.828   6.325  0.5858 -0.2739  0.8995
  150MOL   C20333281   3.968   3.789   6.192  0.2491 -0.5721 -0.1989
  150MOL   C20433282   4.064   3.722   6.110  0.3113  0.5539 -0.2986
  150MOL   C20533283   4.195   3.695   6.163 -0.3589 -0.1952 -0.2322
  150MOL   O20633284   4.284   3.624   6.084 -0.1593 -0.3310 -0.1386
  150MOL   H20733285   4.313   3.703   6.340 -1.1773 -0.3637  1.9846
  150MOL   H20833286   4.130   3.819   6.482  0.1347  0.5744  0.0326
  150MOL   H20933287   3.879   3.819   6.140  0.4400  1.4138  0.5700
  150MOL   H21033288   4.046   3.691   6.008  1.7608 -1.5156  0.0277
  150MOL   C21133289   4.333   3.269   6.007 -0.3997 -0.6903  0.6552
  150MOL   C21233290   4.335   3.415   6.002 -0.1490  0.0705 -0.4242
  150MOL   C21333291   4.286   3.493   6.105 -0.6007 -0.0123 -0.1427
  150MOL   C21433292   4.236   3.423   6.221 -0.0482 -0.0131 -0.2935
  150MOL   C21533293   4.238   3.284   6.229  0.5570  0.3668 -0.3707
  150MOL   C21633294   4.281   3.208   6.123 -0.3566 -0.0958 -0.4652
  150MOL   O21733295   4.290   3.077   6.135 -0.4641 -0.2574 -0.0779
  150MOL   H21833296   4.373   3.225   5.917  1.7852  1.2946  0.5870
  150MOL   H21933297   4.380   3.462   5.916 -0.5426 -2.3223 -1.9791
  150MOL   H22033298   4.195   3.485   6.300  1.2281  0.1021  0.2802
  150MOL   H22133299   4.194   3.239   6.317  2.4692  0.6293  0.7631
  150MOL   H22233300   4.274   3.044   6.222 -0.2378 -0.7255 -0.2133
  151MOL     C133301   1.302   5.610   2.235 -0.8264 -0.2367 -0.3935
  151MOL     C233302   1.251   5.626   2.106  0.4230 -0.3354 -0.4595
  151MOL     C333303   1.303   5.732   2.021  0.2105  0.0052  0.1870
  151MOL     C433304   1.405   5.816   2.068 -0.8804 -0.1647 -0.0233
  151MOL     C533305   1.452   5.804   2.203  0.9485 -0.7247 -0.1910
  151MOL     C633306   1.399   5.705   2.285 -0.7588  0.6668 -0.4789
  151MOL     O733307   1.454   5.695   2.410 -0.6485 -0.0102 -1.2668
  151MOL     H833308   1.269   5.529   2.300  1.0801 -1.2080 -0.6047
  151MOL     H933309   1.173   5.566   2.062  0.6343 -0.3066 -0.8740
  151MOL    H1033310   1.460   5.880   2.001 -0.4384 -0.8972 -0.3696
  151MOL    H1133311   1.531   5.870   2.233  1.3496 -0.7804 -1.1111
  151MOL    H1233312   1.262   5.748   1.923  2.0009  2.0924 -0.2526
  151MOL    C1333313   1.203   5.783   2.669 -0.2999  0.4754 -0.2943
  151MOL    C1433314   1.293   5.796   2.559  0.5856  0.2997 -0.3481
  151MOL    C1533315   1.360   5.683   2.513 -0.1079 -0.1832  0.2152
  151MOL    C1633316   1.335   5.555   2.563  0.0483  0.4995  0.0283
  151MOL    C1733317   1.240   5.538   2.663 -0.1578 -0.5190 -0.9301
  151MOL    C1833318   1.180   5.656   2.726  0.0146  0.8846 -0.1995
  151MOL    O1933319   1.101   5.652   2.845  0.0445  0.1416 -0.5097
  151MOL    H2033320   1.166   5.876   2.709 -0.2401  0.1970  0.4116
  151MOL    H2133321   1.323   5.890   2.516  1.8400  0.2889  0.4875
  151MOL    H2233322   1.384   5.477   2.506  1.4341  0.1114  1.6975
  151MOL    H2333323   1.216   5.436   2.687  0.7972 -0.4253  0.5185
  151MOL    C2433324   1.252   5.500   3.149 -0.1823  0.0390  0.1244
  151MOL    C2533325   1.218   5.587   3.047 -0.3835  0.0286 -0.1222
  151MOL    C2633326   1.124   5.558   2.941 -0.7986  0.4029 -0.3276
  151MOL    C2733327   1.056   5.436   2.951  0.2333 -0.1089 -0.7149
  151MOL    C2833328   1.098   5.342   3.049  0.0018  0.3945  0.5968
  151MOL    C2933329   1.192   5.371   3.148 -0.1226  0.2707  1.3907
  151MOL    O3033330   1.232   5.278   3.246 -0.5091 -0.2870  0.7660
  151MOL    H3133331   1.318   5.529   3.230  0.7863  1.4665 -1.1613
  151MOL    H3233332   1.270   5.682   3.040  0.0444 -0.0965  1.1967
  151MOL    H3333333   0.994   5.403   2.868  0.1900  0.0303 -0.7374
  151MOL    H3433334   1.036   5.254   3.046 -0.5436  0.8184 -0.5712
  151MOL    C3533335   1.449   5.026   3.076  0.5528 -0.7014  0.2966
  151MOL    C3633336   1.397   5.152   3.116 -0.1755  0.2374  0.0979
  151MOL    C3733337   1.284   5.159   3.202 -0.7758  0.1477  0.1035
  151MOL    C3833338   1.221   5.033   3.243  0.3121 -0.0190  0.7810
  151MOL    C3933339   1.269   4.913   3.190 -0.7416 -0.2146 -0.0034
  151MOL    C4033340   1.382   4.906   3.103 -0.1341 -0.3506  0.2495
  151MOL    O4133341   1.448   4.793   3.077  0.3955 -0.0091 -0.0357
  151MOL    H4233342   1.544   5.026   3.024  0.2310  0.5891 -0.3201
  151MOL    H4333343   1.447   5.247   3.098 -0.4883 -0.0653 -2.6711
  151MOL    H4433344   1.138   5.040   3.313 -0.6386 -1.3199 -0.1860
  151MOL    H4533345   1.216   4.826   3.224 -0.3433  0.5765  2.7600
  151MOL    C4633346   1.357   4.700   2.720  0.9183  0.3493 -0.6878
  151MOL    C4733347   1.376   4.776   2.839 -0.0575 -0.3414  0.7821
  151MOL    C4833348   1.427   4.724   2.960 -0.2069  0.2892 -1.3350
  151MOL    C4933349   1.460   4.586   2.951 -0.1146 -0.1008  0.1292
  151MOL    C5033350   1.432   4.506   2.837  0.6784  0.3217 -0.5023
  151MOL    C5133351   1.387   4.566   2.717  0.4093  0.0248 -0.5069
  151MOL    O5233352   1.346   4.492   2.606 -0.2967 -0.2444  0.1571
  151MOL    H5333353   1.314   4.749   2.634 -1.2780 -0.0541  0.1476
  151MOL    H5433354   1.337   4.877   2.844 -1.4008 -0.6843 -1.7805
  151MOL    H5533355   1.494   4.542   3.044 -1.1143  4.6096  2.8774
  151MOL    H5633356   1.453   4.400   2.844 -0.4435  0.1315  0.0075
  151MOL    C5733357   1.210   4.152   2.605 -0.5615 -0.0664 -0.5616
  151MOL    C5833358   1.296   4.262   2.573 -0.5118  0.0405 -0.5334
  151MOL    C5933359   1.261   4.391   2.622  0.3736  0.8277  0.1171
  151MOL    C6033360   1.147   4.411   2.695  0.8761 -0.0850 -0.5731
  151MOL    C6133361   1.056   4.305   2.726  0.1788 -0.2190 -0.2938
  151MOL    C6233362   1.097   4.176   2.684  0.1751  0.2996  0.5182
  151MOL    O6333363   1.023   4.073   2.721  0.5450  0.4153 -0.0195
  151MOL    H6433364   1.225   4.052   2.569 -2.4759  0.0790 -1.8586
  151MOL    H6533365   1.383   4.237   2.516 -0.8902 -0.6438 -0.8107
  151MOL    H6633366   1.122   4.510   2.730 -2.4600 -0.9767 -0.2995
  151MOL    H6733367   0.955   4.320   2.761 -0.4174  2.0670 -2.7998
  151MOL    C6833368   0.741   4.082   2.490  0.5551 -0.9160  0.0737
  151MOL    C6933369   0.870   4.073   2.537  0.1808  0.3052  1.0064
  151MOL    C7033370   0.898   4.060   2.673 -0.1723 -0.0919  0.1904
  151MOL    C7133371   0.800   4.034   2.768  0.0576 -0.5285  0.2423
  151MOL    C7233372   0.666   4.042   2.722 -1.4880 -0.6621 -0.7742
  151MOL    C7333373   0.636   4.065   2.584  0.7531 -0.8101  0.2351
  151MOL    O7433374   0.509   4.062   2.531 -0.2659  0.5706 -0.0674
  151MOL    H7533375   0.720   4.107   2.387  1.1096  0.0532  0.1879
  151MOL    H7633376   0.943   4.104   2.464 -2.0107 -0.3447 -1.5448
  151MOL    H7733377   0.833   4.019   2.870  0.6192  1.9219  0.4472
  151MOL    H7833378   0.585   4.034   2.793 -1.9114  0.0807 -1.1657
  151MOL    C7933379   0.375   4.391   2.441  0.4593  0.2407  0.1352
  151MOL    C8033380   0.440   4.267   2.428 -0.1903 -0.7757  0.4350
  151MOL    C8133381   0.440   4.179   2.537  0.7199 -0.9151  0.2222
  151MOL    C8233382   0.376   4.211   2.658  0.3171 -0.2577 -0.0814
  151MOL    C8333383   0.302   4.332   2.666 -0.3507  0.5384  0.2141
  151MOL    C8433384   0.304   4.424   2.557  0.1680  0.4599 -0.2163
  151MOL    O8533385   0.223   4.532   2.563  0.0159  0.6996 -0.2655
  151MOL    H8633386   0.380   4.468   2.366 -1.4311 -0.8071 -1.1085
  151MOL    H8733387   0.498   4.248   2.339 -0.0226 -1.4443  0.6823
  151MOL    H8833388   0.386   4.145   2.743  2.9749 -0.0489 -0.1865
  151MOL    H8933389   0.259   4.360   2.761 -1.7112  2.0524 -0.8276
  151MOL    C9033390   0.077   4.712   2.278 -0.1030 -0.7006 -0.2857
  151MOL    C9133391   0.171   4.666   2.365  0.0038 -0.1045 -0.2257
  151MOL    C9233392   0.136   4.559   2.456 -0.3297 -0.1277 -0.1632
  151MOL    C9333393   0.003   4.506   2.453 -1.0367  0.4417 -0.4017
  151MOL    C9433394   8.163   4.549   2.356 -0.7983  0.0196 -0.1515
  151MOL    C9533395   8.203   4.648   2.267 -0.4260  0.8009 -0.1897
  151MOL    O9633396   8.115   4.690   2.172 -0.0671  0.3647 -0.6673
  151MOL    H9733397   0.095   4.798   2.215 -1.4759  0.2234  0.5617
  151MOL    H9833398   0.269   4.710   2.376  0.1345 -0.4009 -0.1928
  151MOL    H9933399   8.231   4.431   2.526 -0.4694  1.6072  1.0232
  151MOL   H10033400   8.065   4.506   2.366  1.5982 -5.5476  1.5909
  151MOL   C10133401   8.083   5.038   2.041 -0.2120 -0.4882  0.1734
  151MOL   C10233402   8.128   4.899   2.056 -1.0568 -0.9217 -0.9789
  151MOL   C10333403   8.087   4.819   2.166 -0.5920 -0.6970 -0.9141
  151MOL   C10433404   8.017   4.874   2.271  0.2719 -0.0564 -0.3650
  151MOL   C10533405   7.985   5.013   2.266 -0.0873  1.0070 -0.1154
  151MOL   C10633406   8.008   5.093   2.150  0.8874 -0.2386 -0.2377
  151MOL   O10733407   7.960   5.221   2.138 -0.1573  0.5641  0.1169
  151MOL   H10833408   8.104   5.100   1.955 -3.1323  1.9701  1.1785
  151MOL   H10933409   8.189   4.846   1.985 -1.0201 -0.7994 -1.0377
  151MOL   H11033410   7.994   4.801   2.347 -2.7468 -1.2400 -2.2942
  151MOL   H11133411   7.941   5.055   2.355 -2.1968 -2.6605  0.6528
  151MOL   C11233412   7.671   5.360   2.295 -0.4547  0.8551  0.2340
  151MOL   C11333413   7.802   5.316   2.273 -0.0479 -0.3426  0.4652
  151MOL   C11433414   7.831   5.240   2.161  0.4763  0.5521  0.2900
  151MOL   C11533415   7.724   5.208   2.071 -0.6162 -0.5880  0.0470
  151MOL   C11633416   7.596   5.246   2.091 -0.1817 -0.0054 -0.4637
  151MOL   C11733417   7.567   5.322   2.207 -0.5442  0.3710  0.1476
  151MOL   O11833418   7.442   5.376   2.225  0.1002  0.4219 -0.2041
  151MOL   H11933419   7.660   5.425   2.380  0.5520  0.2782  0.8098
  151MOL   H12033420   7.878   5.351   2.341  0.0035  1.9152 -0.6905
  151MOL   H12133421   7.746   5.163   1.975  1.3139 -0.1974  0.2986
  151MOL   H12233422   7.522   5.219   2.017 -1.1016  2.8464 -0.6283
  151MOL   C12333423   7.265   5.162   2.466 -0.2499  0.3398 -0.1289
  151MOL   C12433424   7.343   5.197   2.357  0.9344  0.1388 -0.0508
  151MOL   C12533425   7.353   5.329   2.321  0.7112 -0.6789  1.2377
  151MOL   C12633426   7.263   5.422   2.374 -0.5705  0.6188  0.5372
  151MOL   C12733427   7.162   5.384   2.463  0.3634 -0.1227 -0.1937
  151MOL   C12833428   7.176   5.254   2.523 -0.2563 -0.5943  0.7333
  151MOL   O12933429   7.097   5.210   2.622 -0.2475 -0.1072  0.3422
  151MOL   H13033430   7.269   5.060   2.501 -1.7355  0.6731  1.0948
  151MOL   H13133431   7.417   5.129   2.318  0.7870  1.5674 -2.9830
  151MOL   H13233432   7.256   5.524   2.340  0.1563  0.3507 -0.4191
  151MOL   H13333433   7.094   5.453   2.510  0.0626 -0.6233  0.1143
  151MOL   C13433434   6.794   5.337   2.775 -0.5039  0.2921 -0.7086
  151MOL   C13533435   6.928   5.330   2.740 -0.1265  1.2676  0.3037
  151MOL   C13633436   6.969   5.248   2.631  0.4650 -0.5546 -0.7359
  151MOL   C13733437   6.871   5.183   2.558 -0.0269 -0.1430 -0.3403
  151MOL   C13833438   6.737   5.195   2.590 -0.0366 -0.3481 -0.4324
  151MOL   C13933439   6.697   5.265   2.704 -0.0325 -0.2092 -0.2720
  151MOL   O14033440   6.565   5.264   2.752 -0.0297 -0.1033 -0.7128
  151MOL   H14133441   6.781   5.395   2.864  0.3766  0.9774 -1.0145
  151MOL   H14233442   7.001   5.362   2.813 -1.1397  0.8598  1.4836
  151MOL   H14333443   6.890   5.125   2.469  0.2030 -1.6869  0.7060
  151MOL   H14433444   6.667   5.143   2.526  0.5201 -2.0198  0.2977
  151MOL   C14533445   6.256   5.387   2.596  0.0107  0.0672  0.0555
  151MOL   C14633446   6.361   5.301   2.637  0.3953  0.8906  0.1729
  151MOL   C14733447   6.470   5.350   2.706  0.4449 -0.4202  0.5099
  151MOL   C14833448   6.474   5.487   2.742  0.2467  0.0389 -0.0414
  151MOL   C14933449   6.366   5.572   2.713  0.2707  0.0219 -0.1401
  151MOL   C15033450   6.250   5.519   2.639 -0.4286  0.4991  0.1413
  151MOL   O15133451   6.148   5.592   2.593  0.0583 -0.0513 -0.2592
  151MOL   H15233452   6.173   5.351   2.537  0.1079  1.7920 -1.1879
  151MOL   H15333453   6.366   5.199   2.602  2.8845  0.8864  0.4894
  151MOL   H15433454   6.550   5.539   2.798 -0.9352  0.6756  1.0196
  151MOL   H15533455   6.364   5.669   2.759 -1.5428  0.0015 -0.1477
  151MOL   C15633456   6.279   5.872   2.397  0.3254 -0.5956  0.4848
  151MOL   C15733457   6.237   5.805   2.509 -0.2870  0.0863  0.0822
  151MOL   C15833458   6.190   5.672   2.488  0.0637  0.6255  0.3572
  151MOL   C15933459   6.186   5.616   2.363 -0.2736 -0.4797  0.3757
  151MOL   C16033460   6.221   5.689   2.252  0.5486 -0.0899  0.0946
  151MOL   C16133461   6.271   5.816   2.267 -0.3604 -0.4693 -0.0439
  151MOL   O16233462   6.305   5.890   2.159  0.0050  0.4014  0.2589
  151MOL   H16333463   6.305   5.976   2.411 -1.6317 -0.2026  1.4333
  151MOL   H16433464   6.231   5.849   2.607 -0.1112 -0.3705  0.3008
  151MOL   H16533465   6.165   5.510   2.363  1.0084 -0.7560  1.2246
  151MOL   H16633466   6.219   5.642   2.155  1.6160  0.6233 -0.2772
  151MOL   C16733467   6.671   5.852   2.121 -0.4795  0.3678  0.2130
  151MOL   C16833468   6.547   5.870   2.179  0.2436  0.0140 -0.1197
  151MOL   C16933469   6.430   5.875   2.105 -0.1134  0.1186 -0.0526
  151MOL   C17033470   6.430   5.852   1.964  0.4070  0.6086 -0.1788
  151MOL   C17133471   6.559   5.840   1.903  1.0937  0.2121 -0.2296
  151MOL   C17233472   6.674   5.837   1.979 -0.0740 -0.5712 -0.1081
  151MOL   O17333473   6.794   5.814   1.916 -0.1085  0.3549 -0.0360
  151MOL   H17433474   6.757   5.849   2.186  0.9219 -2.1961 -1.6781
  151MOL   H17533475   6.538   5.883   2.286 -1.9859  0.1399 -0.2944
  151MOL   H17633476   6.337   5.848   1.910 -0.3799  3.5848  0.8699
  151MOL   H17733477   6.568   5.832   1.796 -0.6763 -1.9649 -0.2518
  151MOL   C17833478   6.877   6.035   1.634 -0.3730  0.0666 -0.7234
  151MOL   C17933479   6.830   5.921   1.705  0.0487  0.3682 -0.5545
  151MOL   C18033480   6.853   5.913   1.844 -0.5815  0.3279  0.0345
  151MOL   C18133481   6.932   6.014   1.908  0.6424  0.2260  0.1344
  151MOL   C18233482   6.976   6.122   1.831 -0.4979  0.9756  0.4428
  151MOL   C18333483   6.952   6.133   1.695 -0.6973 -0.9542  0.2109
  151MOL   O18433484   7.008   6.239   1.622 -0.1493  0.1770 -0.0892
  151MOL   H18533485   6.858   6.050   1.529 -1.1193 -0.3801 -0.6574
  151MOL   H18633486   6.772   5.842   1.660 -1.9836  1.7213 -0.3898
  151MOL   H18733487   6.938   6.012   2.016  2.6573 -0.5607  0.0255
  151MOL   H18833488   7.030   6.208   1.869  0.9823  0.5127 -0.5855
  151MOL   C18933489   7.345   6.115   1.563 -0.4129 -0.2345  0.1445
  151MOL   C19033490   7.207   6.119   1.578  0.4800 -0.5651 -0.4684
  151MOL   C19133491   7.144   6.238   1.605 -0.2060 -0.3476 -1.0642
  151MOL   C19233492   7.220   6.352   1.625 -0.1380 -0.0598  0.6881
  151MOL   C19333493   7.359   6.355   1.604  0.3260  0.7122  0.1965
  151MOL   C19433494   7.425   6.231   1.574  0.7675  0.1319  0.0062
  151MOL   O19533495   7.559   6.223   1.547  0.3911  0.0426  0.4619
  151MOL   H19633496   7.401   6.029   1.530 -0.6860  0.0982 -1.2327
  151MOL   H19733497   7.142   6.034   1.562 -0.2389 -0.6263  2.5057
  151MOL   H19833498   7.173   6.449   1.626 -0.6849 -0.3263  1.1455
  151MOL   H19933499   7.420   6.443   1.607 -0.4093  1.2511 -0.4269
  151MOL   C20033500   7.731   5.983   1.752 -0.2951  0.4073 -0.6195
  151MOL   C20133501   7.665   6.036   1.642  0.1862  0.1475  0.5745
  151MOL   C20233502   7.634   6.174   1.643 -0.0799  0.6384 -0.5287
  151MOL   C20333503   7.660   6.254   1.758  0.1389 -0.3168 -0.0530
  151MOL   C20433504   7.723   6.195   1.869  0.1430 -0.5642  0.0519
  151MOL   C20533505   7.759   6.061   1.864  0.2916 -0.1927  0.0803
  151MOL   O20633506   7.827   5.999   1.965 -0.5244  0.0191  0.0230
  151MOL   H20733507   7.765   5.881   1.752 -3.4068 -0.7103 -2.6196
  151MOL   H20833508   7.632   5.983   1.553  0.1150  1.6249 -0.3058
  151MOL   H20933509   7.629   6.358   1.761 -2.3316 -1.0414  3.3045
  151MOL   H21033510   7.735   6.256   1.957  1.3510  0.3971 -0.7607
  151MOL   C21133511   7.647   5.871   2.253  0.2277  0.1626 -0.2102
  151MOL   C21233512   7.711   5.963   2.171 -0.0104 -0.4681  0.0923
  151MOL   C21333513   7.761   5.914   2.051 -0.2730  0.4123 -0.5536
  151MOL   C21433514   7.746   5.783   2.013  0.4282 -0.4235 -0.2722
  151MOL   C21533515   7.684   5.690   2.093  0.0951  0.1292  0.2640
  151MOL   C21633516   7.635   5.734   2.219 -0.1573 -0.4887 -0.0689
  151MOL   O21733517   7.569   5.659   2.311  0.1208  0.2187 -0.0848
  151MOL   H21833518   7.607   5.902   2.348  1.7766  2.7926 -0.3425
  151MOL   H21933519   7.718   6.067   2.200 -0.9048 -0.1507 -0.8198
  151MOL   H22033520   7.788   5.747   1.920  0.9896 -0.5054  0.0066
  151MOL   H22133521   7.665   5.593   2.049  1.3940  0.1333 -0.3111
  151MOL   H22233522   7.555   5.572   2.277  2.0618  0.1787 -0.8548
  152MOL     C133523   4.890   8.219   7.728  0.0871  0.1123 -0.1134
  152MOL     C233524   4.884   8.085   7.696 -0.4935  0.0546 -0.1139
  152MOL     C333525   4.843   7.991   7.793 -0.4268 -0.0251  0.2805
  152MOL     C433526   4.806   8.032   7.917 -0.2104  0.4618 -0.3924
  152MOL     C533527   4.820   8.169   7.956  0.3185  0.0598  0.1274
  152MOL     C633528   4.860   0.009   7.857  0.6205 -0.2810  0.1189
  152MOL     O733529   4.866   0.142   7.886 -0.2993  0.0085 -0.6323
  152MOL     H833530   4.916   0.047   7.663  2.0845  0.2026  0.7584
  152MOL     H933531   4.897   8.052   7.594 -0.1902 -1.9302  0.5513
  152MOL    H1033532   4.768   7.956   7.985 -0.6225  1.3233  0.3510
  152MOL    H1133533   4.795   8.201   8.056  2.9628  0.8752  0.5711
  152MOL    H1233534   4.815   7.891   7.763  1.7385 -0.3582 -0.7591
  152MOL    C1333535   4.935   0.360   8.171  0.2277  0.4231 -0.7510
  152MOL    C1433536   4.873   0.291   8.070 -0.2477 -0.0420 -0.0651
  152MOL    C1533537   4.930   0.187   8.000  0.7857  0.4706  0.1120
  152MOL    C1633538   5.053   0.140   8.046 -0.2347  0.5507  0.2896
  152MOL    C1733539   5.118   0.198   8.157 -0.1925 -0.5809  0.0738
  152MOL    C1833540   5.056   0.312   8.222  0.7500  0.1530 -0.1147
  152MOL    O1933541   5.119   0.373   0.076  0.4961 -0.5230  1.2557
  152MOL    H2033542   4.887   0.445   8.217  3.8041  2.9393 -1.4443
  152MOL    H2133543   4.785   0.335   8.027  1.0717  2.2037 -0.5435
  152MOL    H2233544   5.112   0.070   7.988 -1.2640 -1.3110  1.4668
  152MOL    H2333545   5.201   0.150   8.206 -0.8408  0.3882  2.2113
  152MOL    C2433546   4.977   0.695   0.168 -0.6981 -0.4608  0.0257
  152MOL    C2533547   5.045   0.598   0.095 -0.0997  0.3301 -0.1684
  152MOL    C2633548   5.051   0.467   0.147 -0.4406 -0.7917 -0.3524
  152MOL    C2733549   4.989   0.433   0.269  0.8801  0.2310  0.3371
  152MOL    C2833550   4.911   0.528   0.335  0.4480 -0.1811  0.2661
  152MOL    C2933551   4.908   0.662   0.286 -0.2486 -0.0003 -0.2686
  152MOL    O3033552   4.863   0.765   0.358 -0.0491  0.2765 -0.5863
  152MOL    H3133553   4.999   0.796   0.135 -1.1476  0.3404  2.1273
  152MOL    H3233554   5.087   0.624   8.253 -0.4567 -0.1308 -0.4509
  152MOL    H3333555   4.994   0.330   0.301 -1.5353  0.0259  0.1502
  152MOL    H3433556   4.861   0.513   0.429  1.2544  2.6463  1.1875
  152MOL    C3533557   4.545   0.868   0.514 -0.4121  0.2896  0.1987
  152MOL    C3633558   4.677   0.823   0.493  0.4083 -0.1865  0.3265
  152MOL    C3733559   4.728   0.789   0.367 -0.3696 -0.0751 -0.5900
  152MOL    C3833560   4.634   0.795   0.259 -0.1800 -0.3902 -0.3634
  152MOL    C3933561   4.497   0.834   0.282 -0.3861  0.4536 -0.2808
  152MOL    C4033562   4.448   0.867   0.413 -0.2777  0.6578  0.0294
  152MOL    O4133563   4.322   0.907   0.436 -0.0932 -0.2819 -0.1352
  152MOL    H4233564   4.523   0.886   0.619 -1.2698 -3.7353  0.7786
  152MOL    H4333565   4.746   0.834   0.575 -1.0894 -1.1152  1.7460
  152MOL    H4433566   4.670   0.774   0.159  1.6335 -2.1320  0.6365
  152MOL    H4533567   4.419   0.825   0.208 -0.3976 -1.4258 -0.0604
  152MOL    C4633568   3.968   0.848   0.321 -0.5059 -0.3814  0.4306
  152MOL    C4733569   4.092   0.910   0.356 -0.1613 -0.1431 -0.1665
  152MOL    C4833570   4.210   0.839   0.387  0.1941  0.0580 -1.2221
  152MOL    C4933571   4.203   0.693   0.368  0.9327 -0.7609  0.2339
  152MOL    C5033572   4.083   0.632   0.319  0.1402  0.6183 -0.3345
  152MOL    C5133573   3.968   0.708   0.298 -0.4121 -0.0877  0.3196
  152MOL    O5233574   3.870   0.648   0.225  0.2654  1.1954  0.8367
  152MOL    H5333575   3.884   0.910   0.294  1.4525  1.7025 -1.0737
  152MOL    H5433576   4.105   1.017   0.351 -4.1956  0.3207 -4.3117
  152MOL    H5533577   4.291   0.637   0.395  1.9216  0.3490 -0.6698
  152MOL    H5633578   4.076   0.524   0.312 -0.3672  0.5777  0.6769
  152MOL    C5733579   3.689   0.362   0.346 -0.3763 -0.1644 -0.0029
  152MOL    C5833580   3.784   0.434   0.276 -0.1503  0.6104 -0.9039
  152MOL    C5933581   3.785   0.571   0.300  0.3013  0.4174 -0.6723
  152MOL    C6033582   3.711   0.636   0.398  0.0075  0.0452 -0.8472
  152MOL    C6133583   3.628   0.559   0.481  0.7294  0.9354  0.5639
  152MOL    C6233584   3.613   0.420   0.445  0.5058  0.6729 -0.8611
  152MOL    O6333585   3.531   0.336   0.519  0.3969 -0.4077  0.1847
  152MOL    H6433586   3.685   0.256   0.323  1.6090  0.2388 -2.4223
  152MOL    H6533587   3.860   0.379   0.222  2.1472  2.2451  0.5810
  152MOL    H6633588   3.724   0.741   0.421 -2.8960  0.0741  0.7963
  152MOL    H6733589   3.568   0.601   0.560  1.3529  0.2780  1.3944
  152MOL    C6833590   3.191   0.420   0.373  1.1271  0.1002  0.8795
  152MOL    C6933591   3.331   0.402   0.385 -0.2394  0.1386 -0.1252
  152MOL    C7033592   3.397   0.341   0.496  0.0147  0.0483  0.4119
  152MOL    C7133593   3.312   0.290   0.597  0.3353 -0.2834 -0.3090
  152MOL    C7233594   3.170   0.292   0.585 -0.3649 -0.6427 -0.4285
  152MOL    C7333595   3.110   0.368   0.479 -0.0522  0.6674 -0.1842
  152MOL    O7433596   2.975   0.378   0.475  0.8084  0.2010 -0.0549
  152MOL    H7533597   3.152   0.476   0.289 -0.7072 -0.3639  1.3905
  152MOL    H7633598   3.401   0.438   0.312 -0.5892  0.2959 -0.3878
  152MOL    H7733599   3.347   0.239   0.686 -2.1925  0.0534  0.9117
  152MOL    H7833600   3.111   0.249   0.664 -0.4490 -0.1774 -0.2368
  152MOL    C7933601   2.785   0.482   0.181 -0.5525 -0.0756  0.8137
  152MOL    C8033602   2.845   0.403   0.279 -0.1560 -0.5595 -0.5565
  152MOL    C8133603   2.909   0.466   0.386  0.8032  0.1124  0.5330
  152MOL    C8233604   2.902   0.607   0.397 -0.2844  0.3683  0.3958
  152MOL    C8333605   2.816   0.675   0.312  0.6811  0.1550  0.2381
  152MOL    C8433606   2.757   0.619   0.202  0.7156  0.4576  0.4090
  152MOL    O8533607   2.694   0.703   0.115  0.3810  0.3098 -0.0106
  152MOL    H8633608   2.734   0.431   0.101  0.2601 -0.3045  0.4338
  152MOL    H8733609   2.849   0.295   0.269 -0.3973 -0.5156 -1.1746
  152MOL    H8833610   2.945   0.652   0.486  0.7679 -0.3767  0.2636
  152MOL    H8933611   2.812   0.782   0.329  0.4104  0.0933  0.5737
  152MOL    C9033612   2.333   0.621   0.113 -0.4338 -0.4645 -0.1671
  152MOL    C9133613   2.467   0.634   0.156  0.2498  0.2444  0.7190
  152MOL    C9233614   2.562   0.699   0.076  0.3112 -0.3670 -0.4090
  152MOL    C9333615   2.520   0.742   8.204  0.1602 -0.9797 -0.4500
  152MOL    C9433616   2.388   0.736   8.163  0.4394 -0.1522 -0.1886
  152MOL    C9533617   2.294   0.668   8.247  0.3762 -0.8864 -0.7013
  152MOL    O9633618   2.165   0.664   8.208  0.6591  0.0036  0.5138
  152MOL    H9733619   2.251   0.583   0.173 -1.4019  2.5529  0.5037
  152MOL    H9833620   2.498   0.597   0.253 -0.8290  0.1482  1.0261
  152MOL    H9933621   2.593   0.798   8.148 -1.2468  1.0595 -0.3454
  152MOL   H10033622   2.362   0.791   8.073  2.4548  1.8600  0.4147
  152MOL   C10133623   1.848   0.812   0.064 -0.5731 -0.1676 -0.0110
  152MOL   C10233624   1.940   0.729   8.253  0.5420  0.3691 -0.4932
  152MOL   C10333625   2.077   0.757   0.007  0.2110  0.7264 -0.0605
  152MOL   C10433626   2.119   0.872   0.073  0.8034 -0.5978 -0.5554
  152MOL   C10533627   2.027   0.955   0.150 -1.5456  0.7581  0.6507
  152MOL   C10633628   1.888   0.920   0.141  0.1768  0.2377  0.2830
  152MOL   O10733629   1.798   0.981   0.226 -0.1318  0.0453 -0.4062
  152MOL   H10833630   1.742   0.795   0.063 -1.0051  1.9750  3.1445
  152MOL   H10933631   1.906   0.640   8.203  1.0946  0.0648 -0.3286
  152MOL   H11033632   2.222   0.902   0.080  0.8646 -0.3373 -2.4941
  152MOL   H11133633   2.065   1.026   0.222  0.1234 -0.7301  1.2945
  152MOL   C11233634   1.682   1.276   0.034 -1.3656  0.4314  0.1462
  152MOL   C11333635   1.706   1.140   0.067 -1.0284  0.8236 -0.9397
  152MOL   C11433636   1.768   1.110   0.190 -0.0442  0.5547 -0.2633
  152MOL   C11533637   1.792   1.217   0.277  0.3492  0.4858 -0.0994
  152MOL   C11633638   1.763   1.352   0.245  0.0145 -0.0031 -0.5038
  152MOL   C11733639   1.715   1.380   0.117 -0.1521 -0.1774 -0.8310
  152MOL   O11833640   1.681   1.512   0.078  0.1294  0.3359  0.4019
  152MOL   H11933641   1.643   1.307   8.192 -1.0916  1.9563  0.5139
  152MOL   H12033642   1.689   1.055   0.002  0.8335 -0.0587 -0.3004
  152MOL   H12133643   1.839   1.199   0.373  1.1025  0.0318 -0.5473
  152MOL   H12233644   1.799   1.430   0.310 -0.3149  0.5646 -0.9998
  152MOL   C12333645   1.841   1.644   8.030 -0.3606  0.1561 -1.0204
  152MOL   C12433646   1.753   1.570   8.114  0.4305  0.5589 -0.5381
  152MOL   C12533647   1.771   1.575   8.249  0.3101  0.9548  0.2138
  152MOL   C12633648   1.878   1.642   0.057 -0.6509 -0.0610  0.8462
  152MOL   C12733649   1.965   1.718   8.230  0.2113  0.6006  0.5438
  152MOL   C12833650   1.946   1.724   8.091  0.3691 -0.4919 -0.5767
  152MOL   O12933651   2.023   1.810   8.025  0.3357 -0.3756 -0.1873
  152MOL   H13033652   1.828   1.652   7.923 -0.2979 -0.1110 -1.0470
  152MOL   H13133653   1.666   1.519   8.074  0.9475 -0.2616 -0.6103
  152MOL   H13233654   1.896   1.655   0.162 -1.1153 -0.4425  0.9772
  152MOL   H13333655   2.050   1.773   0.015  0.5246 -0.5935  1.5542
  152MOL   C13433656   1.889   2.149   8.041 -0.6881 -0.2678 -0.0098
  152MOL   C13533657   1.942   2.028   8.083  0.3263  0.6475  0.3788
  152MOL   C13633658   1.965   1.929   7.984  0.1410 -0.1915  0.1041
  152MOL   C13733659   1.929   1.945   7.850  0.6961  0.2944  0.5458
  152MOL   C13833660   1.891   2.076   7.807 -0.1102 -0.2796  0.3711
  152MOL   C13933661   1.867   2.176   7.900  0.1909  0.1218 -0.2710
  152MOL   O14033662   1.810   2.295   7.860 -0.0780 -0.3253 -0.5337
  152MOL   H14133663   1.870   2.217   8.123 -1.8543 -1.3957  0.6674
  152MOL   H14233664   1.982   2.013   8.182 -1.9912  0.8678  1.3766
  152MOL   H14333665   1.932   1.867   7.775 -1.6154 -0.9022  1.6521
  152MOL   H14433666   1.870   2.094   7.702  0.0755 -0.0612  0.3705
  152MOL   C14533667   2.030   2.567   7.963  0.6952  0.6473  0.0416
  152MOL   C14633668   1.986   2.442   7.911  0.3018  0.1198  1.0970
  152MOL   C14733669   1.850   2.407   7.917  0.5578 -0.1737 -0.0327
  152MOL   C14833670   1.758   2.494   7.979 -0.3518 -0.2200 -0.3088
  152MOL   C14933671   1.801   2.614   8.038 -0.6909 -0.8734  0.3451
  152MOL   C15033672   1.935   2.654   8.026  0.8854 -0.2409 -0.2131
  152MOL   O15133673   1.973   2.774   8.073 -0.1721  0.7448  0.1192
  152MOL   H15233674   2.128   2.607   7.939  1.1278 -1.2870 -1.5855
  152MOL   H15333675   2.058   2.387   7.853 -0.2207  2.0417 -1.4638
  152MOL   H15433676   1.652   2.469   7.982 -0.4655  0.0209 -2.0062
  152MOL   H15533677   1.721   2.667   8.088 -0.8746  1.6576 -2.4942
  152MOL   C15633678   1.915   3.048   7.825 -0.4589 -0.2526  0.3661
  152MOL   C15733679   1.896   2.945   7.922  0.0315  0.5278  0.2472
  152MOL   C15833680   1.999   2.864   7.974  0.2168  0.2373  0.0325
  152MOL   C15933681   2.128   2.907   7.931  0.0936  0.4255  0.1074
  152MOL   C16033682   2.149   2.991   7.824  0.2373  0.3839  0.0847
  152MOL   C16133683   2.043   3.070   7.768  0.2477  0.6041  0.0884
  152MOL   O16233684   2.067   3.152   7.657 -0.1357  0.3032 -0.3449
  152MOL   H16333685   1.832   3.103   7.784  0.4498  2.6057  2.2263
  152MOL   H16433686   1.799   2.929   7.967  1.1049 -1.4450  1.9552
  152MOL   H16533687   2.214   2.851   7.967  1.0238  2.5294  1.3040
  152MOL   H16633688   2.248   3.005   7.784  0.1924 -0.7352 -0.4322
  152MOL   C16733689   2.183   3.042   7.322  0.2961  0.2951  0.0968
  152MOL   C16833690   2.189   3.095   7.455  0.2540 -0.3969  0.1434
  152MOL   C16933691   2.071   3.102   7.534  0.2118 -0.0215  0.5210
  152MOL   C17033692   1.951   3.069   7.472  0.0067 -0.2727 -0.4284
  152MOL   C17133693   1.945   3.015   7.341 -0.7954  0.6920 -0.4802
  152MOL   C17233694   2.062   2.997   7.262  0.5871 -0.8867 -0.1556
  152MOL   O17333695   2.050   2.945   7.132  0.0664  0.6590  0.4722
  152MOL   H17433696   2.276   3.034   7.267 -0.4568 -1.6646 -0.9183
  152MOL   H17533697   2.282   3.125   7.500  0.2848 -0.1176 -0.1078
  152MOL   H17633698   1.854   3.086   7.518  0.5845  1.5720  0.1569
  152MOL   H17733699   1.847   2.991   7.303 -2.0845  0.7214  2.6888
  152MOL   C17833700   2.161   3.148   6.842 -0.8421 -0.1874  0.8763
  152MOL   C17933701   2.159   3.053   6.950  0.0490  0.0352  0.2745
  152MOL   C18033702   2.045   3.034   7.023  0.8252 -0.7025  0.7445
  152MOL   C18133703   1.926   3.098   6.980  0.1161  0.1854 -0.1000
  152MOL   C18233704   1.919   3.179   6.866 -0.7384  0.1176  0.4553
  152MOL   C18333705   2.042   3.209   6.800  0.7820 -0.7603 -0.1884
  152MOL   O18433706   2.045   3.313   6.709 -0.1441  0.1089  0.4229
  152MOL   H18533707   2.244   3.164   6.776 -1.5756  0.2384  0.0447
  152MOL   H18633708   2.244   2.999   6.991  0.7201  2.1058  1.7280
  152MOL   H18733709   1.833   3.078   7.030 -0.5631  1.1074 -0.9670
  152MOL   H18833710   1.830   3.231   6.836 -0.2083  1.1365  0.6334
  152MOL   C18933711   1.908   3.144   6.409  0.1396 -0.7367  0.5653
  152MOL   C19033712   1.925   3.184   6.541 -0.0965 -0.0126  0.0837
  152MOL   C19133713   2.026   3.274   6.576  0.1955 -0.1759  0.9725
  152MOL   C19233714   2.103   3.333   6.468 -0.3304 -0.4335 -0.3463
  152MOL   C19333715   2.084   3.294   6.329 -0.0387 -0.1378 -0.4933
  152MOL   C19433716   1.987   3.192   6.302 -0.7667  0.0384 -0.0616
  152MOL   O19533717   1.973   3.150   6.176  0.3317  0.6264  0.3639
  152MOL   H19633718   1.822   3.087   6.378  0.2036 -0.0518 -0.9344
  152MOL   H19733719   1.854   3.140   6.610 -0.7492 -0.5555 -0.9133
  152MOL   H19833720   2.179   3.405   6.493 -3.0702  2.0477  1.1445
  152MOL   H19933721   2.129   3.345   6.245 -1.1386  1.5651 -0.0801
  152MOL   C20033722   1.690   3.343   6.060  0.4495 -0.0135 -0.6940
  152MOL   C20133723   1.817   3.307   6.105 -0.9183  0.1671  0.3182
  152MOL   C20233724   1.848   3.174   6.120  0.7563  0.3527  0.5404
  152MOL   C20333725   1.756   3.072   6.088  0.1123  0.5909 -0.1596
  152MOL   C20433726   1.621   3.107   6.049 -0.5543  0.2619 -0.1622
  152MOL   C20533727   1.591   3.245   6.038  0.1271 -0.4841  0.3070
  152MOL   O20633728   1.466   3.277   5.993  0.2109 -0.0393  0.4661
  152MOL   H20733729   1.650   3.443   6.049 -1.9457 -0.5029  2.8909
  152MOL   H20833730   1.896   3.380   6.122  0.5691 -0.5258 -3.1277
  152MOL   H20933731   1.783   2.967   6.098 -0.3648  0.1634 -2.9479
  152MOL   H21033732   1.545   3.032   6.034 -0.4550  0.1626 -0.1725
  152MOL   C21133733   1.166   3.085   6.096  0.4429  0.5515  0.5360
  152MOL   C21233734   1.276   3.126   6.022 -0.6859 -0.3108 -0.2940
  152MOL   C21333735   1.355   3.234   6.074  0.6881 -0.2866  0.3409
  152MOL   C21433736   1.325   3.286   6.197 -0.3478 -0.2146 -0.3021
  152MOL   C21533737   1.216   3.249   6.275  0.3693 -0.4999 -0.2384
  152MOL   C21633738   1.145   3.140   6.226 -0.4274  0.2001  0.2623
  152MOL   O21733739   1.055   3.081   6.308  0.6321 -0.4379  0.4680
  152MOL   H21833740   1.105   3.002   6.062  0.9306  0.4637 -0.1260
  152MOL   H21933741   1.302   3.068   5.934  0.9182 -0.2720  0.1311
  152MOL   H22033742   1.397   3.360   6.230  0.5545  0.4330 -3.5495
  152MOL   H22133743   1.203   3.289   6.374  1.8193 -1.5210  0.3806
  152MOL   H22233744   0.988   3.028   6.268  0.2879  1.1704 -1.1316
  153MOL     C133745   4.135   2.065   0.704 -0.2937  0.1029  0.2621
  153MOL     C233746   4.205   1.945   0.731 -0.0081  0.3180  0.3672
  153MOL     C333747   4.340   1.934   0.676  0.7416  0.4696  0.1597
  153MOL     C433748   4.387   2.039   0.595  0.6869  0.2644  0.4012
  153MOL     C533749   4.308   2.149   0.558 -0.4254  0.0606 -0.2625
  153MOL     C633750   4.178   2.165   0.612 -0.2483  0.3561  0.2598
  153MOL     O733751   4.094   2.264   0.585 -0.2816  0.4596 -0.4225
  153MOL     H833752   4.037   2.085   0.746 -1.1632  1.1412 -2.1446
  153MOL     H933753   4.161   1.870   0.794 -1.0281  0.3050 -0.3485
  153MOL    H1033754   4.477   2.015   0.540 -0.2060 -0.1236 -0.9026
  153MOL    H1133755   4.339   2.220   0.483 -2.3650  1.5392  0.2736
  153MOL    H1233756   4.417   1.859   0.689  0.9920  0.7248  0.1732
  153MOL    C1333757   3.958   2.194   0.249 -0.6264  0.3326  0.0825
  153MOL    C1433758   3.975   2.184   0.386  0.9571 -0.8997  0.1206
  153MOL    C1533759   4.058   2.273   0.455  0.0714  0.5448 -0.1119
  153MOL    C1633760   4.115   2.383   0.386 -0.1550  0.5810  0.3364
  153MOL    C1733761   4.087   2.401   0.249 -0.1012  0.3094 -0.2732
  153MOL    C1833762   4.018   2.301   0.181  0.0960  0.3014  0.1477
  153MOL    O1933763   4.005   2.313   0.048  0.7459  0.4040 -0.2362
  153MOL    H2033764   3.906   2.108   0.210 -1.7340  1.9566 -2.0971
  153MOL    H2133765   3.936   2.100   0.443  1.1303  0.2883  2.0417
  153MOL    H2233766   4.181   2.451   0.438  0.9245 -2.0561  2.5164
  153MOL    H2333767   4.128   2.477   0.184 -1.0738  0.4410 -0.7523
  153MOL    C2433768   3.651   2.399   8.247 -1.4920  0.3687 -0.3063
  153MOL    C2533769   3.780   2.407   0.036  0.5250 -0.5038 -0.7353
  153MOL    C2633770   3.875   2.314   8.252 -0.2955 -0.0945 -0.0116
  153MOL    C2733771   3.833   2.208   8.166  0.4608  0.4477  1.0981
  153MOL    C2833772   3.698   2.197   8.119  0.5218  0.4237 -0.9801
  153MOL    C2933773   3.608   2.298   8.160  0.1988  0.5097  0.3933
  153MOL    O3033774   3.485   2.292   8.102  0.9869  0.6502  0.0025
  153MOL    H3133775   3.582   2.474   0.028 -2.7797 -1.7334  1.8754
  153MOL    H3233776   3.809   2.482   0.108  0.4409  1.4871 -2.7152
  153MOL    H3333777   3.910   2.142   8.129 -0.0110  0.8567 -0.6760
  153MOL    H3433778   3.658   2.126   8.048 -0.5039  0.7179 -0.6973
  153MOL    C3533779   3.404   2.548   7.844  0.1098 -0.6435 -0.0226
  153MOL    C3633780   3.458   2.434   7.906  0.4992 -0.2729  0.4075
  153MOL    C3733781   3.440   2.405   8.038  0.2670 -0.8208 -0.1962
  153MOL    C3833782   3.354   2.490   8.114 -0.2103  0.0831 -0.1221
  153MOL    C3933783   3.296   2.602   8.048  0.6531 -0.2140  0.5697
  153MOL    C4033784   3.318   2.632   7.912 -0.0641  0.5751  0.3656
  153MOL    O4133785   3.271   2.740   7.846 -0.1964  0.3652  0.7696
  153MOL    H4233786   3.439   2.570   7.744  0.1965  1.8607  0.5493
  153MOL    H4333787   3.515   2.373   7.839 -0.9997 -0.5803 -0.6262
  153MOL    H4433788   3.325   2.457   8.213  0.3443  0.1918  0.0795
  153MOL    H4533789   3.238   2.675   8.104 -0.7654 -1.5410  0.8462
  153MOL    C4633790   3.085   3.019   7.984 -0.4798 -0.1905 -0.1295
  153MOL    C4733791   3.119   2.917   7.900 -0.1367  0.2388 -0.3506
  153MOL    C4833792   3.244   2.855   7.911  0.5131  0.0419  0.1867
  153MOL    C4933793   3.346   2.923   7.984 -0.7805  0.0401 -0.7154
  153MOL    C5033794   3.321   3.045   8.048  0.7251  0.2728 -0.3057
  153MOL    C5133795   3.181   3.092   8.059 -0.5032  0.3575  0.5554
  153MOL    O5233796   3.143   3.195   8.138 -0.7038 -0.5163  0.0590
  153MOL    H5333797   2.987   3.062   8.000 -0.1020  0.5560  0.2519
  153MOL    H5433798   3.043   2.873   7.838 -1.4613  1.9551  0.0116
  153MOL    H5533799   3.440   2.871   7.998  0.1669  1.7943 -0.3911
  153MOL    H5633800   3.396   3.086   8.114  0.2585 -1.1651  1.1574
  153MOL    C5733801   3.309   3.532   8.100  0.2050 -0.0886  0.0741
  153MOL    C5833802   3.276   3.402   8.154  0.0158  0.3419  0.3223
  153MOL    C5933803   3.177   3.321   8.093 -0.2602  0.2673  0.1608
  153MOL    C6033804   3.125   3.371   7.974 -0.2824 -0.2792 -0.4457
  153MOL    C6133805   3.151   3.499   7.911 -0.2475  0.5930  0.1731
  153MOL    C6233806   3.244   3.586   7.984  0.2681  0.2407 -0.2706
  153MOL    O6333807   3.267   3.713   7.937 -0.7411 -0.2768  0.0583
  153MOL    H6433808   3.378   3.588   8.162 -0.3950  1.4671 -0.6230
  153MOL    H6533809   3.323   3.370   8.245  2.9198  0.7737 -0.9552
  153MOL    H6633810   3.059   3.305   7.920 -2.0542  0.2361  1.0553
  153MOL    H6733811   3.093   3.537   7.829 -2.1040 -0.8254  0.8075
  153MOL    C6833812   3.054   3.943   8.134 -0.4704  0.2689  0.4621
  153MOL    C6933813   3.148   3.848   8.107  0.4155  0.0317  0.3190
  153MOL    C7033814   3.180   3.812   7.970 -0.2919 -0.1100 -0.0530
  153MOL    C7133815   3.112   3.876   7.866  0.1246 -0.3614  0.4167
  153MOL    C7233816   3.004   3.959   7.899 -0.7684 -0.4518 -0.0740
  153MOL    C7333817   2.978   4.003   8.028 -0.2837  0.4521 -0.3724
  153MOL    O7433818   2.893   4.109   8.052  0.3342  0.6021 -0.3430
  153MOL    H7533819   3.034   3.971   8.237 -1.1462 -0.7492  0.6169
  153MOL    H7633820   3.209   3.796   8.180  0.9035  3.4898  2.5009
  153MOL    H7733821   3.130   3.845   7.764 -2.1987 -0.2611 -0.0481
  153MOL    H7833822   2.954   4.001   7.813  0.5928 -0.8665 -1.0873
  153MOL    C7933823   3.118   4.405   8.058  0.2351 -0.0996 -0.0021
  153MOL    C8033824   3.063   4.278   8.092  0.3255 -0.7314  0.9743
  153MOL    C8133825   2.944   4.239   8.033  0.5945 -0.7771  0.9736
  153MOL    C8233826   2.881   4.318   7.943  0.2415 -0.4564  0.8754
  153MOL    C8333827   2.941   4.438   7.898  0.2590 -0.4460  0.6529
  153MOL    C8433828   3.063   4.480   7.954  0.3330 -0.6037 -0.7362
  153MOL    O8533829   3.129   4.598   7.933  0.1749 -0.7100  0.0068
  153MOL    H8633830   3.205   4.446   8.107  0.0256 -0.2842  0.5173
  153MOL    H8733831   3.120   4.216   8.160  1.4410 -0.4513  0.3117
  153MOL    H8833832   2.793   4.279   7.894  0.2484  1.6617 -0.8805
  153MOL    H8933833   2.907   4.494   7.812  1.1764  0.4306  0.8574
  153MOL    C9033834   2.994   4.919   7.806 -0.7381 -0.0003 -0.2550
  153MOL    C9133835   3.065   4.800   7.814 -0.4119  0.3810 -0.6234
  153MOL    C9233836   3.056   4.719   7.928 -0.7160 -0.4803  0.2604
  153MOL    C9333837   2.976   4.763   8.037  1.0202  0.0670 -0.5562
  153MOL    C9433838   2.897   4.880   8.027  0.4010  0.0988 -0.3948
  153MOL    C9533839   2.906   4.964   7.914 -0.0524 -0.5704 -0.5682
  153MOL    O9633840   2.843   5.086   7.904 -0.1466  0.8255  0.3770
  153MOL    H9733841   3.008   4.979   7.718  0.3456 -0.1752 -0.2102
  153MOL    H9833842   3.112   4.775   7.720  0.0038 -0.6457 -0.1427
  153MOL    H9933843   2.977   4.705   8.128  1.3410 -1.2049 -1.3534
  153MOL   H10033844   2.839   4.915   8.111 -0.9755 -3.2157  0.0972
  153MOL   C10133845   2.485   5.147   7.991 -0.7209 -0.3077  0.4082
  153MOL   C10233846   2.628   5.158   7.985  0.2630 -0.1064  0.2506
  153MOL   C10333847   2.704   5.088   7.887 -0.2171 -0.4549 -0.1285
  153MOL   C10433848   2.638   5.020   7.783  0.4313  0.1062 -0.2551
  153MOL   C10533849   2.494   5.011   7.789 -0.8637 -0.7447  0.2139
  153MOL   C10633850   2.422   5.060   7.899 -0.5066  0.3557  0.3844
  153MOL   O10733851   2.288   5.038   7.904  0.6596  0.2445 -0.2872
  153MOL   H10833852   2.423   5.201   8.062 -2.0542 -2.1444  0.6882
  153MOL   H10933853   2.682   5.219   8.056  0.6956  0.7835 -0.8270
  153MOL   H11033854   2.694   4.972   7.704 -1.3929 -1.7651 -0.4582
  153MOL   H11133855   2.431   4.972   7.711 -1.9444 -0.9868  1.1960
  153MOL   C11233856   2.045   4.774   7.981 -0.5091  0.3241 -0.0153
  153MOL   C11333857   2.104   4.878   7.913  0.0220 -0.2513 -0.1811
  153MOL   C11433858   2.238   4.918   7.953 -0.0677 -0.3923  0.7078
  153MOL   C11533859   2.309   4.844   8.054  0.0254 -0.3130  0.0659
  153MOL   C11633860   2.247   4.733   8.115 -0.3477  0.3583 -1.0759
  153MOL   C11733861   2.112   4.705   8.085 -0.1293  0.8521 -0.7243
  153MOL   O11833862   2.044   4.618   8.166 -0.4080 -0.3871  0.0160
  153MOL   H11933863   1.944   4.747   7.952 -2.0603  2.4162  3.0959
  153MOL   H12033864   2.052   4.930   7.834 -1.0060 -2.8893 -1.2811
  153MOL   H12133865   2.415   4.857   8.068  0.5347 -1.0129 -2.7065
  153MOL   H12233866   2.286   4.679   8.200 -2.8045 -0.4122 -0.3794
  153MOL   C12333867   2.153   4.287   8.034 -0.5694  1.0645  0.2401
  153MOL   C12433868   2.128   4.424   8.032  0.5877 -0.1040 -0.2450
  153MOL   C12533869   2.065   4.485   8.146  0.3411 -0.1190 -0.0999
  153MOL   C12633870   2.019   4.400   8.248 -0.1181  0.4360  0.6062
  153MOL   C12733871   2.027   4.259   8.245 -0.1491 -0.4827 -0.4184
  153MOL   C12833872   2.106   4.204   8.141  0.5079  0.5234 -0.3987
  153MOL   O12933873   2.134   4.067   8.152  0.2876 -0.8333  0.7363
  153MOL   H13033874   2.210   4.243   7.953 -0.7616 -0.5148  0.9413
  153MOL   H13133875   2.157   4.473   7.940 -0.3895  0.7255 -0.1163
  153MOL   H13233876   1.976   4.444   0.083 -0.1470  2.4043 -0.3551
  153MOL   H13333877   1.994   4.197   0.074 -1.3040  1.0002  0.2593
  153MOL   C13433878   2.502   4.020   8.199  0.1867  0.6662  0.6661
  153MOL   C13533879   2.378   4.082   8.196  0.7936 -0.4799 -0.2035
  153MOL   C13633880   2.265   4.022   8.135  0.7723  0.1176 -0.6096
  153MOL   C13733881   2.288   3.895   8.072 -0.4064  0.4555 -0.1592
  153MOL   C13833882   2.416   3.834   8.064  0.8044 -1.0074 -0.3193
  153MOL   C13933883   2.523   3.890   8.136  0.3477 -0.1376 -0.8350
  153MOL   O14033884   2.650   3.843   8.129  0.3456  0.2380 -0.1627
  153MOL   H14133885   2.579   4.072   0.002 -0.8847  3.3835 -0.2848
  153MOL   H14233886   2.382   4.182   8.238 -0.6088  0.1995 -1.6118
  153MOL   H14333887   2.207   3.842   8.023 -1.4539  0.1744  1.8074
  153MOL   H14433888   2.427   3.739   8.015  1.8884 -1.3947  0.6597
  153MOL   C14533889   2.743   3.793   7.777  0.1780 -0.3055 -0.1433
  153MOL   C14633890   2.681   3.844   7.891 -0.2587 -0.8010  0.0003
  153MOL   C14733891   2.689   3.779   8.016  0.5754  0.0547 -0.4388
  153MOL   C14833892   2.739   3.646   8.019  0.4766 -0.3545 -0.0886
  153MOL   C14933893   2.810   3.591   7.908 -0.9631 -0.4410  0.4959
  153MOL   C15033894   2.809   3.672   7.793 -0.5635  0.4100  1.3390
  153MOL   O15133895   2.875   3.618   7.688  0.3882 -0.3740  0.2270
  153MOL   H15233896   2.757   3.854   7.689 -0.5910  0.9337  0.5775
  153MOL   H15333897   2.652   3.947   7.876 -2.9835 -1.8038 -2.1370
  153MOL   H15433898   2.734   3.597   8.115 -1.4919  1.0900  0.5891
  153MOL   H15533899   2.845   3.489   7.922  0.0855 -0.0854  0.4917
  153MOL   C15633900   2.803   3.309   7.507 -0.8247  0.1915 -0.0592
  153MOL   C15733901   2.863   3.399   7.598  0.2250 -0.3221 -1.0149
  153MOL   C15833902   2.806   3.527   7.616  0.1071  0.4603  0.2093
  153MOL   C15933903   2.697   3.564   7.535  0.4465  0.4407  0.3531
  153MOL   C16033904   2.639   3.476   7.443  0.6851  0.2263 -0.1232
  153MOL   C16133905   2.696   3.348   7.425 -0.6366  0.3182 -0.5696
  153MOL   O16233906   2.644   3.255   7.338  0.2825  0.0421  1.0320
  153MOL   H16333907   2.850   3.212   7.499 -0.9370  0.0387  0.9827
  153MOL   H16433908   2.954   3.369   7.649 -0.0173 -1.0666 -1.0068
  153MOL   H16533909   2.657   3.664   7.544 -0.4000 -0.0728  2.6872
  153MOL   H16633910   2.556   3.510   7.383 -0.7390 -0.4111  1.4691
  153MOL   C16733911   2.688   3.420   7.009  0.6399  0.4136  0.1190
  153MOL   C16833912   2.721   3.369   7.135 -0.3383 -0.1971 -0.0024
  153MOL   C16933913   2.625   3.295   7.212 -0.0115 -0.5372  0.0837
  153MOL   C17033914   2.499   3.270   7.160 -0.0038 -0.2046 -0.2081
  153MOL   C17133915   2.472   3.313   7.027 -0.3912 -0.3706 -0.4403
  153MOL   C17233916   2.564   3.390   6.949  0.2623 -0.5471 -0.2763
  153MOL   O17333917   2.529   3.439   6.829  0.0570  0.2910 -0.1865
  153MOL   H17433918   2.756   3.477   6.948  1.4750  1.0567  1.6309
  153MOL   H17533919   2.822   3.389   7.168 -0.9689  0.2232  1.7080
  153MOL   H17633920   2.430   3.213   7.219  2.2392 -1.2567  1.4797
  153MOL   H17733921   2.368   3.303   6.999 -0.8582  1.2496  0.6752
  153MOL   C17833922   2.355   3.759   6.871 -0.4777  0.2409 -0.1437
  153MOL   C17933923   2.458   3.669   6.879  0.9198  0.5328  1.0720
  153MOL   C18033924   2.430   3.534   6.835 -0.4969  0.3778  0.0960
  153MOL   C18133925   2.306   3.509   6.780  0.4233 -0.3831 -0.0070
  153MOL   C18233926   2.205   3.597   6.782 -0.2214 -0.6284  0.5002
  153MOL   C18333927   2.231   3.727   6.823 -0.2222 -1.2336 -0.8940
  153MOL   O18433928   2.128   3.820   6.820  0.2325 -0.2179 -0.6078
  153MOL   H18533929   2.390   3.854   6.907  2.4693 -1.2675  1.1632
  153MOL   H18633930   2.551   3.701   6.922 -0.4945  3.3719  2.2047
  153MOL   H18733931   2.289   3.404   6.761 -1.1155 -0.1798  0.2469
  153MOL   H18833932   2.106   3.573   6.748 -0.2354 -0.1920  0.2282
  153MOL   C18933933   1.865   3.964   6.613  0.6986 -0.8414  0.4385
  153MOL   C19033934   1.923   3.906   6.729  0.6145 -0.3617 -0.7459
  153MOL   C19133935   2.050   3.846   6.711 -0.5098 -0.4976  0.2009
  153MOL   C19233936   2.112   3.844   6.584  0.6517 -0.3037  0.5348
  153MOL   C19333937   2.044   3.891   6.468  0.1288  0.0399  0.7806
  153MOL   C19433938   1.915   3.946   6.486 -0.1197 -0.9661  0.1775
  153MOL   O19533939   1.847   3.997   6.386 -0.4823  0.1799 -0.2444
  153MOL   H19633940   1.766   4.006   6.621  0.2692 -1.2235 -2.2104
  153MOL   H19733941   1.885   3.918   6.830  0.4113 -1.0433 -0.7382
  153MOL   H19833942   2.211   3.806   6.565  1.1865  0.9467  0.7618
  153MOL   H19933943   2.084   3.884   6.369 -0.4010 -0.1377  0.5740
  153MOL   C20033944   1.961   4.184   6.094 -0.2176  0.1160  0.4157
  153MOL   C20133945   1.905   4.085   6.178 -0.1188  0.9553 -0.4512
  153MOL   C20233946   1.897   4.096   6.316  0.3449  0.5163 -0.2022
  153MOL   C20333947   1.944   4.217   6.376  0.0972  0.3234  0.0813
  153MOL   C20433948   1.992   4.315   6.293  0.0696  0.2420  0.0521
  153MOL   C20533949   2.014   4.299   6.154 -0.5647 -0.7267  0.0512
  153MOL   O20633950   2.084   4.389   6.084  0.1946 -0.1220  0.5501
  153MOL   H20733951   1.957   4.160   5.989  0.7882  1.0925  0.1388
  153MOL   H20833952   1.865   3.995   6.133 -0.5685  1.2032 -0.5493
  153MOL   H20933953   1.935   4.236   6.482 -0.4458  0.6247 -0.0193
  153MOL   H21033954   2.032   4.407   6.335 -0.8683  0.8046 -0.2726
  153MOL   C21133955   2.426   4.248   6.070  0.2459  0.3362  0.4193
  153MOL   C21233956   2.295   4.270   6.116  0.4051  0.6301  0.8537
  153MOL   C21333957   2.209   4.357   6.037 -0.1163  0.0844 -0.3027
  153MOL   C21433958   2.259   4.409   5.916 -0.3363 -0.2357 -0.0158
  153MOL   C21533959   2.385   4.375   5.870 -0.0494  0.1780 -0.0168
  153MOL   C21633960   2.467   4.291   5.946 -0.2286  0.3327 -0.1948
  153MOL   O21733961   2.593   4.257   5.901 -0.4339 -0.2740 -0.0932
  153MOL   H21833962   2.492   4.179   6.119  1.5079  0.0807 -1.5767
  153MOL   H21933963   2.258   4.241   6.213  1.4088 -0.7235  0.8401
  153MOL   H22033964   2.183   4.469   5.869 -1.7005 -1.1400  1.0072
  153MOL   H22133965   2.408   4.407   5.770  0.6649  1.3112  0.5003
  153MOL   H22233966   2.627   4.176   5.936  0.9718  0.7002  0.8866
  154MOL     C133967   3.131   4.912   2.049 -0.4821  0.3264  0.2173
  154MOL     C233968   3.134   4.946   1.914 -0.1634 -0.6033  0.1009
  154MOL     C333969   3.005   4.983   1.862 -0.6538  0.1509 -0.0143
  154MOL     C433970   2.888   4.974   1.936  0.0331  0.9338  0.5116
  154MOL     C533971   2.890   4.934   2.074  0.7107 -0.0573 -0.1821
  154MOL     C633972   3.015   4.904   2.132 -1.1804  0.4103  0.0836
  154MOL     O733973   3.040   4.844   2.253  0.0128 -0.3302  0.4576
  154MOL     H833974   3.227   4.880   2.087 -0.9532 -0.5215  0.7058
  154MOL     H933975   3.227   4.952   1.858 -1.0182 -0.2669 -1.3247
  154MOL    H1033976   2.789   4.994   1.896 -0.3324 -1.8839 -0.1253
  154MOL    H1133977   2.796   4.910   2.122  0.7167 -0.4331 -0.3628
  154MOL    H1233978   2.993   5.021   1.762  0.5036  0.2999 -0.1039
  154MOL    C1333979   2.819   4.639   2.465 -0.0925  0.2859  0.3301
  154MOL    C1433980   2.886   4.756   2.419  0.7705  0.5700  0.5096
  154MOL    C1533981   2.964   4.746   2.299  0.2431 -0.4271  0.1106
  154MOL    C1633982   2.966   4.622   2.227 -0.8943 -0.0776  0.2516
  154MOL    C1733983   2.888   4.514   2.270  0.7371 -0.8357  0.3682
  154MOL    C1833984   2.812   4.523   2.386 -0.0933 -0.5367  0.3596
  154MOL    O1933985   2.731   4.416   2.428  0.2258 -0.1373 -0.3268
  154MOL    H2033986   2.746   4.647   2.544 -0.1929  3.5188 -0.0213
  154MOL    H2133987   2.886   4.841   2.485  1.1261 -0.5960  2.0653
  154MOL    H2233988   3.030   4.618   2.141 -3.3448 -0.5017 -1.6313
  154MOL    H2333989   2.890   4.420   2.218  3.1704 -0.1295 -0.9155
  154MOL    C2433990   2.923   4.245   2.692  0.4676 -0.2521 -1.3069
  154MOL    C2533991   2.898   4.308   2.566  0.2011  0.8545 -0.2648
  154MOL    C2633992   2.762   4.341   2.534 -0.6136 -0.2407  0.6861
  154MOL    C2733993   2.654   4.293   2.613  0.0472 -0.3560 -1.1444
  154MOL    C2833994   2.677   4.224   2.738  0.3502 -0.1457 -0.6767
  154MOL    C2933995   2.813   4.209   2.774  1.4806  0.7253 -0.6376
  154MOL    O3033996   2.840   4.163   2.904  0.0636 -0.6413  0.3917
  154MOL    H3133997   3.026   4.235   2.725 -0.4507 -1.0669  1.4450
  154MOL    H3233998   2.977   4.355   2.509  3.7409 -0.5564  3.2618
  154MOL    H3333999   2.551   4.314   2.587 -1.1959 -1.7777  2.3811
  154MOL    H3434000   2.597   4.196   2.804 -0.9585  0.5036 -1.9733
  154MOL    C3534001   2.734   3.812   2.917  0.5854 -0.4594  0.6927
  154MOL    C3634002   2.799   3.927   2.867 -0.0722  0.2383 -0.4626
  154MOL    C3734003   2.784   4.044   2.940 -0.3239  0.2931  0.9251
  154MOL    C3834004   2.718   4.047   3.056  0.4709  0.6637  0.3297
  154MOL    C3934005   2.660   3.931   3.114 -1.0767 -0.3216  0.0189
  154MOL    C4034006   2.662   3.808   3.039  0.0175 -0.1669  0.4555
  154MOL    O4134007   2.613   3.693   3.093  0.0472 -0.0070 -0.7948
  154MOL    H4234008   2.748   3.726   2.853 -1.7466  0.0177 -0.5026
  154MOL    H4334009   2.853   3.926   2.773  1.4470 -1.5674  0.4112
  154MOL    H4434010   2.700   4.133   3.119 -0.9971  0.7644 -0.2015
  154MOL    H4534011   2.618   3.934   3.213 -2.1863 -4.7780 -0.2044
  154MOL    C4634012   2.542   3.369   2.932 -0.2215  0.2416  0.1695
  154MOL    C4734013   2.612   3.468   3.004 -0.9786 -0.5586 -0.1955
  154MOL    C4834014   2.554   3.593   3.012 -1.1426 -0.0564 -0.7074
  154MOL    C4934015   2.440   3.626   2.949 -0.0397  0.1341  1.3257
  154MOL    C5034016   2.381   3.534   2.867  0.0734 -0.4615  1.4400
  154MOL    C5134017   2.431   3.405   2.854 -0.4716  0.3621  0.4245
  154MOL    O5234018   2.374   3.309   2.777  0.0345  0.1248 -0.4532
  154MOL    H5334019   2.586   3.274   2.907  0.3415 -0.1011  2.3761
  154MOL    H5434020   2.700   3.441   3.061  0.0577 -0.7247 -1.8513
  154MOL    H5534021   2.402   3.726   2.959  0.6716  0.8179 -2.3463
  154MOL    H5634022   2.298   3.562   2.804  1.1394 -0.6370 -0.0741
  154MOL    C5734023   2.118   3.081   2.916  0.3491 -0.0846 -0.1009
  154MOL    C5834024   2.241   3.139   2.878  0.0671 -0.0063 -0.1291
  154MOL    C5934025   2.251   3.261   2.814  0.0393  0.0969 -0.6724
  154MOL    C6034026   2.134   3.331   2.781 -0.1139  0.4934 -1.1036
  154MOL    C6134027   2.006   3.276   2.817 -0.3732  0.1859 -0.1257
  154MOL    C6234028   1.999   3.155   2.887 -0.2359 -0.0561  0.6919
  154MOL    O6334029   1.876   3.104   2.905  0.3819  0.1964 -0.3257
  154MOL    H6434030   2.121   2.982   2.961  0.3717 -0.7838 -1.6092
  154MOL    H6534031   2.333   3.086   2.897 -0.5387 -0.4076  1.8676
  154MOL    H6634032   2.137   3.427   2.732 -0.1209  0.8488 -0.4162
  154MOL    H6734033   1.918   3.336   2.800 -0.8483 -0.4129  0.1874
  154MOL    C6834034   1.702   2.922   3.179  0.1396  0.5549 -0.4935
  154MOL    C6934035   1.763   2.951   3.051 -0.1659  0.1085  0.0098
  154MOL    C7034036   1.835   3.074   3.036 -0.9097 -0.4860  0.0472
  154MOL    C7134037   1.853   3.158   3.144 -0.9685  0.4795 -0.4400
  154MOL    C7234038   1.795   3.126   3.270 -0.4910  0.6021  0.8227
  154MOL    C7334039   1.715   3.011   3.289 -0.2204  0.4299 -0.3356
  154MOL    O7434040   1.651   2.978   3.411 -0.5538  0.0577 -0.0121
  154MOL    H7534041   1.657   2.824   3.193  1.4427  0.0969  0.6085
  154MOL    H7634042   1.755   2.886   2.965  1.2779 -0.2550  0.1438
  154MOL    H7734043   1.898   3.255   3.129 -1.0660  0.5462 -0.3083
  154MOL    H7834044   1.818   3.192   3.351  1.5515  0.1707  0.6252
  154MOL    C7934045   1.922   2.890   3.646  0.9328 -0.4573  0.3567
  154MOL    C8034046   1.844   2.898   3.528 -0.7076  0.4079  1.1020
  154MOL    C8134047   1.724   2.974   3.524  0.0966 -0.1135  0.1755
  154MOL    C8234048   1.673   3.025   3.642  0.6083 -0.1233  0.4931
  154MOL    C8334049   1.748   3.013   3.763  0.0841  0.3754 -1.1610
  154MOL    C8434050   1.874   2.948   3.769  0.1301  0.1435 -0.0647
  154MOL    O8534051   1.947   2.946   3.887 -0.4440 -0.4557  0.0849
  154MOL    H8634052   2.019   2.844   3.644  1.7049  1.1670 -0.6868
  154MOL    H8734053   1.879   2.841   3.443 -2.6630 -0.1553  0.6584
  154MOL    H8834054   1.579   3.077   3.637 -0.4014 -2.1409 -3.3779
  154MOL    H8934055   1.712   3.052   3.857  1.4292 -1.6890  0.2657
  154MOL    C9034056   2.204   3.212   3.845  0.0881 -0.5236 -0.0820
  154MOL    C9134057   2.096   3.125   3.814 -0.1054  0.4865  1.3246
  154MOL    C9234058   2.052   3.028   3.908  0.4690  0.0706  0.2282
  154MOL    C9334059   2.131   3.001   4.021  0.8377 -0.5497  0.2948
  154MOL    C9434060   2.243   3.085   4.047  0.3180 -0.5565  0.5151
  154MOL    C9534061   2.277   3.192   3.965  0.7114 -0.8216 -0.6826
  154MOL    O9634062   2.372   3.286   4.000 -1.7897  0.0321  0.3809
  154MOL    H9734063   2.231   3.288   3.773  1.6685 -1.3856 -0.4141
  154MOL    H9834064   2.042   3.144   3.722  1.1359 -1.9110  0.0680
  154MOL    H9934065   2.099   2.931   4.097  2.3291  0.9154  2.3168
  154MOL   H10034066   2.294   3.084   4.143 -0.2074 -1.4388  0.7921
  154MOL   C10134067   2.723   3.217   4.065 -0.4810 -0.1698  0.0264
  154MOL   C10234068   2.589   3.248   4.083  0.1157 -0.6804  0.3081
  154MOL   C10334069   2.503   3.256   3.971 -0.3926 -0.0172 -0.3868
  154MOL   C10434070   2.546   3.224   3.844  0.3844  1.1063  0.2259
  154MOL   C10534071   2.683   3.193   3.832  0.1122  0.7133  0.1900
  154MOL   C10634072   2.772   3.191   3.939  0.1079  0.0476 -0.6126
  154MOL   O10734073   2.900   3.150   3.921 -0.7884 -0.0748  0.0036
  154MOL   H10834074   2.786   3.215   4.152  1.5577 -0.4894 -1.4287
  154MOL   H10934075   2.551   3.278   4.180 -2.6919  0.7073 -1.1500
  154MOL   H11034076   2.480   3.218   3.759  0.2801 -2.8677  0.4879
  154MOL   H11134077   2.722   3.170   3.733  2.3859  0.4823  1.1021
  154MOL   C11234078   3.014   2.820   4.068  0.1516 -0.4824  0.0417
  154MOL   C11334079   2.969   2.955   4.061  0.0016  0.6266 -0.2478
  154MOL   C11434080   2.930   3.013   3.940 -0.2222 -0.7893 -0.1793
  154MOL   C11534081   2.932   2.932   3.824 -0.5526 -1.1514  0.5735
  154MOL   C11634082   2.967   2.793   3.830 -0.1647  0.4919  0.2338
  154MOL   C11734083   3.015   2.740   3.950 -0.2806  0.6708  0.3372
  154MOL   O11834084   3.054   2.610   3.960  0.1486 -0.3677  0.9965
  154MOL   H11934085   3.039   2.774   4.163 -1.1848 -1.5337 -0.1045
  154MOL   H12034086   2.977   3.005   4.156 -0.9834 -2.9170  1.8072
  154MOL   H12134087   2.900   2.986   3.735 -2.5781 -1.9908  0.7559
  154MOL   H12234088   2.962   2.743   3.735 -3.1973 -2.7782  1.9888
  154MOL   C12334089   2.819   2.330   3.926  0.1725 -0.6968  0.6518
  154MOL   C12434090   2.908   2.437   3.892 -0.2743  0.5447  0.2795
  154MOL   C12534091   2.954   2.523   3.993  0.1820 -0.0799 -0.0856
  154MOL   C12634092   2.920   2.502   4.125  0.2507 -0.0841  0.1337
  154MOL   C12734093   2.818   2.412   4.152  0.7329  0.5933  0.2070
  154MOL   C12834094   2.758   2.336   4.051 -0.1807 -0.0126  0.0298
  154MOL   O12934095   2.666   2.246   4.083  0.3260 -0.9898  0.6650
  154MOL   H13034096   2.775   2.266   3.851 -0.5991  1.5324 -0.8490
  154MOL   H13134097   2.945   2.436   3.791  0.6334 -0.1236  0.6129
  154MOL   H13234098   2.968   2.552   4.208  1.3402 -0.8695 -0.0255
  154MOL   H13334099   2.777   2.407   4.252 -3.3327  0.4386 -1.3925
  154MOL   C13434100   2.324   2.374   4.032 -0.6113  0.8303 -0.3081
  154MOL   C13534101   2.451   2.312   4.004  0.3678  0.4872  0.4688
  154MOL   C13634102   2.545   2.303   4.111  1.3000  0.1154 -0.3233
  154MOL   C13734103   2.510   2.342   4.241  0.1938 -0.3463 -0.7017
  154MOL   C13834104   2.381   2.395   4.264  0.1837 -0.6474 -0.4924
  154MOL   C13934105   2.288   2.411   4.159  0.3052 -0.5901  0.4073
  154MOL   O14034106   2.159   2.458   4.175  0.1888 -0.3882 -0.7859
  154MOL   H14134107   2.241   2.378   3.962  0.6474 -3.4078 -2.2031
  154MOL   H14234108   2.469   2.258   3.912 -0.0165  0.9294  0.1296
  154MOL   H14334109   2.587   2.345   4.317  0.1809 -3.1192 -0.5423
  154MOL   H14434110   2.349   2.424   4.363  2.0358 -1.0679  0.2494
  154MOL   C14534111   1.915   2.253   4.367  0.2641  0.7978 -0.0702
  154MOL   C14634112   2.030   2.335   4.342  0.1708 -0.9537  0.2359
  154MOL   C14734113   2.055   2.375   4.204  0.4644 -0.3404 -0.0466
  154MOL   C14834114   1.968   2.330   4.100  0.0571 -0.3559 -0.7812
  154MOL   C14934115   1.861   2.240   4.130 -0.1784 -0.1116 -0.6161
  154MOL   C15034116   1.831   2.209   4.262  0.0157 -0.1982  0.3616
  154MOL   O15134117   1.734   2.108   4.280  0.1463 -0.0626 -0.1573
  154MOL   H15234118   1.896   2.212   4.465  2.3788  2.7839  1.2314
  154MOL   H15334119   2.091   2.368   4.425  1.0663 -2.1872  0.0804
  154MOL   H15434120   1.988   2.366   4.001  1.1973  1.4568  0.0703
  154MOL   H15534121   1.788   2.214   4.055 -1.0666  0.5610  0.0027
  154MOL   C15634122   1.740   1.881   4.570  0.2849  1.0624 -0.0965
  154MOL   C15734123   1.722   1.996   4.480  0.3637 -0.3602  0.5969
  154MOL   C15834124   1.768   1.996   4.351  0.5803 -0.1035  0.6809
  154MOL   C15934125   1.831   1.879   4.295 -0.3570  0.6662  0.2749
  154MOL   C16034126   1.867   1.776   4.387  0.2092  0.1072 -0.5322
  154MOL   C16134127   1.823   1.774   4.523 -0.1704 -0.0612  0.4090
  154MOL   O16234128   1.865   1.669   4.606 -0.2650 -0.0692  0.1006
  154MOL   H16334129   1.711   1.894   4.674 -1.3626  0.1316 -0.4151
  154MOL   H16434130   1.674   2.086   4.515 -2.2960 -1.2392 -0.6496
  154MOL   H16534131   1.871   1.872   4.195  1.5280  1.3557  0.9603
  154MOL   H16634132   1.927   1.694   4.349 -1.1746 -0.8505 -0.6971
  154MOL   C16734133   1.912   1.333   4.463  0.2315  0.6920 -0.5076
  154MOL   C16834134   1.941   1.465   4.498 -0.2269  0.7726 -0.5053
  154MOL   C16934135   1.839   1.542   4.560 -0.2479 -0.4835  0.0693
  154MOL   C17034136   1.717   1.485   4.592 -0.1822  0.9748 -0.2379
  154MOL   C17134137   1.684   1.358   4.545 -0.0451  0.2114  0.5324
  154MOL   C17234138   1.779   1.280   4.474  0.1736  0.1770  0.2622
  154MOL   O17334139   1.749   1.157   4.424 -0.2812 -0.2594 -0.0503
  154MOL   H17434140   1.979   1.272   4.404 -0.9013  0.5259 -1.6494
  154MOL   H17534141   2.031   1.521   4.477 -0.9693  1.5942 -1.5931
  154MOL   H17634142   1.649   1.535   4.659 -0.6150 -0.2549  0.2653
  154MOL   H17734143   1.582   1.323   4.557  0.1265 -0.5995 -0.2896
  154MOL   C17834144   1.666   1.195   4.059 -0.1490 -0.5257 -0.1742
  154MOL   C17934145   1.657   1.213   4.201  0.1480  0.1993 -0.0704
  154MOL   C18034146   1.748   1.144   4.288  0.2217  0.9697  0.1390
  154MOL   C18134147   1.852   1.071   4.229  1.1394 -0.1201  0.3735
  154MOL   C18234148   1.861   1.056   4.090  0.3060  0.9105  0.4508
  154MOL   C18334149   1.767   1.111   4.007 -0.1439  0.4079 -0.2640
  154MOL   O18434150   1.770   1.091   3.868 -0.1060  0.5194  0.3820
  154MOL   H18534151   1.591   1.236   3.992  0.2327  0.3712 -0.0537
  154MOL   H18634152   1.577   1.277   4.236 -0.4431  0.1896 -1.3777
  154MOL   H18734153   1.936   1.038   4.289 -0.7761 -0.9800  2.6346
  154MOL   H18834154   1.929   0.989   4.040 -0.3331  0.2502  0.4561
  154MOL   C18934155   1.916   1.402   3.719  0.5605 -0.1820  0.9320
  154MOL   C19034156   1.849   1.319   3.811 -0.8440 -0.2662 -0.3148
  154MOL   C19134157   1.840   1.177   3.787  1.0493 -0.0196 -0.1191
  154MOL   C19234158   1.917   1.124   3.680 -0.3471 -0.7721  0.7866
  154MOL   C19334159   1.997   1.205   3.597  0.1729 -0.5040 -0.3664
  154MOL   C19434160   1.994   1.348   3.608  0.5384  0.0069 -0.0255
  154MOL   O19534161   2.066   1.422   3.523  0.4075  0.1389  0.2731
  154MOL   H19634162   1.902   1.509   3.725 -1.1119 -0.1013 -2.8932
  154MOL   H19734163   1.795   1.365   3.892  0.3081 -2.7152  1.9425
  154MOL   H19834164   1.903   1.019   3.660 -1.7865 -0.6479  1.0796
  154MOL   H19934165   2.054   1.155   3.520  3.1768 -1.1971  2.2131
  154MOL   C20034166   1.846   1.428   3.224  0.3428 -0.0259  0.0617
  154MOL   C20134167   1.882   1.420   3.359 -0.1435  0.0666  0.3605
  154MOL   C20234168   2.020   1.424   3.392 -0.4940 -0.2390  0.2870
  154MOL   C20334169   2.118   1.447   3.298  0.0399  0.2691 -0.0426
  154MOL   C20434170   2.079   1.443   3.165  0.5454 -0.3306 -0.2337
  154MOL   C20534171   1.940   1.445   3.122 -0.3022 -1.2794  0.0400
  154MOL   O20634172   1.914   1.471   2.989 -0.2940  0.2094  0.4615
  154MOL   H20734173   1.741   1.429   3.197 -0.3711  1.2930  2.7461
  154MOL   H20834174   1.799   1.413   3.428 -0.9283  2.0868 -0.3468
  154MOL   H20934175   2.223   1.448   3.323 -0.4365  1.1401  1.9984
  154MOL   H21034176   2.146   1.436   3.081  1.8565 -0.3702  0.7847
  154MOL   C21134177   1.580   1.491   2.837  0.3152 -0.4154 -0.6926
  154MOL   C21234178   1.715   1.449   2.862  0.1062 -0.5590  0.0725
  154MOL   C21334179   1.795   1.526   2.952  0.3788  0.4033 -0.3888
  154MOL   C21434180   1.754   1.660   2.991 -0.7965  0.0189  0.3398
  154MOL   C21534181   1.624   1.701   2.954 -0.0995 -0.1635 -0.4790
  154MOL   C21634182   1.536   1.616   2.889  0.0088 -0.1308 -0.5010
  154MOL   O21734183   1.406   1.652   2.870 -0.0856 -0.1996 -0.1469
  154MOL   H21834184   1.514   1.431   2.776 -2.3327  0.4608  1.2156
  154MOL   H21934185   1.756   1.354   2.829  0.2762  0.1878 -1.9404
  154MOL   H22034186   1.817   1.719   3.056  1.2523 -2.7684  0.9809
  154MOL   H22134187   1.594   1.796   2.996 -0.9018 -0.4874 -0.3172
  154MOL   H22234188   1.385   1.737   2.905  0.4935  0.3145 -1.0202
  155MOL     C134189   2.152   4.744   6.081  0.6064 -0.4148  0.5310
  155MOL     C234190   2.092   4.812   6.188 -0.2068 -0.3350  0.6847
  155MOL     C334191   2.162   4.918   6.244  0.8223 -0.1728 -0.3607
  155MOL     C434192   2.286   4.975   6.196  0.0569  0.8058  0.2085
  155MOL     C534193   2.338   4.903   6.088  0.0401  0.5005 -0.0435
  155MOL     C634194   2.272   4.786   6.030  0.4744  0.3558 -0.5104
  155MOL     O734195   2.333   4.716   5.929 -0.2834 -0.1391 -0.1601
  155MOL     H834196   2.112   4.649   6.050  0.0025 -0.4530  1.4120
  155MOL     H934197   1.998   4.789   6.235 -0.2023  0.1520  0.9350
  155MOL    H1034198   2.317   5.073   6.230 -1.8691  1.8047 -0.8457
  155MOL    H1134199   2.413   4.957   6.032  0.8140 -0.3768  0.1210
  155MOL    H1234200   2.112   4.964   6.328 -0.9222 -2.5139 -0.0743
  155MOL    C1334201   2.178   4.867   5.630 -0.2227  0.3299 -1.0838
  155MOL    C1434202   2.206   4.840   5.770 -0.2746 -0.2439  0.1791
  155MOL    C1534203   2.300   4.744   5.801  0.1101 -0.0080  1.1291
  155MOL    C1634204   2.372   4.679   5.698  0.0622  0.1305  0.3797
  155MOL    C1734205   2.343   4.707   5.562  0.3757 -0.1419  0.0319
  155MOL    C1834206   2.244   4.802   5.532  0.6205  0.6001 -0.3655
  155MOL    O1934207   2.221   4.841   5.401 -0.8192 -0.3679 -0.1836
  155MOL    H2034208   2.110   4.950   5.617  0.1475  1.3208  2.7144
  155MOL    H2134209   2.153   4.901   5.841  0.3038  1.8261 -1.1206
  155MOL    H2234210   2.453   4.610   5.714  1.4345  1.9379  1.3352
  155MOL    H2334211   2.405   4.663   5.486  0.4837  3.0082 -1.7737
  155MOL    C2434212   1.938   4.646   5.271 -0.5809  0.2109 -0.9297
  155MOL    C2534213   2.012   4.752   5.330 -0.4083 -0.5141  0.1134
  155MOL    C2634214   2.149   4.747   5.330 -0.4965  0.5080  0.3188
  155MOL    C2734215   2.214   4.648   5.249  0.0571  0.0097  0.4181
  155MOL    C2834216   2.129   4.555   5.178  0.2360  0.4622 -0.2460
  155MOL    C2934217   1.996   4.551   5.196 -0.1285  0.0639  0.0105
  155MOL    O3034218   1.921   4.456   5.133  0.0463  0.0555  0.1091
  155MOL    H3134219   1.831   4.634   5.280 -0.6127  2.1873  1.8464
  155MOL    H3234220   1.969   4.827   5.395 -1.1951  1.0831 -2.1830
  155MOL    H3334221   2.321   4.644   5.236 -0.2208 -2.9513 -1.4768
  155MOL    H3434222   2.172   4.488   5.105 -0.5794 -1.4725  1.0095
  155MOL    C3534223   1.949   4.104   5.226 -0.3714 -0.1244 -0.1140
  155MOL    C3634224   1.915   4.242   5.230 -0.2592 -0.6804 -0.2147
  155MOL    C3734225   1.958   4.329   5.134 -0.1990  0.2330  0.6779
  155MOL    C3834226   2.037   4.282   5.027  0.4122 -0.3488  0.1343
  155MOL    C3934227   2.068   4.147   5.023  0.0623  0.7141  0.2522
  155MOL    C4034228   2.023   4.054   5.118 -0.1351  0.0366  0.0433
  155MOL    O4134229   2.043   3.915   5.098  0.0693  0.3089 -0.2468
  155MOL    H4234230   1.917   4.043   5.309  0.0469  1.2057  1.0417
  155MOL    H4334231   1.861   4.278   5.317  2.1756 -0.2884  1.1801
  155MOL    H4434232   2.058   4.346   4.943 -1.5263 -2.7183 -2.2561
  155MOL    H4534233   2.133   4.114   4.944 -0.8868  3.5950 -1.8214
  155MOL    C4634234   1.915   3.646   4.883  0.5442 -0.7677 -0.4792
  155MOL    C4734235   2.002   3.724   4.956 -0.0810  0.0563  0.1167
  155MOL    C4834236   1.958   3.844   5.013 -0.4448 -0.1082 -0.2156
  155MOL    C4934237   1.828   3.892   4.986  0.2981 -0.0528 -0.4610
  155MOL    C5034238   1.736   3.815   4.919 -0.1299 -0.0240  0.1386
  155MOL    C5134239   1.780   3.693   4.872  0.2547  0.0385  0.0446
  155MOL    O5234240   1.690   3.602   4.822 -0.4823  0.3563 -0.4212
  155MOL    H5334241   1.945   3.550   4.844  0.1919 -0.9833 -0.2141
  155MOL    H5434242   2.097   3.684   4.990  0.6780  1.7789  0.0498
  155MOL    H5534243   1.805   3.989   5.026 -1.9537  0.4541 -2.8501
  155MOL    H5634244   1.636   3.842   4.889  0.1682  2.0753  0.9605
  155MOL    C5734245   1.584   3.737   4.493  0.1478  0.6064  0.0456
  155MOL    C5834246   1.662   3.696   4.600  0.3265  0.1520 -0.2436
  155MOL    C5934247   1.610   3.647   4.721 -0.5210  0.4289  0.2749
  155MOL    C6034248   1.473   3.644   4.739  0.2217 -0.6588  0.2978
  155MOL    C6134249   1.390   3.681   4.630 -0.6729  1.3103  0.4092
  155MOL    C6234250   1.441   3.738   4.511 -0.4865  0.5028  0.2991
  155MOL    O6334251   1.360   3.787   4.409  0.4456 -0.2342  0.0799
  155MOL    H6434252   1.628   3.779   4.404  0.1705 -1.3834 -0.9032
  155MOL    H6534253   1.770   3.701   4.588  0.1375  0.3963 -2.0459
  155MOL    H6634254   1.421   3.615   4.829  0.9267  0.7579  1.1750
  155MOL    H6734255   1.283   3.672   4.645 -0.3056 -1.8379  1.4550
  155MOL    C6834256   1.442   4.140   4.331  0.0500 -0.8365  0.8420
  155MOL    C6934257   1.410   4.023   4.404 -0.0211 -0.4008  0.2337
  155MOL    C7034258   1.403   3.897   4.339  0.6757  0.2661  0.0086
  155MOL    C7134259   1.424   3.888   4.197  0.2424  0.0336 -0.8463
  155MOL    C7234260   1.475   4.002   4.129  0.1840 -0.0996 -0.8251
  155MOL    C7334261   1.485   4.127   4.196 -0.2200  0.4607  0.7074
  155MOL    O7434262   1.522   4.243   4.131  0.7795 -0.2516 -0.1618
  155MOL    H7534263   1.441   4.235   4.383 -0.6450  0.6712 -1.8173
  155MOL    H7634264   1.371   4.029   4.505  0.0671  0.7872  0.2065
  155MOL    H7734265   1.420   3.796   4.140 -0.2244  0.5519 -1.6702
  155MOL    H7834266   1.490   3.981   4.024  0.3072 -0.2161 -0.7860
  155MOL    C7934267   1.888   4.207   4.054 -0.2159  0.0297 -0.3909
  155MOL    C8034268   1.766   4.211   4.127 -0.7936  0.0258  0.8358
  155MOL    C8134269   1.643   4.247   4.061 -0.1172 -0.3750  0.0274
  155MOL    C8234270   1.650   4.291   3.930 -0.6183 -0.5422  0.0689
  155MOL    C8334271   1.770   4.291   3.855  0.2252  0.3515 -0.4577
  155MOL    C8434272   1.889   4.253   3.920 -0.0943 -0.7676 -0.5341
  155MOL    O8534273   2.002   4.248   3.849 -0.3206  0.8669  0.5303
  155MOL    H8634274   1.982   4.180   4.099 -0.8682  0.1357  1.0451
  155MOL    H8734275   1.762   4.172   4.227 -1.0622 -0.8252  0.4996
  155MOL    H8834276   1.560   4.321   3.877 -0.8309 -0.3492  0.5372
  155MOL    H8934277   1.764   4.323   3.752  0.8294  0.8161 -0.3511
  155MOL    C9034278   2.140   3.908   3.758 -0.2827  0.1815 -0.5128
  155MOL    C9134279   2.109   4.031   3.833 -0.3854  0.3472 -0.3131
  155MOL    C9234280   2.031   4.134   3.776 -0.0584 -0.2117  0.0575
  155MOL    C9334281   2.002   4.130   3.636  0.6810 -0.9210  0.1072
  155MOL    C9434282   2.040   4.012   3.563  0.4146  0.4253  0.0078
  155MOL    C9534283   2.103   3.900   3.624  0.2055  0.9065 -0.1627
  155MOL    O9634284   2.138   3.795   3.546 -0.2314  0.6528 -0.1043
  155MOL    H9734285   2.209   3.830   3.788  0.9168  1.5582  0.3462
  155MOL    H9834286   2.154   4.039   3.931  0.3433  0.2510 -0.6339
  155MOL    H9934287   1.948   4.211   3.590  0.1939 -0.2083  1.8937
  155MOL   H10034288   2.009   4.007   3.460 -0.0047 -2.6310  0.2250
  155MOL   C10134289   1.908   3.517   3.456 -0.2454  0.3622 -0.1238
  155MOL   C10234290   1.990   3.632   3.442 -0.6329  0.0662 -0.0624
  155MOL   C10334291   2.067   3.675   3.554 -0.2149 -0.1126  0.0041
  155MOL   C10434292   2.076   3.590   3.671 -0.0118  0.0448  0.2932
  155MOL   C10534293   2.012   3.466   3.673  0.5744 -0.7730  0.0941
  155MOL   C10634294   1.912   3.437   3.576  0.5331  0.7815  0.3355
  155MOL   O10734295   1.839   3.321   3.586 -0.1246 -0.0254 -0.0336
  155MOL   H10834296   1.851   3.495   3.367  0.2761 -1.9077  0.0609
  155MOL   H10934297   1.988   3.692   3.353 -0.6877  0.1111 -0.0305
  155MOL   H11034298   2.123   3.623   3.763  0.1115 -0.9530  0.6002
  155MOL   H11134299   2.017   3.405   3.762  1.7908  0.2523  0.7397
  155MOL   C11234300   1.482   3.410   3.644 -0.4681  0.0468 -0.1269
  155MOL   C11334301   1.603   3.386   3.574 -0.0197 -0.3228 -0.2434
  155MOL   C11434302   1.717   3.340   3.647 -0.2272 -0.0016  0.6052
  155MOL   C11534303   1.712   3.337   3.791  0.2805  0.5278 -0.2002
  155MOL   C11634304   1.591   3.363   3.858 -0.1382  0.4914 -0.5967
  155MOL   C11734305   1.479   3.396   3.783  0.4489  0.2185 -0.0509
  155MOL   O11834306   1.363   3.426   3.857 -0.6307  0.2942  0.3998
  155MOL   H11934307   1.396   3.433   3.582 -0.2201 -1.6411 -1.1423
  155MOL   H12034308   1.612   3.402   3.467  1.6491  1.9495  0.1925
  155MOL   H12134309   1.805   3.326   3.846 -0.1472  0.6539  0.5537
  155MOL   H12234310   1.588   3.356   3.966  0.3170 -0.7910 -0.6607
  155MOL   C12334311   1.103   3.641   3.728 -0.7209  0.9729  0.0148
  155MOL   C12434312   1.163   3.528   3.780  0.2330 -0.4792 -0.7106
  155MOL   C12534313   1.296   3.540   3.828 -0.7122  0.9029  0.0622
  155MOL   C12634314   1.359   3.661   3.852  0.1786 -0.0494 -0.0718
  155MOL   C12734315   1.297   3.771   3.798 -0.0848 -0.1744 -0.4725
  155MOL   C12834316   1.167   3.769   3.752 -0.4774 -0.5235 -0.1158
  155MOL   O12934317   1.098   3.881   3.714  0.1366  0.0384  0.0179
  155MOL   H13034318   1.006   3.644   3.680 -1.1880 -0.4771  0.8481
  155MOL   H13134319   1.111   3.434   3.770  0.7487 -0.8168 -0.2186
  155MOL   H13234320   1.456   3.669   3.898 -0.9125  2.7918  1.8789
  155MOL   H13334321   1.347   3.863   3.824 -1.8455 -0.4897  4.6534
  155MOL   C13434322   1.188   4.186   3.902 -0.6072 -0.2633  0.0243
  155MOL   C13534323   1.129   4.062   3.880 -0.1534 -0.1311  0.6371
  155MOL   C13634324   1.134   4.008   3.749  0.5006 -0.2800  0.3305
  155MOL   C13734325   1.185   4.085   3.641  0.0795  0.3092  0.3892
  155MOL   C13834326   1.242   4.209   3.663  0.0916  0.0281  0.3657
  155MOL   C13934327   1.244   4.254   3.794  0.3439  0.0630  0.1618
  155MOL   O14034328   1.307   4.373   3.813  0.3508  0.2853 -0.5394
  155MOL   H14134329   1.213   4.211   4.005  0.6342  0.7622 -0.4992
  155MOL   H14234330   1.092   4.015   3.969  0.9709 -1.2525  0.5223
  155MOL   H14334331   1.196   4.030   3.548  1.8060 -1.5702  1.6585
  155MOL   H14434332   1.297   4.265   3.589 -1.3549 -1.1946 -1.6877
  155MOL   C14534333   1.099   4.645   3.971 -0.0143  0.0475  0.3348
  155MOL   C14634334   1.147   4.548   3.882 -0.2026  0.6226 -0.1391
  155MOL   C14734335   1.259   4.467   3.906  0.4058 -0.4075  0.2680
  155MOL   C14834336   1.326   4.495   4.027  0.0492 -0.3033 -0.0487
  155MOL   C14934337   1.281   4.595   4.119  0.5559 -0.3900  0.2054
  155MOL   C15034338   1.174   4.676   4.084  0.2838 -0.4959  0.6709
  155MOL   O15134339   1.135   4.779   4.161 -0.0911  0.4320 -0.0657
  155MOL   H15234340   1.010   4.704   3.952 -0.0732  0.0802  0.7061
  155MOL   H15334341   1.096   4.526   3.790  1.1518 -1.3897 -0.4462
  155MOL   H15434342   1.419   4.450   4.057  0.2088  0.7857  1.1515
  155MOL   H15534343   1.337   4.623   4.207 -0.0553  2.9712 -0.4084
  155MOL   C15634344   1.208   5.091   3.970  0.1523 -0.3212 -0.3380
  155MOL   C15734345   1.171   4.955   3.995 -0.6364  0.3199 -0.0620
  155MOL   C15834346   1.166   4.908   4.127  0.2717 -0.5376  0.4714
  155MOL   C15934347   1.180   4.999   4.237  0.2456 -0.8034  0.5738
  155MOL   C16034348   1.223   5.131   4.209 -0.3687  0.9247 -0.4361
  155MOL   C16134349   1.227   5.178   4.075  0.5676  0.6046 -0.5833
  155MOL   O16234350   1.267   5.306   4.038 -0.0747 -0.6088  0.0158
  155MOL   H16334351   1.208   5.124   3.867 -2.8127  0.7303 -0.0538
  155MOL   H16434352   1.149   4.906   3.901 -1.0060  0.6579 -0.1547
  155MOL   H16534353   1.172   4.957   4.336 -0.8813  0.9130  1.2349
  155MOL   H16634354   1.253   5.205   4.283  0.4900  0.7635 -0.6186
  155MOL   C16734355   1.016   5.544   4.157  0.4722 -0.6302  0.0708
  155MOL   C16834356   1.075   5.426   4.109  0.7709 -1.0180 -0.0903
  155MOL   C16934357   1.212   5.407   4.105 -0.3508  0.3035 -0.3775
  155MOL   C17034358   1.297   5.504   4.157 -0.2146 -0.5670  0.7773
  155MOL   C17134359   1.238   5.630   4.204  0.2082 -0.8699 -0.8060
  155MOL   C17234360   1.097   5.648   4.197 -0.6467 -0.3634 -0.2299
  155MOL   O17334361   1.048   5.771   4.234  0.2443  0.3693 -0.1017
  155MOL   H17434362   0.910   5.559   4.143  0.0663 -1.7510  1.7677
  155MOL   H17534363   1.008   5.357   4.060 -0.2097  0.8957 -1.5120
  155MOL   H17634364   1.404   5.488   4.149 -0.5979 -1.6000 -3.0226
  155MOL   H17734365   1.295   5.715   4.239 -0.4363  0.1023 -2.0558
  155MOL   C17834366   0.797   5.960   4.050  0.5868 -0.2470  0.2542
  155MOL   C17934367   0.853   5.871   4.140 -0.2907 -0.3501 -0.2526
  155MOL   C18034368   0.988   5.855   4.147  0.2341  0.9353 -0.4369
  155MOL   C18134369   1.071   5.937   4.069 -0.4808  0.4392  0.2993
  155MOL   C18234370   1.021   6.031   3.976 -0.3065  0.4369 -0.0535
  155MOL   C18334371   0.877   6.046   3.973 -0.4660  0.9833 -0.0136
  155MOL   O18434372   0.812   6.144   3.900  0.4495  0.4537  0.9344
  155MOL   H18534373   0.694   5.987   4.066  0.9833  0.2982  1.9048
  155MOL   H18634374   0.795   5.807   4.205  1.7935 -0.2781  1.7110
  155MOL   H18734375   1.177   5.918   4.071 -0.6447 -1.4110 -3.0724
  155MOL   H18834376   1.102   6.093   3.939 -1.0589  0.8564 -1.0134
  155MOL   C18934377   0.782   6.438   4.097  0.2848 -0.3036 -0.0175
  155MOL   C19034378   0.751   6.312   4.038  0.1720 -0.1804 -0.6497
  155MOL   C19134379   0.832   6.271   3.937  0.2056  0.1043  0.3940
  155MOL   C19234380   0.931   6.349   3.876 -0.2823  0.5263 -0.2510
  155MOL   C19334381   0.957   6.482   3.932  0.4947 -0.2362  0.0032
  155MOL   C19434382   0.885   6.519   4.048  0.2048 -0.0952  0.0941
  155MOL   O19534383   0.920   6.639   4.115 -0.8031 -0.0918 -0.0100
  155MOL   H19634384   0.728   6.460   4.188 -0.0098 -0.2369 -0.2085
  155MOL   H19734385   0.670   6.253   4.078  2.4744 -0.5605  3.6958
  155MOL   H19834386   0.983   6.323   3.785  0.0203  0.8647 -0.1746
  155MOL   H19934387   1.035   6.550   3.898 -1.1127  1.2883 -0.7468
  155MOL   C20034388   1.263   6.546   4.259 -0.7510 -0.0445 -0.0609
  155MOL   C20134389   1.130   6.529   4.218  1.1628  0.1089  0.8324
  155MOL   C20234390   1.049   6.642   4.178  0.2590  0.4092 -0.2826
  155MOL   C20334391   1.107   6.771   4.188  0.5122  0.5109  0.5058
  155MOL   C20434392   1.237   6.787   4.237  0.7786 -0.0565  0.2563
  155MOL   C20534393   1.317   6.675   4.263 -0.3457 -0.5339 -0.6939
  155MOL   O20634394   1.443   6.701   4.304  0.2530 -0.3568 -0.4578
  155MOL   H20734395   1.333   6.468   4.285 -1.3192 -0.5362  0.0012
  155MOL   H20834396   1.090   6.428   4.223  0.5210  0.0048 -3.8826
  155MOL   H20934397   1.053   6.862   4.164  0.7294  0.5413  0.1313
  155MOL   H21034398   1.281   6.886   4.237  1.4203 -0.2925  3.3162
  155MOL   C21134399   1.679   6.592   4.036 -0.4694 -0.5196  0.3185
  155MOL   C21234400   1.578   6.666   4.099 -0.2956 -0.6649 -0.1352
  155MOL   C21334401   1.548   6.635   4.238 -0.0973 -0.0799  0.2642
  155MOL   C21434402   1.641   6.554   4.308 -0.6581  0.0793  0.1622
  155MOL   C21534403   1.751   6.493   4.242 -0.0400 -0.0915 -0.6952
  155MOL   C21634404   1.767   6.514   4.108 -0.2552  0.2025  0.0822
  155MOL   O21734405   1.870   6.458   4.041 -0.1492  0.0139  0.2864
  155MOL   H21834406   1.694   6.606   3.930 -0.1244  2.9126  0.7455
  155MOL   H21934407   1.518   6.738   4.047  2.0281  1.5913  0.1863
  155MOL   H22034408   1.625   6.528   4.411  0.0882 -1.1106 -0.0092
  155MOL   H22134409   1.818   6.428   4.296  1.3119  1.6876 -0.1809
  155MOL   H22234410   1.912   6.390   4.093  2.8871  1.0975 -0.6802
  156MOL     C134411   2.809   1.759   1.685  0.7686  0.0717  0.0590
  156MOL     C234412   2.778   1.768   1.820  0.1306  0.1152 -0.2784
  156MOL     C334413   2.888   1.796   1.906  0.7739 -0.8789 -0.4802
  156MOL     C434414   3.016   1.825   1.858 -0.0630  0.9855 -0.7604
  156MOL     C534415   3.041   1.818   1.721 -0.5169  0.2689 -0.0170
  156MOL     C634416   2.938   1.784   1.637 -0.2401  0.7717  0.0831
  156MOL     O734417   2.958   1.783   1.503 -0.2434  0.9089 -0.5463
  156MOL     H834418   2.736   1.733   1.610 -1.6614 -2.4150  3.1210
  156MOL     H934419   2.678   1.756   1.857  0.7729  0.9459  1.7728
  156MOL    H1034420   3.091   1.849   1.932 -0.5991  0.7108 -0.1209
  156MOL    H1134421   3.143   1.834   1.691 -0.1506 -1.5717  0.1959
  156MOL    H1234422   2.870   1.782   2.011 -1.7460  0.8806 -0.6518
  156MOL    C1334423   2.808   2.099   1.392 -0.2497 -0.4788  0.7090
  156MOL    C1434424   2.873   2.008   1.475  0.2098 -0.2103 -0.2108
  156MOL    C1534425   2.918   1.886   1.418 -0.1132  0.0035  0.8976
  156MOL    C1634426   2.914   1.865   1.284  0.0461 -0.3190  0.1898
  156MOL    C1734427   2.850   1.955   1.199 -0.9442 -0.1997  0.5028
  156MOL    C1834428   2.796   2.072   1.248 -0.2342 -0.4161 -0.2548
  156MOL    O1934429   2.769   2.164   1.151  0.2919  0.3569 -0.2525
  156MOL    H2034430   2.773   2.194   1.432 -0.5999 -0.2530 -0.1159
  156MOL    H2134431   2.878   2.032   1.580 -1.5122 -0.5902 -0.0281
  156MOL    H2234432   2.953   1.771   1.249  0.6680 -0.2003  0.5459
  156MOL    H2334433   2.845   1.933   1.094  0.4889  2.8575 -0.2437
  156MOL    C2434434   2.460   2.108   0.962 -0.0984 -0.5840 -0.6108
  156MOL    C2534435   2.545   2.123   1.079 -0.2027 -0.1856  0.0443
  156MOL    C2634436   2.680   2.131   1.057  0.2060  0.2849  0.2775
  156MOL    C2734437   2.736   2.105   0.929 -0.2120 -0.2478  0.1751
  156MOL    C2834438   2.651   2.082   0.822 -0.0720  0.5154  0.6318
  156MOL    C2934439   2.514   2.085   0.837 -0.4599 -1.2560 -0.5213
  156MOL    O3034440   2.433   2.060   0.730  0.3195  0.3708 -0.5360
  156MOL    H3134441   2.352   2.099   0.963 -0.0557 -1.1417 -0.9105
  156MOL    H3234442   2.519   2.137   1.183 -0.9102 -0.9404 -0.0257
  156MOL    H3334443   2.844   2.113   0.926 -0.1672 -0.5417  0.8342
  156MOL    H3434444   2.689   2.073   0.721 -0.6394 -0.4825  0.4996
  156MOL    C3534445   2.353   1.745   0.545 -0.7036 -0.0238  0.7832
  156MOL    C3634446   2.413   1.867   0.579 -0.6313 -0.0001 -0.0121
  156MOL    C3734447   2.393   1.932   0.703 -0.9305 -0.8570  0.0499
  156MOL    C3834448   2.316   1.870   0.796 -1.0803  0.2131  0.7013
  156MOL    C3934449   2.263   1.738   0.773 -0.2844 -0.0260 -0.1184
  156MOL    C4034450   2.286   1.675   0.645 -0.4328 -0.8430  0.3050
  156MOL    O4134451   2.229   1.550   0.627  0.6704 -0.0929 -0.0313
  156MOL    H4234452   2.378   1.700   0.450  0.8039  0.8461  0.7444
  156MOL    H4334453   2.462   1.919   0.498  1.3553  1.0497  1.8003
  156MOL    H4434454   2.293   1.927   0.885 -2.5063  0.0541  0.4500
  156MOL    H4534455   2.214   1.690   0.857  1.1466 -0.8142  0.2935
  156MOL    C4634456   2.526   1.335   0.533 -0.1037 -0.2930 -0.4503
  156MOL    C4734457   2.447   1.448   0.583 -0.7172  0.1744  0.3791
  156MOL    C4834458   2.306   1.451   0.570  0.0567  1.0044  0.4674
  156MOL    C4934459   2.243   1.351   0.495 -0.0479  0.0709 -0.5733
  156MOL    C5034460   2.318   1.246   0.437 -0.0699 -0.1223  0.0126
  156MOL    C5134461   2.461   1.238   0.456 -0.8645  0.9789 -0.1742
  156MOL    O5234462   2.530   1.127   0.419  0.1970  0.1860 -0.1799
  156MOL    H5334463   2.634   1.330   0.542 -0.1860 -4.1043 -0.5157
  156MOL    H5434464   2.507   1.524   0.632 -1.3362  0.0634  1.3319
  156MOL    H5534465   2.138   1.354   0.470 -0.0086 -1.7798 -0.9822
  156MOL    H5634466   2.260   1.173   0.381 -1.1736 -0.4755  1.5811
  156MOL    C5734467   2.503   0.871   0.684 -0.1114 -0.4318 -0.7565
  156MOL    C5834468   2.525   0.999   0.623 -0.2089  0.1460  0.4520
  156MOL    C5934469   2.505   1.011   0.482 -0.1887  0.3607  0.4467
  156MOL    C6034470   2.469   0.892   0.409 -0.0856 -0.4088 -0.5000
  156MOL    C6134471   2.452   0.767   0.474  0.3679 -0.4288 -0.1380
  156MOL    C6234472   2.474   0.757   0.610  0.4017 -0.0306 -0.0855
  156MOL    O6334473   2.449   0.632   0.669  0.3259  0.8570  0.7710
  156MOL    H6434474   2.512   0.862   0.792 -0.4822  0.7249 -0.6269
  156MOL    H6534475   2.548   1.085   0.684 -1.1526  0.5786  0.2108
  156MOL    H6634476   2.443   0.901   0.305 -0.7984 -0.0464 -0.2958
  156MOL    H6734477   2.420   0.681   0.418 -2.3559  0.5676 -0.1891
  156MOL    C6834478   2.179   0.634   0.925 -0.0437  1.1625  0.0525
  156MOL    C6934479   2.244   0.653   0.800 -0.1024  0.2334  0.0581
  156MOL    C7034480   2.379   0.619   0.787 -1.0391 -0.8618  0.4696
  156MOL    C7134481   2.446   0.548   0.890  0.0896 -0.2124 -0.4568
  156MOL    C7234482   2.379   0.536   1.011  0.4903 -0.6387  0.3776
  156MOL    C7334483   2.246   0.575   1.026  0.5530  1.2322 -0.6924
  156MOL    O7434484   2.188   0.571   1.148 -0.0953 -0.6576  0.1285
  156MOL    H7534485   2.077   0.669   0.937 -0.5786  0.0105 -1.0058
  156MOL    H7634486   2.186   0.681   0.713  0.8907 -0.7536 -0.9383
  156MOL    H7734487   2.548   0.513   0.876  1.5370  3.0596  1.3206
  156MOL    H7834488   2.416   0.485   1.099  0.1321 -2.6792 -0.6249
  156MOL    C7934489   2.235   0.915   1.289 -0.4345 -0.3700  0.8982
  156MOL    C8034490   2.265   0.799   1.214  0.3873 -0.0566  0.3749
  156MOL    C8134491   2.175   0.689   1.215  0.3441  0.0672  0.5292
  156MOL    C8234492   2.067   0.702   1.300 -0.6358 -0.0438 -0.2215
  156MOL    C8334493   2.041   0.813   1.389 -0.3721 -0.0273  0.1622
  156MOL    C8434494   2.130   0.928   1.378 -0.4388 -1.0050 -0.4791
  156MOL    O8534495   2.114   1.040   1.452 -0.0536  0.2356  0.2488
  156MOL    H8634496   2.311   0.992   1.295 -1.6535  0.8313  1.2563
  156MOL    H8734497   2.348   0.789   1.146  0.5329 -2.5413  0.8810
  156MOL    H8834498   1.998   0.620   1.311 -0.0533 -0.5393 -0.2915
  156MOL    H8934499   1.954   0.803   1.451 -0.4481 -2.6088 -0.3273
  156MOL    C9034500   2.256   0.972   1.792  0.3667 -0.6627  0.5242
  156MOL    C9134501   2.246   0.986   1.649 -0.0487 -0.0360 -0.4360
  156MOL    C9234502   2.125   1.028   1.592  0.8622  0.1154 -0.9527
  156MOL    C9334503   2.011   1.063   1.674  0.1747  0.9965 -0.4317
  156MOL    C9434504   2.020   1.043   1.813 -0.1248  0.4350  0.4109
  156MOL    C9534505   2.145   1.010   1.871  0.4221  0.1096  0.0680
  156MOL    O9634506   2.150   1.009   2.010 -0.2336 -0.0741 -0.0568
  156MOL    H9734507   2.354   0.950   1.834  0.1723  1.4034  2.1430
  156MOL    H9834508   2.330   0.964   1.584 -0.8462 -2.1323 -0.8000
  156MOL    H9934509   1.925   1.089   1.614  1.6960  0.5629 -2.8971
  156MOL   H10034510   1.933   1.073   1.869 -1.1482 -3.0540  0.8268
  156MOL   C10134511   2.073   0.675   2.148  0.0344 -0.5274 -0.2796
  156MOL   C10234512   2.136   0.782   2.082  0.0006  0.0997  0.1939
  156MOL   C10334513   2.081   0.909   2.077  0.0422  0.3148  0.8180
  156MOL   C10434514   1.963   0.934   2.150  0.8975  1.0086  0.2505
  156MOL   C10534515   1.903   0.825   2.217 -0.0592 -0.0865 -0.6748
  156MOL   C10634516   1.952   0.695   2.213  0.2212  0.1497 -0.6141
  156MOL   O10734517   1.897   0.590   2.276 -0.2392  0.2099  0.3448
  156MOL   H10834518   2.127   0.582   2.155 -0.1771 -0.5832  0.5866
  156MOL   H10934519   2.231   0.763   2.034  0.2270 -1.0563  1.0911
  156MOL   H11034520   1.924   1.034   2.144 -1.0999  0.1177 -4.2272
  156MOL   H11134521   1.811   0.851   2.268  0.3399 -0.1368  0.0897
  156MOL   C11234522   1.577   0.610   2.443 -0.7899  0.1854  0.3799
  156MOL   C11334523   1.713   0.614   2.423  0.8219 -0.0717  0.5804
  156MOL   C11434524   1.760   0.585   2.295  0.2545 -0.4431  0.4589
  156MOL   C11534525   1.674   0.556   2.190  0.9321  0.6028  0.1580
  156MOL   C11634526   1.537   0.553   2.212  1.0410  0.1709  0.1903
  156MOL   C11734527   1.490   0.582   2.335 -0.0076  0.2028  0.4294
  156MOL   O11834528   1.355   0.601   2.349  0.2463 -0.0141  0.5712
  156MOL   H11934529   1.539   0.645   2.538 -1.2340  1.0757 -0.1161
  156MOL   H12034530   1.783   0.644   2.500  1.3079  0.8700 -0.2083
  156MOL   H12134531   1.716   0.542   2.092  1.0413  1.3485  0.0968
  156MOL   H12234532   1.465   0.544   2.132 -1.3428 -0.0391  2.2965
  156MOL   C12334533   1.197   0.397   2.605 -0.4160  0.3369  0.6736
  156MOL   C12434534   1.283   0.486   2.549 -0.1254 -0.8340  0.7069
  156MOL   C12534535   1.288   0.500   2.408 -0.0867 -0.5107 -0.2945
  156MOL   C12634536   1.195   0.422   2.327  0.7228 -0.6360 -0.6224
  156MOL   C12734537   1.105   0.329   2.383  0.5569  0.6515  0.0178
  156MOL   C12834538   1.114   0.315   2.524 -0.5272 -0.4823  0.1081
  156MOL   O12934539   1.033   0.215   2.581  0.1801 -0.9394  0.1241
  156MOL   H13034540   1.190   0.379   2.711  1.4511 -1.4234  0.5136
  156MOL   H13134541   1.336   0.560   2.606  0.7622 -1.5519  0.8352
  156MOL   H13234542   1.201   0.419   2.219 -1.6954 -3.5970 -0.7454
  156MOL   H13334543   1.031   0.274   2.327  0.7554  0.3165  0.0863
  156MOL   C13434544   0.722   0.384   2.652 -0.3440  0.4041 -0.6551
  156MOL   C13534545   0.857   0.344   2.656 -0.0882 -0.4493  0.4469
  156MOL   C13634546   0.905   0.244   2.573 -0.4602  0.0925  0.0224
  156MOL   C13734547   0.814   0.178   2.487 -0.1169 -0.1492 -0.4043
  156MOL   C13834548   0.680   0.219   2.480  0.5586 -0.6825 -0.7688
  156MOL   C13934549   0.634   0.325   2.558 -0.5254 -0.0111  0.1440
  156MOL   O14034550   0.508   0.382   2.540 -0.1261 -0.1053  0.6333
  156MOL   H14134551   0.686   0.467   2.710 -1.4096  0.3676 -1.2507
  156MOL   H14234552   0.922   0.399   2.722  1.7995 -0.2825 -1.4888
  156MOL   H14334553   0.849   0.099   2.423  0.2901 -0.7731  0.5740
  156MOL   H14434554   0.604   0.169   2.422 -2.3747  0.5918  1.8029
  156MOL   C14534555   0.252   0.255   2.773 -1.0621 -0.4232 -0.9379
  156MOL   C14634556   0.346   0.253   2.671 -0.4581 -0.6594  0.4842
  156MOL   C14734557   0.423   0.371   2.645  0.1868 -0.5062  0.2553
  156MOL   C14834558   0.405   0.483   2.729 -0.2735  0.1854  0.5271
  156MOL   C14934559   0.292   0.491   2.815  0.1706 -0.4373 -0.3222
  156MOL   C15034560   0.223   0.372   2.842 -0.3454  0.4155 -0.6767
  156MOL   O15134561   0.121   0.377   2.930 -0.2477 -0.1850 -0.2007
  156MOL   H15234562   0.191   0.168   2.790 -0.8555  0.0389  2.4771
  156MOL   H15334563   0.360   0.162   2.615 -0.0936  0.0193 -0.5413
  156MOL   H15434564   0.470   0.569   2.723 -0.5731  0.5037  1.9036
  156MOL   H15534565   0.270   0.583   2.866  0.2826  0.3424 -1.6406
  156MOL   C15634566   0.224   0.327   3.276 -0.5253 -0.4597 -0.0072
  156MOL   C15734567   0.199   0.386   3.155 -0.2999 -0.5337 -0.6174
  156MOL   C15834568   0.146   0.313   3.048  0.1915  0.4836 -1.1576
  156MOL   C15934569   0.105   0.183   3.071  0.5361  0.0988  0.1418
  156MOL   C16034570   0.130   0.117   3.197  0.3471  0.5721  0.1304
  156MOL   C16134571   0.194   0.191   3.296 -0.0854 -0.2444  0.0553
  156MOL   O16234572   0.222   0.129   3.410 -0.5421  0.2859 -0.0507
  156MOL   H16334573   0.272   0.390   3.350  1.5647 -0.6372 -1.1792
  156MOL   H16434574   0.231   0.488   3.141 -0.9583 -0.2356  0.0472
  156MOL   H16534575   0.044   0.124   3.005  0.7103 -0.1708  0.2195
  156MOL   H16634576   0.102   0.014   3.207 -1.2036  1.1554  1.9601
  156MOL   C16734577   0.553   0.221   3.537  0.9975 -0.9132 -0.4279
  156MOL   C16834578   0.455   0.183   3.442 -0.8691 -0.2147 -0.6795
  156MOL   C16934579   0.319   0.173   3.488 -0.5112 -0.2433 -0.5787
  156MOL   C17034580   0.278   0.198   3.625  0.2197 -0.7136 -0.3655
  156MOL   C17134581   0.384   0.224   3.716  0.8045 -0.5477 -0.0812
  156MOL   C17234582   0.516   0.239   3.671  0.0722 -0.2609 -0.0458
  156MOL   O17334583   0.611   0.270   3.761  0.1895  0.4689 -0.7951
  156MOL   H17434584   0.658   0.230   3.510  1.0150  0.4164  0.0312
  156MOL   H17534585   0.482   0.159   3.341  0.6213  0.8119 -0.5472
  156MOL   H17634586   0.179   0.178   3.663 -0.2991 -0.0056 -1.3140
  156MOL   H17734587   0.353   0.224   3.819 -2.3835  2.1787 -0.9494
  156MOL   C17834588   0.802   0.591   3.744  0.8069  0.0609 -0.6354
  156MOL   C17934589   0.770   0.455   3.731  0.2640 -0.2401 -0.4300
  156MOL   C18034590   0.644   0.403   3.776  0.3172  0.4586  0.3222
  156MOL   C18134591   0.556   0.499   3.834  0.2455 -0.5522  0.3123
  156MOL   C18234592   0.579   0.639   3.840  0.1607 -0.2637  0.2658
  156MOL   C18334593   0.712   0.682   3.799  0.2341  0.0043  0.2005
  156MOL   O18434594   0.746   0.813   3.825  0.3251  0.3224  0.1777
  156MOL   H18534595   0.899   0.629   3.714  2.1453 -1.4640  1.5500
  156MOL   H18634596   0.848   0.403   3.676 -0.9404 -2.1225 -0.4075
  156MOL   H18734597   0.464   0.452   3.867  0.0033  0.4601  1.1107
  156MOL   H18834598   0.518   0.714   3.886  0.0091  0.9727 -1.8736
  156MOL   C18934599   0.808   1.096   3.584  0.1122  0.2054  0.1911
  156MOL   C19034600   0.826   0.994   3.684  0.3291  0.3936  0.1868
  156MOL   C19134601   0.726   0.901   3.720  0.0128 -0.6673 -0.1015
  156MOL   C19234602   0.597   0.927   3.671  0.0296 -0.3156 -0.4252
  156MOL   C19334603   0.572   1.034   3.581  0.1590  0.5745  0.0120
  156MOL   C19434604   0.681   1.116   3.530  0.1000  0.3173 -0.4002
  156MOL   O19534605   0.651   1.221   3.446  0.2533  0.1714  0.0003
  156MOL   H19634606   0.890   1.156   3.547  1.3786 -3.3293 -2.9709
  156MOL   H19734607   0.924   0.986   3.728  0.3561 -1.0239 -0.0864
  156MOL   H19834608   0.519   0.867   3.715 -0.9956  0.8563 -0.6019
  156MOL   H19934609   0.473   1.051   3.542  0.7136  0.2428 -1.5742
  156MOL   C20034610   0.582   1.543   3.611 -0.6490 -0.3124  0.1398
  156MOL   C20134611   0.557   1.420   3.552  0.0918  0.3629 -0.0801
  156MOL   C20234612   0.662   1.347   3.491 -0.1924 -0.1280  0.0491
  156MOL   C20334613   0.792   1.405   3.475 -0.0829  0.1588  0.5222
  156MOL   C20434614   0.817   1.521   3.540  0.2320 -0.2522 -0.3286
  156MOL   C20534615   0.714   1.597   3.606 -0.0691 -0.4552  0.3343
  156MOL   O20634616   0.751   1.719   3.655  0.2664 -0.0722  0.0279
  156MOL   H20734617   0.497   1.590   3.658 -3.7196 -3.6565 -1.7502
  156MOL   H20834618   0.462   1.369   3.563 -1.4158  3.2737  0.8618
  156MOL   H20934619   0.873   1.358   3.421  0.0101  0.7534  0.1439
  156MOL   H21034620   0.918   1.560   3.547  0.0268  0.2196  0.0192
  156MOL   C21134621   0.932   1.647   3.960 -0.9781 -0.3821  0.4518
  156MOL   C21234622   0.828   1.640   3.866  0.3390 -0.3333  0.5923
  156MOL   C21334623   0.842   1.722   3.752  0.2018  0.3573 -0.0672
  156MOL   C21434624   0.965   1.792   3.723  0.5102  0.6434 -0.0426
  156MOL   C21534625   1.071   1.794   3.819  0.0080  0.7120  1.4778
  156MOL   C21634626   1.042   1.732   3.939 -0.8776 -0.8350 -0.1858
  156MOL   O21734627   1.137   1.745   4.037 -0.1403 -0.2925 -0.4142
  156MOL   H21834628   0.933   1.593   4.054 -2.2362  0.1721  0.7861
  156MOL   H21934629   0.738   1.586   3.892 -1.0288  2.5545  2.1147
  156MOL   H22034630   0.977   1.846   3.630 -0.3343  1.2444  0.1965
  156MOL   H22134631   1.159   1.856   3.807  0.6160 -0.2604  0.8396
  156MOL   H22234632   1.228   1.733   4.015  0.0663  0.3575  0.0846
  157MOL     C134633   3.437   5.995   4.899  0.1677  0.1107 -0.0528
  157MOL     C234634   3.352   5.899   4.843  0.3860 -0.7627  0.0305
  157MOL     C334635   3.261   5.820   4.911 -0.5384 -0.0552 -0.3986
  157MOL     C434636   3.256   5.834   5.047  0.4865 -0.2178  0.3991
  157MOL     C534637   3.357   5.917   5.114 -0.2482  0.2097 -0.1594
  157MOL     C634638   3.432   6.004   5.042  0.3279  0.2745 -0.5991
  157MOL     O734639   3.504   6.102   5.100  0.6055  0.5208  0.0265
  157MOL     H834640   3.503   6.059   4.842 -0.8061  0.1913 -1.0942
  157MOL     H934641   3.332   5.887   4.738 -0.0663 -0.7848  0.1193
  157MOL    H1034642   3.183   5.785   5.110 -0.8564  1.3473  0.1185
  157MOL    H1134643   3.353   5.914   5.221  0.0687  1.8806 -0.0758
  157MOL    H1234644   3.196   5.761   4.850  1.6275 -0.8379 -2.0196
  157MOL    C1334645   3.790   5.965   5.265 -0.1948  0.1881 -0.3732
  157MOL    C1434646   3.659   5.989   5.226  0.2098  0.0707 -0.2153
  157MOL    C1534647   3.634   6.085   5.128 -0.2695 -0.2947 -0.4358
  157MOL    C1634648   3.736   6.149   5.064 -0.0179 -0.3364  0.5793
  157MOL    C1734649   3.870   6.125   5.098 -0.1390  0.1125  0.8560
  157MOL    C1834650   3.901   6.040   5.202 -0.7768  0.2008  0.6307
  157MOL    O1934651   4.028   6.013   5.235  0.1949 -0.5219 -0.1612
  157MOL    H2034652   3.806   5.887   5.338 -1.9676 -1.2971 -1.5327
  157MOL    H2134653   3.584   5.925   5.270 -0.2947 -0.0369 -1.2252
  157MOL    H2234654   3.709   6.223   4.990 -0.1557 -2.0641 -1.1336
  157MOL    H2334655   3.946   6.183   5.048  0.5047  0.8649  2.6706
  157MOL    C2434656   4.195   5.697   5.139 -0.3975 -0.1319 -0.4887
  157MOL    C2534657   4.118   5.788   5.208 -0.5041 -0.9660 -0.4785
  157MOL    C2634658   4.094   5.920   5.156  0.0575  0.6735 -0.2000
  157MOL    C2734659   4.152   5.951   5.031  0.4740  0.5774 -0.3107
  157MOL    C2834660   4.222   5.850   4.961 -0.1030  0.4274 -0.0591
  157MOL    C2934661   4.241   5.722   5.009  0.5334  0.3357 -0.5295
  157MOL    O3034662   4.299   5.621   4.938 -0.4683  0.3605 -0.2628
  157MOL    H3134663   4.211   5.598   5.179 -1.3297  0.5015  1.5228
  157MOL    H3234664   4.091   5.762   5.310  0.6632  2.5968  0.8174
  157MOL    H3334665   4.144   6.050   4.987  1.0680  0.8528  0.1929
  157MOL    H3434666   4.248   5.883   4.861 -0.1433 -1.2296 -0.6315
  157MOL    C3534667   4.609   5.705   4.734 -0.2562 -0.2364  0.1522
  157MOL    C3634668   4.474   5.695   4.773 -0.3273 -0.2911 -0.0008
  157MOL    C3734669   4.429   5.636   4.898  0.1952  0.2640  0.7765
  157MOL    C3834670   4.530   5.584   4.985 -0.0266 -0.5932  0.2354
  157MOL    C3934671   4.664   5.611   4.956 -0.7031 -0.2123  0.7952
  157MOL    C4034672   4.706   5.658   4.822  0.2651  0.8758 -0.1468
  157MOL    O4134673   4.840   5.661   4.787  0.5347 -0.5242 -0.3056
  157MOL    H4234674   4.638   5.752   4.641 -2.9501 -3.1657 -2.3120
  157MOL    H4334675   4.401   5.732   4.703  0.4384  2.6110  0.6834
  157MOL    H4434676   4.501   5.521   5.068  0.6191  0.3119  1.1603
  157MOL    H4534677   4.739   5.582   5.028  1.9654 -0.1385 -1.8519
  157MOL    C4634678   4.931   5.356   4.615 -0.3178  0.6232 -0.0134
  157MOL    C4734679   4.893   5.444   4.715  0.0119 -0.1576 -1.0356
  157MOL    C4834680   4.870   5.579   4.682 -0.3018 -0.0588  0.4437
  157MOL    C4934681   4.869   5.618   4.548  0.3953 -0.0511  0.5140
  157MOL    C5034682   4.908   5.530   4.451 -0.4234 -0.6992 -0.5170
  157MOL    C5134683   4.944   5.397   4.484  0.3449 -0.3219 -0.1067
  157MOL    O5234684   4.988   5.304   4.394 -0.3891  0.1092 -0.3329
  157MOL    H5334685   4.946   5.252   4.637  0.8586  0.6241 -0.7915
  157MOL    H5434686   4.880   5.411   4.817 -0.9866  1.4453 -0.6249
  157MOL    H5534687   4.857   5.718   4.509  1.1761 -0.2823 -0.3297
  157MOL    H5634688   4.921   5.555   4.346  0.5193  0.4884 -0.1179
  157MOL    C5734689   5.362   5.288   4.465 -0.2802 -0.3730  0.5047
  157MOL    C5834690   5.225   5.338   4.454  0.0005  0.0758  0.1292
  157MOL    C5934691   5.120   5.265   4.396  0.0557 -0.7436  0.1644
  157MOL    C6034692   5.158   5.143   4.343  0.4863 -0.5150  0.5614
  157MOL    C6134693   5.289   5.093   4.338 -0.2708 -0.4732  0.4947
  157MOL    C6234694   5.397   5.165   4.395 -0.0763 -0.9362 -0.8286
  157MOL    O6334695   5.519   5.107   4.402  0.2777  0.8868  0.6283
  157MOL    H6434696   5.445   5.339   4.512  0.3398 -1.3342  0.4703
  157MOL    H6534697   5.203   5.428   4.510  0.7025  0.4239 -0.1451
  157MOL    H6634698   5.080   5.081   4.303  0.7271 -0.0033 -0.7255
  157MOL    H6734699   5.317   5.001   4.287 -1.8010 -0.8572  0.3428
  157MOL    C6834700   5.726   5.270   4.129  0.4306  0.3137 -0.7494
  157MOL    C6934701   5.629   5.258   4.231 -0.4293 -0.2595  0.4719
  157MOL    C7034702   5.601   5.133   4.287 -0.1387 -0.2072 -0.9095
  157MOL    C7134703   5.670   5.019   4.235  0.5642  0.0360 -0.3059
  157MOL    C7234704   5.753   5.029   4.122 -0.2647 -0.0257  0.2827
  157MOL    C7334705   5.787   5.156   4.068  0.2452 -0.4132 -0.3886
  157MOL    O7434706   5.883   5.175   3.976 -0.5006 -0.5991  0.0333
  157MOL    H7534707   5.755   5.365   4.087 -0.5283  1.4397  1.0521
  157MOL    H7634708   5.581   5.345   4.271  1.7395  0.3976  1.7321
  157MOL    H7734709   5.653   4.926   4.288  0.4728  1.8490  2.9899
  157MOL    H7834710   5.798   4.942   4.077  0.1392 -0.0691  0.7625
  157MOL    C7934711   6.209   4.994   3.947  0.1886  1.0076  0.2816
  157MOL    C8034712   6.074   5.029   3.936  0.3486  0.2047  0.4780
  157MOL    C8134713   6.013   5.139   4.006 -0.1411 -0.0927  0.4727
  157MOL    C8234714   6.096   5.209   4.092 -0.4560  0.2905  0.6525
  157MOL    C8334715   6.235   5.175   4.106  0.2090 -0.6318  0.2347
  157MOL    C8434716   6.291   5.065   4.039 -0.0830 -0.1619 -0.1743
  157MOL    O8534717   6.430   5.049   4.045  0.4727  0.7404  0.0176
  157MOL    H8634718   6.243   4.916   3.881 -1.3212  1.2489 -0.8207
  157MOL    H8734719   6.008   4.976   3.870  0.9279 -0.1878  0.2120
  157MOL    H8834720   6.055   5.302   4.128 -0.8485  0.5787 -0.5256
  157MOL    H8934721   6.302   5.244   4.155  0.8911 -0.4437 -0.9284
  157MOL    C9034722   6.544   4.722   3.927 -0.1869 -0.8537 -0.3453
  157MOL    C9134723   6.496   4.853   3.925  0.1102  0.2878  1.0596
  157MOL    C9234724   6.472   4.920   4.050  0.8888  0.2464 -0.2131
  157MOL    C9334725   6.501   4.848   4.170 -0.2895  0.4910  0.2344
  157MOL    C9434726   6.543   4.711   4.172  0.4113  0.2603  0.4776
  157MOL    C9534727   6.554   4.648   4.047 -0.1739 -0.0553 -0.4411
  157MOL    O9634728   6.582   4.517   4.044 -0.1659  0.4949  0.3261
  157MOL    H9734729   6.560   4.670   3.834  1.6437 -1.1988  0.1446
  157MOL    H9834730   6.479   4.899   3.829  0.2597 -0.9999  0.4088
  157MOL    H9934731   6.488   4.908   4.259 -0.2656  2.8736 -1.3077
  157MOL   H10034732   6.570   4.655   4.260  1.4939  0.4524  0.2796
  157MOL   C10134733   6.255   4.339   3.973 -0.7333  0.0766  0.3837
  157MOL   C10234734   6.349   4.437   4.017 -0.1831 -0.3931  0.4669
  157MOL   C10334735   6.491   4.423   3.999 -0.1615  0.9491  0.2430
  157MOL   C10434736   6.535   4.317   3.912  0.1297 -0.5561 -0.1989
  157MOL   C10534737   6.446   4.223   3.856  0.1975  0.6085 -0.1382
  157MOL   C10634738   6.311   4.235   3.893  0.2600  0.7518  0.1398
  157MOL   O10734739   6.225   4.144   3.838 -0.0302  0.3617 -0.3117
  157MOL   H10834740   6.148   4.341   3.985 -0.7060  0.7551  0.5179
  157MOL   H10934741   6.304   4.526   4.060 -1.5995  0.1454 -2.0594
  157MOL   H11034742   6.640   4.312   3.887 -0.1178 -0.4786 -1.2912
  157MOL   H11134743   6.478   4.155   3.779  0.6611  1.1675 -0.4473
  157MOL   C11234744   6.055   3.912   4.070 -0.0309 -0.0354 -0.2647
  157MOL   C11334745   6.096   4.035   4.008 -0.0857 -0.3043  0.1441
  157MOL   C11434746   6.177   4.026   3.898  0.0096  0.2501  0.5349
  157MOL   C11534747   6.207   3.904   3.836  0.1326  0.4913 -0.3375
  157MOL   C11634748   6.157   3.782   3.893 -0.6421 -0.4034 -0.4404
  157MOL   C11734749   6.076   3.786   4.015 -0.1355 -0.6892 -0.1571
  157MOL   O11834750   6.020   3.678   4.077  0.2821  0.1233 -1.1292
  157MOL   H11934751   6.000   3.920   4.163 -0.5105 -1.0393 -0.4561
  157MOL   H12034752   6.068   4.128   4.055 -0.4343 -0.7480  0.8189
  157MOL   H12134753   6.268   3.910   3.747 -1.3790  1.1313 -1.3546
  157MOL   H12234754   6.174   3.687   3.844 -0.7517  0.0128 -1.2856
  157MOL   C12334755   6.213   3.404   4.225  0.3256 -0.0455 -0.1499
  157MOL   C12434756   6.122   3.480   4.148 -0.3354  0.6930 -0.1686
  157MOL   C12534757   6.099   3.616   4.172 -0.3724 -0.2781 -0.0197
  157MOL   C12634758   6.179   3.683   4.269  0.1105  0.1623  0.2027
  157MOL   C12734759   6.267   3.610   4.350 -0.3983  0.6209  0.0403
  157MOL   C12834760   6.289   3.468   4.323 -0.6987  0.0223  0.0678
  157MOL   O12934761   6.387   3.402   4.397 -0.3579 -0.2115  0.2113
  157MOL   H13034762   6.218   3.298   4.210  1.4061  0.1769 -1.5423
  157MOL   H13134763   6.067   3.434   4.068  0.0875 -0.3641  0.1398
  157MOL   H13234764   6.175   3.791   4.276  0.5132  0.3173 -1.7306
  157MOL   H13334765   6.333   3.662   4.417 -0.0300  0.0824  0.0956
  157MOL   C13434766   6.636   3.234   4.189  0.2114 -0.2949 -0.2074
  157MOL   C13534767   6.511   3.276   4.244 -0.3519 -0.0896  0.7002
  157MOL   C13634768   6.511   3.377   4.339  0.1794  0.5255 -0.7718
  157MOL   C13734769   6.631   3.440   4.389 -0.0438 -0.7036  0.2456
  157MOL   C13834770   6.755   3.396   4.336 -0.7805  0.5926 -0.0517
  157MOL   C13934771   6.757   3.287   4.242 -0.3810  0.0309 -0.1592
  157MOL   O14034772   6.879   3.236   4.209  0.1700 -0.1824  0.3502
  157MOL   H14134773   6.629   3.146   4.127  0.4070 -0.4187 -0.0571
  157MOL   H14234774   6.422   3.236   4.198  0.4818  0.7211 -1.6797
  157MOL   H14334775   6.621   3.512   4.469  0.2741  1.0454 -1.2468
  157MOL   H14434776   6.855   3.418   4.371 -0.9987  0.5961  0.5726
  157MOL   C14534777   6.926   2.871   4.209 -0.0558 -0.1777 -0.3284
  157MOL   C14634778   6.923   3.000   4.164  0.3198 -0.8373  0.5978
  157MOL   C14734779   6.888   3.103   4.257 -0.0531 -0.2635 -0.0296
  157MOL   C14834780   6.858   3.064   4.392 -0.2209 -0.2051 -0.5778
  157MOL   C14934781   6.854   2.932   4.426  0.5714 -0.0512 -0.4860
  157MOL   C15034782   6.890   2.828   4.338 -0.5346  0.3453  0.6519
  157MOL   O15134783   6.879   2.694   4.371 -0.1053  0.5131 -0.7700
  157MOL   H15234784   6.939   2.786   4.144 -2.2158 -0.6319 -0.2145
  157MOL   H15334785   6.945   3.019   4.060 -0.7179  0.0518  0.5318
  157MOL   H15434786   6.823   3.136   4.465  0.1644 -1.1203  0.5167
  157MOL   H15534787   6.821   2.911   4.527  0.7183  0.5266 -0.3093
  157MOL   C15634788   6.530   2.575   4.412 -0.2154  0.0443 -0.4699
  157MOL   C15734789   6.643   2.655   4.433  0.0521  0.4612  0.3234
  157MOL   C15834790   6.758   2.628   4.357  0.7687  0.2269  0.1182
  157MOL   C15934791   6.752   2.528   4.254 -0.6038 -0.3233 -0.0733
  157MOL   C16034792   6.635   2.459   4.227 -0.8057 -0.2762 -0.1613
  157MOL   C16134793   6.524   2.478   4.311  0.5283  0.3990 -0.2997
  157MOL   O16234794   6.402   2.411   4.298 -0.2772  0.3514  0.3106
  157MOL   H16334795   6.439   2.595   4.467 -1.1019 -0.6139 -1.6692
  157MOL   H16434796   6.645   2.721   4.519 -1.5700  2.2835 -1.0000
  157MOL   H16534797   6.846   2.496   4.211 -1.5360 -1.1886 -1.5103
  157MOL   H16634798   6.627   2.392   4.143  1.6016  0.0061 -0.6687
  157MOL   C16734799   6.223   2.336   3.991  0.3903 -0.4000 -0.0753
  157MOL   C16834800   6.313   2.321   4.096  1.1936  1.0933  0.7468
  157MOL   C16934801   6.327   2.425   4.184 -0.5201 -0.4181 -1.3247
  157MOL   C17034802   6.264   2.545   4.161  0.5886  0.0546 -0.1208
  157MOL   C17134803   6.183   2.570   4.050 -0.3496 -0.4466 -0.2526
  157MOL   C17234804   6.153   2.462   3.966 -0.7501  0.0068 -0.3421
  157MOL   O17334805   6.068   2.475   3.860  0.4348  0.0152 -0.2670
  157MOL   H17434806   6.206   2.253   3.924  0.3307 -0.2736 -0.2163
  157MOL   H17534807   6.367   2.228   4.106 -0.2933  0.1460  0.2159
  157MOL   H17634808   6.271   2.614   4.245 -1.2637  1.9036 -1.4330
  157MOL   H17734809   6.127   2.662   4.056  2.2661  1.0758  2.1398
  157MOL   C17834810   6.051   2.320   3.525  0.5284 -0.0632 -0.3615
  157MOL   C17934811   6.019   2.357   3.656  0.2628 -0.0059  0.5542
  157MOL   C18034812   6.107   2.428   3.736  0.3687 -0.4700  0.4946
  157MOL   C18134813   6.230   2.468   3.679 -0.0702 -0.1772 -1.0365
  157MOL   C18234814   6.270   2.431   3.552 -0.2430  0.0218 -0.3105
  157MOL   C18334815   6.182   2.352   3.472 -0.1468 -0.0713 -0.2779
  157MOL   O18434816   6.220   2.315   3.340 -0.3156  0.3756 -0.3294
  157MOL   H18534817   5.981   2.272   3.459 -0.5913  1.3123 -0.1986
  157MOL   H18634818   5.918   2.332   3.685 -1.0586  2.6107 -1.5342
  157MOL   H18734819   6.296   2.531   3.737  1.6235 -2.4050 -0.4997
  157MOL   H18834820   6.358   2.476   3.508  1.9363 -2.8311  0.9920
  157MOL   C18934821   6.298   2.556   3.070 -0.2540  0.4518  0.6529
  157MOL   C19034822   6.309   2.444   3.158 -0.2259 -0.2817 -0.5847
  157MOL   C19134823   6.202   2.413   3.245 -0.2941 -0.2196  0.2281
  157MOL   C19234824   6.081   2.482   3.234 -0.0273 -0.1886  0.6104
  157MOL   C19334825   6.071   2.594   3.147 -0.8116  0.6422 -0.1403
  157MOL   C19434826   6.178   2.630   3.071  0.8009 -0.1052 -0.7941
  157MOL   O19534827   6.158   2.740   2.991 -0.8168  0.2083  0.2148
  157MOL   H19634828   6.384   2.587   3.012 -0.3852  2.5444  1.5423
  157MOL   H19734829   6.398   2.384   3.160 -0.1641 -0.1752  2.4419
  157MOL   H19834830   5.996   2.460   3.296 -1.1692  0.8105 -0.5674
  157MOL   H19934831   5.979   2.650   3.146 -0.5134  1.3234  3.4594
  157MOL   C20034832   6.091   3.081   3.109  0.8667 -0.6254 -0.4532
  157MOL   C20134833   6.157   2.961   3.081  0.4987  0.3331 -0.2725
  157MOL   C20234834   6.091   2.849   3.033 -0.4362  0.4508  0.6526
  157MOL   C20334835   5.950   2.864   3.022 -0.4638 -0.4212 -0.0803
  157MOL   C20434836   5.878   2.984   3.052  0.2969  0.0530 -0.4768
  157MOL   C20534837   5.950   3.092   3.100  0.2082  0.0501  0.2668
  157MOL   O20634838   5.881   3.208   3.124  0.0891 -0.5013  0.1696
  157MOL   H20734839   6.149   3.158   3.157  1.2232  0.4555 -2.5679
  157MOL   H20834840   6.263   2.965   3.101  0.5735  1.8115 -0.8896
  157MOL   H20934841   5.897   2.788   2.967 -0.7871 -0.2337 -0.0306
  157MOL   H21034842   5.771   2.979   3.041  0.2750  0.1758 -0.3222
  157MOL   C21134843   6.031   3.534   3.159  0.1422 -0.2085 -0.6507
  157MOL   C21234844   5.971   3.412   3.186  0.6013 -0.5860 -0.1541
  157MOL   C21334845   5.929   3.327   3.086 -0.0204  0.6223  0.7861
  157MOL   C21434846   5.959   3.358   2.952 -0.6022  0.2422 -0.3872
  157MOL   C21534847   6.008   3.487   2.925 -0.2713  0.2651  0.1913
  157MOL   C21634848   6.044   3.576   3.026  0.5770  0.5001 -0.7071
  157MOL   O21734849   6.097   3.700   3.001  0.1592  0.0086  0.4607
  157MOL   H21834850   6.051   3.596   3.245  0.0457 -0.2820 -0.5747
  157MOL   H21934851   5.939   3.405   3.289 -0.3534  1.9221 -0.2345
  157MOL   H22034852   5.944   3.285   2.875 -0.9276 -1.8095  1.5768
  157MOL   H22134853   6.031   3.515   2.824 -1.5459 -2.2208 -0.8228
  157MOL   H22234854   6.023   3.760   3.003  0.4077  0.2983  1.0775
  158MOL     C134855   1.902   6.775   6.225 -0.7558  0.3908 -0.2713
  158MOL     C234856   1.878   6.707   6.104  0.1942  0.2211  0.0897
  158MOL     C334857   1.773   6.735   6.013  0.0112 -0.0397  0.0139
  158MOL     C434858   1.705   6.854   6.034  0.1008 -0.5193 -0.8842
  158MOL     C534859   1.728   6.927   6.152 -0.8811 -0.0294  0.5165
  158MOL     C634860   1.822   6.882   6.251 -0.5337  0.2114 -0.5973
  158MOL     O734861   1.841   6.952   6.368  0.4112 -0.0706 -0.4509
  158MOL     H834862   1.974   6.733   6.294  0.2116  1.5395 -0.5745
  158MOL     H934863   1.936   6.616   6.098 -0.9377 -0.4601 -0.8280
  158MOL    H1034864   1.642   6.893   5.955  1.1761  0.6319 -1.1974
  158MOL    H1134865   1.668   7.015   6.171  1.9259  1.9463  0.5495
  158MOL    H1234866   1.744   6.677   5.927 -0.0616 -0.3036  0.2144
  158MOL    C1334867   1.619   6.840   6.629  0.4834 -0.6592  0.5721
  158MOL    C1434868   1.665   6.894   6.505 -0.1400  0.2807  0.2891
  158MOL    C1534869   1.803   6.895   6.485  0.3846 -0.4424  0.2132
  158MOL    C1634870   1.889   6.846   6.586  0.3335  0.4055 -0.3179
  158MOL    C1734871   1.840   6.791   6.706  0.0022 -0.0602 -0.0315
  158MOL    C1834872   1.706   6.787   6.725 -0.3328  0.7399  0.3430
  158MOL    O1934873   1.667   6.728   6.839 -0.3767  0.0104 -0.2848
  158MOL    H2034874   1.515   6.835   6.659  0.4990 -1.9176  0.4719
  158MOL    H2134875   1.595   6.917   6.426  0.1048  1.9707  0.5483
  158MOL    H2234876   1.997   6.856   6.583  0.5447 -0.7686  1.8744
  158MOL    H2334877   1.912   6.750   6.775  1.1021  0.0034 -1.1302
  158MOL    C2434878   1.830   6.800   7.166 -0.1100 -0.0770  0.0441
  158MOL    C2534879   1.794   6.735   7.050  0.0100 -0.2388  0.6610
  158MOL    C2634880   1.705   6.792   6.956 -0.5611  0.4463 -0.2733
  158MOL    C2734881   1.660   6.925   6.984  0.5121  0.5495  0.3878
  158MOL    C2834882   1.701   6.994   7.097  0.5600 -0.1119  0.6012
  158MOL    C2934883   1.782   6.929   7.190 -0.1315 -0.2859 -0.2026
  158MOL    O3034884   1.823   7.000   7.305  0.2070  0.3693 -0.0085
  158MOL    H3134885   1.909   6.760   7.227 -0.5761 -0.0432  0.6752
  158MOL    H3234886   1.838   6.638   7.030  0.6188  0.4095 -1.2275
  158MOL    H3334887   1.588   6.973   6.920  0.1128  1.2915  1.3959
  158MOL    H3434888   1.663   7.095   7.110 -0.8871 -0.7867  1.7780
  158MOL    C3534889   1.592   7.133   7.567 -0.5421  0.2203 -0.0124
  158MOL    C3634890   1.690   7.130   7.460 -0.1809  0.0998 -0.8895
  158MOL    C3734891   1.732   7.007   7.408  0.5699 -0.2689 -0.3553
  158MOL    C3834892   1.681   6.889   7.467  0.0541 -0.5996 -0.1392
  158MOL    C3934893   1.599   6.894   7.575  0.6056  0.2191 -0.5244
  158MOL    C4034894   1.548   7.016   7.628 -0.0404  0.2811  0.2113
  158MOL    O4134895   1.454   7.016   7.722  0.6367 -0.1548 -0.2451
  158MOL    H4234896   1.553   7.231   7.590 -2.1633 -0.2382 -0.7810
  158MOL    H4334897   1.745   7.217   7.425  2.4594  0.3627  3.4743
  158MOL    H4434898   1.713   6.793   7.430  1.6114 -0.4713  0.8169
  158MOL    H4534899   1.559   6.804   7.618  1.2065  0.0592 -0.3021
  158MOL    C4634900   1.472   7.289   7.972  0.5703  1.1829 -0.0070
  158MOL    C4734901   1.435   7.210   7.863 -0.3369  0.2154 -0.3781
  158MOL    C4834902   1.487   7.082   7.841  0.4286  0.2446  0.7338
  158MOL    C4934903   1.577   7.031   7.936  0.3320 -0.3945  0.0086
  158MOL    C5034904   1.628   7.114   8.035 -0.9558  1.6098 -0.0487
  158MOL    C5134905   1.578   7.243   8.051  0.7542  0.1959  0.0113
  158MOL    O5234906   1.615   7.321   8.156 -0.2432 -0.1560  0.4783
  158MOL    H5334907   1.428   7.388   7.977  0.5157  1.2277 -1.2181
  158MOL    H5434908   1.365   7.249   7.791 -0.5580  2.1903  0.8690
  158MOL    H5534909   1.605   6.931   7.905 -1.7409 -0.1575 -2.8539
  158MOL    H5634910   1.707   7.084   8.102  0.6495 -0.7346 -2.9037
  158MOL    C5734911   1.819   7.602   8.017  0.2751 -0.0779  0.1384
  158MOL    C5834912   1.706   7.519   8.049 -0.0942  0.2093  0.5828
  158MOL    C5934913   1.719   7.406   8.133 -0.1074  0.1839 -0.1636
  158MOL    C6034914   1.843   7.384   8.197  0.3548  0.1569  0.2057
  158MOL    C6134915   1.950   7.469   8.170  0.6853  0.7656 -0.1490
  158MOL    C6234916   1.942   7.576   8.080  0.2476  0.8372 -0.1046
  158MOL    O6334917   2.048   7.656   8.061 -0.4571 -0.3924 -0.1879
  158MOL    H6434918   1.809   7.690   7.955  1.0382 -0.0345  0.0808
  158MOL    H6534919   1.614   7.535   7.995 -0.1817  0.7097  0.8764
  158MOL    H6634920   1.861   7.307   0.015 -1.2742  1.2812  1.8619
  158MOL    H6734921   2.045   7.450   8.219  2.2253  1.9204 -2.6032
  158MOL    C6834922   1.985   8.005   7.978 -0.3380 -0.3813  1.0081
  158MOL    C6934923   1.990   7.885   8.053 -0.2727  0.3951 -0.6596
  158MOL    C7034924   2.039   7.768   7.985 -0.4796 -0.1508 -0.7608
  158MOL    C7134925   2.087   7.772   7.853  0.0929 -0.1127  0.4401
  158MOL    C7234926   2.070   7.893   7.775  0.5110  0.6715 -0.0320
  158MOL    C7334927   2.021   8.004   7.841 -0.1687  0.1323  0.8225
  158MOL    O7434928   2.016   8.122   7.778 -0.0155 -0.3784  0.1939
  158MOL    H7534929   1.954   8.098   8.025  0.7222  0.6826 -0.3538
  158MOL    H7634930   1.948   7.875   8.152  0.0707 -0.1940 -0.5714
  158MOL    H7734931   2.141   7.689   7.810  1.7169  1.2461 -0.1984
  158MOL    H7834932   2.098   7.896   7.671  0.0601 -0.1326 -0.1769
  158MOL    C7934933   2.373   8.240   7.781  0.4925  0.4180 -0.3671
  158MOL    C8034934   2.264   8.153   7.794  0.1913  0.6037 -0.4668
  158MOL    C8134935   2.134   8.190   7.750  0.0733 -0.2153  0.3259
  158MOL    C8234936   2.121   0.057   7.677 -0.1603 -0.0575 -0.5479
  158MOL    C8334937   2.231   0.138   7.652  0.1344  0.1071 -0.2421
  158MOL    C8434938   2.358   0.107   7.713  1.5532  0.3941 -0.0426
  158MOL    O8534939   2.472   0.181   7.693 -0.1249  0.0712 -0.0464
  158MOL    H8634940   2.467   8.205   7.820 -0.0904 -0.9441 -0.1202
  158MOL    H8734941   2.281   8.059   7.845  0.2713  0.4965 -0.6882
  158MOL    H8834942   2.023   0.078   7.637 -0.5177  1.8107  1.2370
  158MOL    H8934943   2.218   0.228   7.593 -1.0890 -1.2018 -2.0283
  158MOL    C9034944   2.594   0.076   7.355 -0.2095  0.2311 -0.0918
  158MOL    C9134945   2.538   0.065   7.479 -0.0967  0.2025  0.0622
  158MOL    C9234946   2.532   0.178   7.566  0.4533 -0.4462 -0.0657
  158MOL    C9334947   2.581   0.302   7.526  0.3830  0.2700  0.1405
  158MOL    C9434948   2.641   0.309   7.402  0.3711  0.9354 -0.3126
  158MOL    C9534949   2.653   0.200   7.320  0.2265 -0.2574  0.1676
  158MOL    O9634950   2.712   0.215   7.196  0.1926 -0.0188 -0.0717
  158MOL    H9734951   2.595   8.251   7.281  1.3743  0.7928 -0.7037
  158MOL    H9834952   2.491   8.227   7.511  1.4555  0.2654  2.6413
  158MOL    H9934953   2.575   0.381   7.599  0.2604 -1.1123  1.6542
  158MOL   H10034954   2.676   0.410   7.382 -0.5126  1.2804 -0.1559
  158MOL   C10134955   2.470   0.352   6.950 -0.3287 -0.2527 -0.2749
  158MOL   C10234956   2.552   0.349   7.063  0.2205  0.6825  0.3018
  158MOL   C10334957   2.623   0.227   7.086 -0.5257 -0.0376 -0.4061
  158MOL   C10434958   2.610   0.114   7.002 -0.1391  0.6640 -0.5951
  158MOL   C10534959   2.529   0.123   6.886  0.4163 -0.2896  0.8563
  158MOL   C10634960   2.460   0.241   6.862 -0.0576 -0.1163  0.0399
  158MOL   O10734961   2.371   0.257   6.758  0.7180 -0.1720  0.4672
  158MOL   H10834962   2.405   0.437   6.933  1.8463  1.3814 -0.6970
  158MOL   H10934963   2.562   0.430   7.133  2.5820  0.7977 -0.1363
  158MOL   H11034964   2.678   0.031   7.015 -0.8547 -0.1529 -1.9674
  158MOL   H11134965   2.522   0.042   6.814 -1.9438  1.2574 -0.7149
  158MOL   C11234966   2.062   0.147   6.921  0.5053 -0.4500 -0.4143
  158MOL   C11334967   2.180   0.218   6.898 -0.4891 -0.0410 -0.4262
  158MOL   C11434968   2.253   0.194   6.778  0.0352 -0.3302  0.1444
  158MOL   C11534969   2.196   0.116   6.677  0.0283 -0.5607  0.5664
  158MOL   C11634970   2.072   0.059   6.696  0.7242 -0.0282  0.9944
  158MOL   C11734971   2.009   0.067   6.817  0.4109 -0.5788  0.2819
  158MOL   O11834972   1.897   8.242   6.834  0.2871 -0.0228 -0.3052
  158MOL   H11934973   2.008   0.154   7.015 -0.1553 -2.5676 -0.6217
  158MOL   H12034974   2.218   0.277   6.979 -0.0753 -2.2005  1.0065
  158MOL   H12134975   2.254   0.095   6.588 -1.0411  0.7581 -0.4718
  158MOL   H12234976   2.033   8.242   6.625  1.2906  0.9749 -0.3406
  158MOL   C12334977   1.744   8.068   7.121 -0.4750 -0.9065 -0.1197
  158MOL   C12434978   1.771   8.162   7.021  0.1076  0.2797  0.3798
  158MOL   C12534979   1.889   8.166   6.944  0.6322  0.9878 -0.5340
  158MOL   C12634980   1.992   8.074   6.978  0.4424  0.5167  0.4411
  158MOL   C12734981   1.974   7.986   7.081 -0.0617 -0.0303  0.5856
  158MOL   C12834982   1.855   7.985   7.155 -0.0207 -0.2643  0.7609
  158MOL   O12934983   1.849   7.902   7.261  0.0718 -0.2081  0.1280
  158MOL   H13034984   1.653   8.064   7.178  0.4447 -0.1454  1.4243
  158MOL   H13134985   1.687   8.226   7.000  0.1587  0.9023  1.9669
  158MOL   H13234986   2.087   8.077   6.929 -0.1852  1.6862 -0.7380
  158MOL   H13334987   2.055   7.921   7.112 -0.9436 -1.2110  0.4254
  158MOL   C13434988   1.715   7.557   7.241 -0.0799 -0.3423  0.1613
  158MOL   C13534989   1.803   7.670   7.224 -0.4591  0.2066  0.3059
  158MOL   C13634990   1.759   7.794   7.256  0.0747 -0.8812  0.4210
  158MOL   C13734991   1.632   7.819   7.310  0.0647 -0.4511  0.0013
  158MOL   C13834992   1.549   7.710   7.335  0.7521 -0.1004  0.3424
  158MOL   C13934993   1.587   7.581   7.297 -0.7310  0.1748  0.5471
  158MOL   O14034994   1.500   7.480   7.319  0.1115 -0.0171  0.0158
  158MOL   H14134995   1.740   7.454   7.223 -1.4067 -0.5695 -0.4631
  158MOL   H14234996   1.902   7.645   7.191 -0.7506 -0.3888 -0.1329
  158MOL   H14334997   1.594   7.918   7.326  0.9926  0.0741 -0.9436
  158MOL   H14434998   1.456   7.745   7.378  0.0979  1.8833 -2.5414
  158MOL   C14534999   1.299   7.430   7.013  0.5705  0.1718 -0.4706
  158MOL   C14635000   1.369   7.501   7.118  0.7375  0.4788  0.3725
  158MOL   C14735001   1.438   7.425   7.213 -0.8169  0.2217 -0.3139
  158MOL   C14835002   1.443   7.278   7.204  0.0397  0.0056 -0.1989
  158MOL   C14935003   1.382   7.212   7.099  0.1517  0.0086  0.1042
  158MOL   C15035004   1.309   7.285   7.007 -0.1077  0.2591  0.5907
  158MOL   O15135005   1.233   7.212   6.925  0.0523 -0.2136  0.0107
  158MOL   H15235006   1.252   7.483   6.932  0.4381  0.8380  0.0382
  158MOL   H15335007   1.366   7.608   7.129 -0.3644  0.4614  0.2960
  158MOL   H15435008   1.500   7.223   7.278 -0.4273 -1.1676 -0.7087
  158MOL   H15535009   1.383   7.104   7.098  2.8410 -0.0107  1.6261
  158MOL   C15635010   0.901   7.058   6.990  0.1257  0.5044 -0.0138
  158MOL   C15735011   1.036   7.084   6.997 -0.1164  0.3379  0.7437
  158MOL   C15835012   1.097   7.193   6.935 -0.1817 -0.9505 -0.4768
  158MOL   C15935013   1.016   7.289   6.869  0.1988 -0.3455 -0.0876
  158MOL   C16035014   0.877   7.263   6.852 -0.6562  0.7776  0.7026
  158MOL   C16135015   0.816   7.155   6.925  0.0306 -0.0265  0.6826
  158MOL   O16235016   0.681   7.154   6.927 -0.2478  0.5440  0.1996
  158MOL   H16335017   0.843   6.979   7.036  1.1178  0.2307  0.7618
  158MOL   H16435018   1.099   7.016   7.052  0.7717  0.5352 -0.0104
  158MOL   H16535019   1.044   7.376   6.812  0.5035  0.0414  0.6470
  158MOL   H16635020   0.803   7.333   6.817 -2.0225 -0.3218  1.3191
  158MOL   C16735021   0.560   6.807   6.926 -0.4305  0.3391 -0.1575
  158MOL   C16835022   0.612   6.927   6.877 -0.2883  0.0999  0.4549
  158MOL   C16935023   0.612   7.042   6.963  0.2617 -0.5732 -0.3657
  158MOL   C17035024   0.552   7.040   7.092 -0.2109 -0.5552  0.1874
  158MOL   C17135025   0.499   6.918   7.129 -0.7557 -0.5463 -0.5135
  158MOL   C17235026   0.503   6.800   7.051  0.2590  0.2334  0.1023
  158MOL   O17335027   0.455   6.683   7.102  0.5874 -0.7234  0.2516
  158MOL   H17435028   0.571   6.719   6.865 -0.0347  1.5465 -1.8445
  158MOL   H17535029   0.670   6.922   6.786 -1.1760  1.0705 -0.1748
  158MOL   H17635030   0.549   7.134   7.145  1.2384 -1.5180  2.0184
  158MOL   H17735031   0.442   6.911   7.220  0.3774  1.5830  0.3929
  158MOL   C17835032   0.265   6.408   6.962 -0.4869  0.1497 -0.4555
  158MOL   C17935033   0.374   6.490   6.998 -0.2291 -0.1004  0.5368
  158MOL   C18035034   0.350   6.623   7.036 -0.2791  0.6442 -0.0988
  158MOL   C18135035   0.221   6.673   7.030 -0.2580  0.6412 -0.5668
  158MOL   C18235036   0.117   6.599   6.972 -0.3645 -0.7512  0.0034
  158MOL   C18335037   0.137   6.465   6.945  0.2543 -0.4073 -0.1019
  158MOL   O18435038   0.041   6.390   6.892 -0.7909  0.0044  0.0800
  158MOL   H18535039   0.285   6.309   6.924  2.0509  0.4839 -0.0782
  158MOL   H18635040   0.470   6.443   7.009 -0.3353 -1.4044 -3.3598
  158MOL   H18735041   0.195   6.772   7.062  0.6056  0.5289  0.5120
  158MOL   H18835042   0.019   6.643   6.968 -0.4414 -0.7753  1.3330
  158MOL   C18935043   8.207   6.533   6.561  0.0791  0.0791 -0.1393
  158MOL   C19035044   0.028   6.481   6.667 -0.8848 -0.3496  0.3770
  158MOL   C19135045   8.220   6.440   6.786 -0.2590  0.6511 -0.3984
  158MOL   C19235046   8.084   6.454   6.801  0.2600  0.9941  0.1899
  158MOL   C19335047   8.013   6.519   6.700  0.0089  1.0311 -0.4878
  158MOL   C19435048   8.071   6.566   6.585 -0.1623  0.2108  0.6793
  158MOL   O19535049   8.001   6.631   6.488 -0.0861 -0.0113  0.0358
  158MOL   H19635050   8.244   6.576   6.469  2.4289  1.6211  1.4893
  158MOL   H19735051   0.136   6.484   6.657 -0.7741 -2.0175  0.9403
  158MOL   H19835052   8.031   6.429   6.892 -0.2222  2.1210  0.2373
  158MOL   H19935053   7.907   6.538   6.708 -0.5453 -1.4237 -1.3861
  158MOL   C20035054   7.849   6.979   6.505  0.5470  0.2454 -0.6082
  158MOL   C20135055   7.863   6.838   6.494 -0.2097  0.2213  0.4923
  158MOL   C20235056   7.988   6.773   6.488 -0.3269  0.1973 -0.9031
  158MOL   C20335057   8.099   6.861   6.494 -0.4508  0.0811 -0.0788
  158MOL   C20435058   8.088   7.004   6.505 -0.0594 -0.5508  0.4781
  158MOL   C20535059   7.960   7.059   6.517  0.2428 -0.4672  0.0236
  158MOL   O20635060   7.938   7.194   6.544 -0.1902  0.1348  0.4092
  158MOL   H20735061   7.748   7.019   6.508 -0.2984 -1.8459  0.5098
  158MOL   H20835062   7.771   6.781   6.488  0.7505 -1.1689 -1.6114
  158MOL   H20935063   8.199   6.820   6.499 -0.8625 -0.9070  0.2260
  158MOL   H21035064   8.175   7.068   6.511 -0.6632  0.4429 -1.1193
  158MOL   C21135065   8.049   7.233   6.897 -0.1519  0.0363  0.1935
  158MOL   C21235066   8.049   7.197   6.762 -0.3157 -0.0503 -0.3924
  158MOL   C21335067   7.947   7.231   6.674  0.0282 -0.3650  0.2808
  158MOL   C21435068   7.838   7.302   6.722  0.3974  0.5091 -0.1992
  158MOL   C21535069   7.828   7.339   6.859  0.1564 -0.1609  0.3384
  158MOL   C21635070   7.934   7.304   6.945 -0.1354 -0.8103  0.8561
  158MOL   O21735071   7.924   7.328   7.078  0.2276  0.0515  0.6259
  158MOL   H21835072   8.126   7.211   6.969 -0.8293  0.6308  1.1176
  158MOL   H21935073   8.138   7.148   6.725  0.3896  1.2767 -0.4895
  158MOL   H22035074   7.772   7.333   6.642 -0.1070 -0.0419  0.0047
  158MOL   H22135075   7.755   7.411   6.892  0.7735  0.1874  0.9519
  158MOL   H22235076   7.835   7.312   7.106  0.2958  1.7341  1.8900
  159MOL     C135077   3.914   1.597   4.942 -0.2416 -0.1457  0.4828
  159MOL     C235078   3.799   1.605   4.866 -0.6443 -0.2350  0.6025
  159MOL     C335079   3.737   1.488   4.819  0.2740  0.1172  0.1071
  159MOL     C435080   3.791   1.361   4.850 -0.3596  1.0508 -0.2151
  159MOL     C535081   3.902   1.352   4.938  0.7118  0.7296 -0.2184
  159MOL     C635082   3.964   1.476   4.980  0.6988  0.2546  0.7692
  159MOL     O735083   4.062   1.462   5.072 -0.6643  0.1089  0.6582
  159MOL     H835084   3.953   1.688   4.986 -0.0622 -0.9123  1.9466
  159MOL     H935085   3.760   1.701   4.837 -0.8504 -0.7942 -1.0430
  159MOL    H1035086   3.747   1.270   4.812  0.0064  0.9453 -0.3841
  159MOL    H1135087   3.938   1.257   4.973 -1.2923 -0.9539 -2.5834
  159MOL    H1235088   3.652   1.491   4.753  0.1701 -0.4759  0.2077
  159MOL    C1335089   4.039   1.655   5.383 -0.3420 -0.7578 -0.0700
  159MOL    C1435090   4.079   1.615   5.250 -0.1117 -0.1296 -0.3422
  159MOL    C1535091   4.022   1.497   5.193 -0.2320 -0.4289 -0.9141
  159MOL    C1635092   3.931   1.418   5.268 -0.0448  0.2734 -0.3814
  159MOL    C1735093   3.902   1.454   5.405 -0.3451  0.2201 -1.3049
  159MOL    C1835094   3.958   1.567   5.461  0.4303 -0.4110  0.9972
  159MOL    O1935095   3.938   1.593   5.590 -0.0530  0.5570 -0.0945
  159MOL    H2035096   4.074   1.748   5.427 -1.4057 -1.5569  2.6090
  159MOL    H2135097   4.150   1.679   5.200  0.5215 -1.0871 -0.6849
  159MOL    H2235098   3.875   1.340   5.220  0.3544 -0.7581  0.8003
  159MOL    H2335099   3.830   1.391   5.457  0.2858 -0.6877 -1.5183
  159MOL    C2435100   3.622   1.791   5.587 -0.3963  0.0860  0.0033
  159MOL    C2535101   3.758   1.753   5.562  0.1184 -0.4728  0.1601
  159MOL    C2635102   3.814   1.642   5.625  0.0481  0.4523 -0.3534
  159MOL    C2735103   3.749   1.563   5.713  0.1572 -0.0093 -0.2904
  159MOL    C2835104   3.612   1.598   5.730  0.4399  0.2367  0.0141
  159MOL    C2935105   3.551   1.711   5.673 -0.5464  0.3095  0.2649
  159MOL    O3035106   3.418   1.750   5.687  0.4947 -0.4012  0.4157
  159MOL    H3135107   3.582   1.871   5.526 -2.1280 -2.5415 -2.4647
  159MOL    H3235108   3.817   1.813   5.494 -1.1492 -0.0615 -0.5962
  159MOL    H3335109   3.803   1.481   5.758 -0.3057 -0.3055 -0.2763
  159MOL    H3435110   3.552   1.541   5.799  0.1827  1.0066  0.4216
  159MOL    C3535111   3.309   1.837   6.027 -0.3997 -0.4996 -0.2468
  159MOL    C3635112   3.396   1.824   5.918 -0.2540  0.2774  0.0256
  159MOL    C3735113   3.355   1.752   5.807 -0.0886  0.1876 -0.1327
  159MOL    C3835114   3.226   1.696   5.802  0.0564  0.0619  0.2028
  159MOL    C3935115   3.143   1.701   5.913 -0.0605  0.3261 -0.5488
  159MOL    C4035116   3.184   1.772   6.030 -0.3866 -0.3565  0.4645
  159MOL    O4135117   3.094   1.794   6.131 -0.0008 -0.6203 -0.0693
  159MOL    H4235118   3.334   1.884   6.121 -0.8696 -0.5383 -0.0995
  159MOL    H4335119   3.490   1.874   5.899 -0.3207  0.5707  0.4488
  159MOL    H4435120   3.184   1.650   5.714 -0.4519 -0.0704  0.5087
  159MOL    H4535121   3.050   1.646   5.917  0.8166 -1.4353 -2.8968
  159MOL    C4635122   3.234   1.633   6.433 -0.3805 -0.4760  0.4799
  159MOL    C4735123   3.203   1.659   6.298 -0.2792  0.1009 -0.1458
  159MOL    C4835124   3.139   1.780   6.260  0.1437  0.7418 -0.1940
  159MOL    C4935125   3.121   1.881   6.359 -0.0042  0.4010  0.0230
  159MOL    C5035126   3.152   1.861   6.492  0.2531  0.0300 -0.1132
  159MOL    C5135127   3.211   1.738   6.528  0.0006  0.2490  0.2621
  159MOL    O5235128   3.249   1.731   6.659 -0.8120 -0.0382 -0.0734
  159MOL    H5335129   3.274   1.539   6.470  0.7220  0.5626  2.0034
  159MOL    H5435130   3.213   1.580   6.225  0.6413  0.0460  0.0295
  159MOL    H5535131   3.071   1.969   6.322  0.1921  0.2607 -0.5795
  159MOL    H5635132   3.156   1.945   6.558  0.9737  1.1544 -1.5562
  159MOL    C5735133   3.481   1.518   6.851  0.2715  0.6017  0.3604
  159MOL    C5835134   3.426   1.621   6.781  0.7573  0.0559  0.1801
  159MOL    C5935135   3.298   1.618   6.727 -0.1976 -0.4077 -0.1309
  159MOL    C6035136   3.210   1.514   6.755  0.2116  0.1300 -0.4802
  159MOL    C6135137   3.261   1.404   6.830  0.0631 -0.6819  0.6060
  159MOL    C6235138   3.391   1.406   6.882 -1.1003 -0.2519 -1.0749
  159MOL    O6335139   3.438   1.297   6.955  0.0880  0.2573 -0.8126
  159MOL    H6435140   3.579   1.536   6.893  0.8837  1.3146 -1.3411
  159MOL    H6535141   3.484   1.710   6.761  0.5883  0.7715  2.7609
  159MOL    H6635142   3.109   1.515   6.719  0.5416  1.4082 -1.4060
  159MOL    H6735143   3.197   1.317   6.833 -0.7552 -0.1418 -0.7146
  159MOL    C6835144   3.461   1.439   7.299 -0.7307  0.0035  0.5079
  159MOL    C6935145   3.412   1.419   7.170  0.1771  0.4566  0.0404
  159MOL    C7035146   3.465   1.316   7.091  0.1629 -0.1804  0.5462
  159MOL    C7135147   3.548   1.217   7.148  0.2608 -0.0212 -0.9870
  159MOL    C7235148   3.602   1.241   7.277  0.2101  0.7841  0.1240
  159MOL    C7335149   3.558   1.352   7.356  0.3318 -0.1011  0.5816
  159MOL    O7435150   3.608   1.370   7.479 -0.6179  0.0545 -0.0593
  159MOL    H7535151   3.423   1.526   7.351 -1.6500 -0.6062  0.8850
  159MOL    H7635152   3.339   1.490   7.134 -1.0384 -0.8176 -0.0240
  159MOL    H7735153   3.585   1.134   7.089 -0.8949  0.0087 -1.7633
  159MOL    H7835154   3.678   1.176   7.319  0.5480  0.6555 -0.6698
  159MOL    C7935155   3.488   1.484   7.807  0.0903  0.8429 -0.0761
  159MOL    C8035156   3.569   1.472   7.686 -0.3814 -0.2554 -0.5557
  159MOL    C8135157   3.524   1.384   7.582  0.2855 -0.6338 -0.4562
  159MOL    C8235158   3.418   1.290   7.607  0.4545  0.2278 -0.2729
  159MOL    C8335159   3.341   1.308   7.722 -0.2852  0.5189  0.2907
  159MOL    C8435160   3.376   1.397   7.821  0.0881  0.0751  1.1476
  159MOL    O8535161   3.315   1.408   7.941  0.2557 -0.1491  0.1147
  159MOL    H8635162   3.515   1.557   7.882 -0.7786 -0.4594  1.5343
  159MOL    H8735163   3.661   1.526   7.673  0.0512 -1.0460 -0.7796
  159MOL    H8835164   3.385   1.233   7.522  1.4642 -0.7772 -0.0150
  159MOL    H8935165   3.256   1.244   7.743  0.6333 -0.8533 -0.1423
  159MOL    C9035166   3.106   1.157   8.120  0.6340  0.5436 -0.5423
  159MOL    C9135167   3.143   1.268   8.035  0.5017 -0.0699  0.6506
  159MOL    C9235168   3.277   1.296   8.007 -0.7407 -0.2965 -0.1815
  159MOL    C9335169   3.374   1.203   8.053  0.3524  0.2705  0.2181
  159MOL    C9435170   3.336   1.087   8.125 -0.2481 -0.7838  0.8185
  159MOL    C9535171   3.204   1.067   8.166 -0.6263  0.5015 -0.5779
  159MOL    O9635172   3.172   0.964   8.253  0.2961 -0.6680 -0.7696
  159MOL    H9735173   3.007   1.119   8.143  0.9982 -1.7757 -2.5778
  159MOL    H9835174   3.060   1.325   7.997  1.1723  0.5226  0.0406
  159MOL    H9935175   3.478   1.221   8.028  0.0226  2.9516  0.7336
  159MOL   H10035176   3.421   1.024   8.146  0.6336  0.7529  1.9716
  159MOL   C10135177   3.059   0.673   8.053  0.1617 -0.4921  0.0706
  159MOL   C10235178   3.102   0.806   8.081  0.1299  0.1782 -0.3139
  159MOL   C10335179   3.131   0.844   8.212  0.6117  0.4360 -0.1462
  159MOL   C10435180   3.099   0.754   0.064 -0.6019  0.2417  0.4268
  159MOL   C10535181   3.041   0.631   0.036 -0.4085 -0.1852  0.0156
  159MOL   C10635182   3.020   0.587   8.157 -0.7816 -0.4177  0.5612
  159MOL   O10735183   2.951   0.470   8.136 -0.3301 -0.5272 -0.5138
  159MOL   H10835184   3.051   0.647   7.949  0.7973  1.3158 -0.4513
  159MOL   H10935185   3.123   0.869   7.995  0.4916  1.3323  0.6066
  159MOL   H11035186   3.104   0.776   0.169 -0.7003  0.0693  0.4678
  159MOL   H11135187   3.019   0.561   0.116  0.1359  0.7284  0.9857
  159MOL   C11235188   3.110   0.222   7.911  0.3286 -0.2308  0.2731
  159MOL   C11335189   3.091   0.311   8.016  0.2329 -0.4898  0.3665
  159MOL   C11435190   2.980   0.391   8.027  0.0952 -0.4549 -0.5205
  159MOL   C11535191   2.880   0.376   7.926  0.1695 -0.0371 -0.1533
  159MOL   C11635192   2.893   0.284   7.818 -0.4009 -0.0367  0.5190
  159MOL   C11735193   3.009   0.200   7.818 -0.1348  0.1083  0.1904
  159MOL   O11835194   3.033   0.111   7.719  0.1299 -0.1280 -0.3375
  159MOL   H11935195   3.199   0.160   7.907  1.4849  1.4502 -0.4250
  159MOL   H12035196   3.169   0.319   8.091  0.0600  0.8069  0.4281
  159MOL   H12135197   2.784   0.426   7.924 -1.3203 -2.5681  2.8142
  159MOL   H12235198   2.813   0.262   7.749 -1.2821  3.0975  0.4458
  159MOL   C12335199   2.917   8.034   7.802 -0.4847  0.8239 -0.1725
  159MOL   C12435200   2.993   8.152   7.803  0.2635 -0.5343 -0.2804
  159MOL   C12535201   2.953   8.252   7.720  0.7325 -0.6658  0.7985
  159MOL   C12635202   2.837   8.245   7.637  0.1619  0.6289  0.5261
  159MOL   C12735203   2.761   8.130   7.648  0.8644  0.1394  0.1961
  159MOL   C12835204   2.799   8.025   7.730  0.6949  0.0479 -0.4656
  159MOL   O12935205   2.712   7.917   7.730  0.3945 -0.0673 -0.0024
  159MOL   H13035206   2.946   7.960   7.874 -0.6161  1.4860  0.5695
  159MOL   H13135207   3.083   8.162   7.861 -0.1394  1.7638 -0.0253
  159MOL   H13235208   2.821   0.075   7.572 -0.7859 -0.2338 -0.3779
  159MOL   H13335209   2.672   8.126   7.586 -0.7523  3.1006  2.2312
  159MOL   C13435210   2.633   7.664   7.995  0.2560 -0.2112 -0.0974
  159MOL   C13535211   2.687   7.726   7.880 -0.2008  0.2318  0.8026
  159MOL   C13635212   2.671   7.861   7.845  0.2652 -0.2000 -0.5381
  159MOL   C13735213   2.617   7.939   7.951  0.3439  0.2353 -0.0965
  159MOL   C13835214   2.569   7.885   8.072  0.2954  0.3404  0.4745
  159MOL   C13935215   2.573   7.742   8.093 -0.0228  0.0291  0.3884
  159MOL   O14035216   2.507   7.682   8.195 -0.1300  0.2040 -0.1643
  159MOL   H14135217   2.645   7.558   8.006  0.3923 -0.2942 -0.9899
  159MOL   H14235218   2.728   7.667   7.800  1.1942  1.1731  0.8096
  159MOL   H14335219   2.611   8.046   7.941 -1.3230 -0.1363 -4.0003
  159MOL   H14435220   2.530   7.946   8.152 -1.3759 -0.0645 -0.0294
  159MOL   C14535221   2.329   7.891   0.185  0.1641 -0.3429 -0.1283
  159MOL   C14635222   2.434   7.844   0.105  0.0579 -0.9178 -0.1517
  159MOL   C14735223   2.401   7.748   0.008  0.0049  0.2793 -0.1433
  159MOL   C14835224   2.264   7.706   8.247  1.1314  0.7183  0.0004
  159MOL   C14935225   2.163   7.761   0.075  0.4430  0.3371  0.8265
  159MOL   C15035226   2.196   7.854   0.173  0.5032 -0.9610  0.3935
  159MOL   O15135227   2.101   7.913   0.253  0.2945  0.2159 -0.4106
  159MOL   H15235228   2.355   7.964   0.261  0.2885  0.6981 -1.1531
  159MOL   H15335229   2.536   7.877   0.119  0.0889 -1.1263  0.1001
  159MOL   H15435230   2.245   7.631   8.171 -0.9842  0.3559  0.8487
  159MOL   H15535231   2.062   7.723   0.066  0.1568  1.7398 -2.3691
  159MOL   C15635232   2.107   0.009   0.135  0.0492 -0.0350  0.1754
  159MOL   C15735233   2.119   8.123   0.136  0.3733  0.2338  0.1331
  159MOL   C15835234   2.097   8.052   0.253  0.8214  0.2799  0.0878
  159MOL   C15935235   2.060   8.120   0.370 -1.0199  0.3715  0.1243
  159MOL   C16035236   2.046   0.008   0.372  0.3994  0.5723  0.1054
  159MOL   C16135237   2.075   0.079   0.254  0.1790 -0.2428  0.4604
  159MOL   O16235238   2.062   0.214   0.250 -0.3642 -0.4992  0.1392
  159MOL   H16335239   2.122   0.064   0.043 -2.5925 -1.4322 -1.1554
  159MOL   H16435240   2.143   8.077   0.041 -2.7521 -2.2315  0.4742
  159MOL   H16535241   2.043   8.069   0.464 -0.0646  0.3811  0.3070
  159MOL   H16635242   2.029   0.047   0.471  1.4495  2.1822 -0.3357
  159MOL   C16735243   2.411   0.321   0.284 -0.9537  0.0958  0.3570
  159MOL   C16835244   2.294   0.273   0.226 -0.3952  0.2815 -0.2133
  159MOL   C16935245   2.172   0.282   0.295 -0.3200 -0.0450  0.4264
  159MOL   C17035246   2.165   0.346   0.422  0.5060  0.1136  0.0567
  159MOL   C17135247   2.288   0.388   0.477  0.3652  0.0295 -0.1783
  159MOL   C17235248   2.414   0.381   0.409  0.1832  0.2126 -0.2856
  159MOL   O17335249   2.525   0.440   0.461  0.2826  0.3262  0.7608
  159MOL   H17435250   2.503   0.307   0.228 -0.7016 -0.3943  0.8890
  159MOL   H17535251   2.310   0.233   0.127  2.0681 -1.3081  0.7925
  159MOL   H17635252   2.071   0.347   0.474 -0.1920  0.4247 -1.2055
  159MOL   H17735253   2.281   0.435   0.574 -2.1494 -0.0529 -0.2953
  159MOL   C17835254   2.775   0.381   0.728  0.6781 -0.1905 -0.6790
  159MOL   C17935255   2.700   0.443   0.625 -0.3897  0.8900 -0.3577
  159MOL   C18035256   2.599   0.374   0.556 -0.3146 -0.0842  0.5031
  159MOL   C18135257   2.568   0.245   0.596 -0.2023 -0.3430 -0.2147
  159MOL   C18235258   2.654   0.180   0.684  0.1677  0.2708  0.4047
  159MOL   C18335259   2.754   0.246   0.760  0.0275  0.1684 -0.4353
  159MOL   O18435260   2.829   0.186   0.856 -0.3844 -0.1649  0.3233
  159MOL   H18535261   2.845   0.442   0.783 -0.5694  1.5740 -1.0172
  159MOL   H18635262   2.713   0.545   0.593  0.4460  0.0687 -2.7500
  159MOL   H18735263   2.482   0.191   0.559 -1.6359  2.0810 -0.5386
  159MOL   H18835264   2.640   0.074   0.697 -2.3536  0.8136  2.5060
  159MOL   C18935265   2.816   0.333   1.193 -0.0952  0.4033 -0.0044
  159MOL   C19035266   2.782   0.286   1.069 -0.3013 -0.2150  0.2350
  159MOL   C19135267   2.876   0.238   0.976 -0.1518  0.0167  0.1172
  159MOL   C19235268   3.011   0.235   1.012  0.2531 -0.8961 -0.0496
  159MOL   C19335269   3.055   0.288   1.140 -0.0687 -0.1685  0.6555
  159MOL   C19435270   2.953   0.336   1.233 -0.3814  0.6017  0.1498
  159MOL   O19535271   2.981   0.378   1.361  0.3984 -0.0077 -0.3122
  159MOL   H19635272   2.740   0.378   1.255  1.0609  0.0413  1.7218
  159MOL   H19735273   2.676   0.296   1.050 -0.1416  1.7698  0.2562
  159MOL   H19835274   3.084   0.192   0.945 -0.0106 -0.2864 -0.7273
  159MOL   H19935275   3.161   0.289   1.156  0.1217 -2.0296 -0.3515
  159MOL   C20035276   3.269   0.612   1.309  0.7687  0.4012 -0.7446
  159MOL   C20135277   3.142   0.544   1.286  0.1242  0.0844 -0.2224
  159MOL   C20235278   3.104   0.442   1.378  0.8251 -0.0339 -0.3393
  159MOL   C20335279   3.188   0.402   1.480 -0.6221 -0.1541  0.3172
  159MOL   C20435280   3.315   0.466   1.497  0.1376  0.1977 -0.2134
  159MOL   C20535281   3.357   0.572   1.412 -0.2630 -0.1606 -0.2337
  159MOL   O20635282   3.475   0.632   1.441 -0.1184 -0.5759 -0.4133
  159MOL   H20735283   3.297   0.699   1.250  4.6023 -0.8137 -0.8883
  159MOL   H20835284   3.081   0.564   1.199 -0.5144 -1.3022 -0.1162
  159MOL   H20935285   3.162   0.320   1.546  1.1121  0.4174  1.7385
  159MOL   H21035286   3.385   0.431   1.571 -0.9125  0.5896  0.9758
  159MOL   C21135287   3.567   0.897   1.202 -0.2957 -0.6928  0.5458
  159MOL   C21235288   3.551   0.769   1.261 -0.8137  1.2562  0.0095
  159MOL   C21335289   3.504   0.757   1.391 -0.5543  0.0285  0.1914
  159MOL   C21435290   3.503   0.871   1.470 -0.6323  0.2362 -0.5290
  159MOL   C21535291   3.529   0.999   1.418  0.1670  0.0922 -0.2470
  159MOL   C21635292   3.557   1.013   1.285  0.0826 -0.1133  0.5283
  159MOL   O21735293   3.560   1.129   1.229 -0.0351 -0.8824  0.2411
  159MOL   H21835294   3.597   0.917   1.101 -0.0508  0.8143  0.9020
  159MOL   H21935295   3.564   0.682   1.200  0.5689  2.3848 -1.3508
  159MOL   H22035296   3.479   0.859   1.575  1.0018  1.0037 -0.0448
  159MOL   H22135297   3.531   1.091   1.473 -2.8550  1.3237 -2.0547
  159MOL   H22235298   3.477   1.172   1.216  0.3070 -0.7451 -1.7015
  160MOL     C135299   3.534   5.597   2.266  0.3096  0.6008  0.0032
  160MOL     C235300   3.447   5.701   2.316 -0.5695 -0.0000  0.4559
  160MOL     C335301   3.453   5.740   2.452  0.5617  0.3257  0.3267
  160MOL     C435302   3.545   5.686   2.538 -0.4053  0.2670  0.6021
  160MOL     C535303   3.637   5.587   2.489  0.4225  0.8148 -0.0822
  160MOL     C635304   3.629   5.537   2.359 -0.4443 -0.1338  0.2546
  160MOL     O735305   3.717   5.432   2.323  0.2308 -0.2001 -0.4622
  160MOL     H835306   3.528   5.570   2.162 -0.2016 -0.9882  0.4322
  160MOL     H935307   3.386   5.749   2.242 -0.1123  1.9738  1.3429
  160MOL    H1035308   3.558   5.720   2.640  2.2981  0.2366  0.3221
  160MOL    H1135309   3.702   5.545   2.564  0.9992  1.1691 -0.3818
  160MOL    H1235310   3.377   5.801   2.499 -1.1600 -1.7322  0.2823
  160MOL    C1335311   3.481   5.144   2.300  0.2163 -0.2381  0.9746
  160MOL    C1435312   3.529   5.265   2.338 -0.1195 -0.7583 -0.0227
  160MOL    C1535313   3.655   5.309   2.282  0.3758 -0.1394  0.1609
  160MOL    C1635314   3.722   5.233   2.183 -0.5423 -0.0813  0.6947
  160MOL    C1735315   3.667   5.114   2.134  0.5015  0.1524  0.3317
  160MOL    C1835316   3.545   5.066   2.193  0.2961  0.7114 -0.3316
  160MOL    O1935317   3.483   4.949   2.153  0.0749 -0.2887 -0.3413
  160MOL    H2035318   3.386   5.107   2.336 -2.1222  2.2220 -2.3411
  160MOL    H2135319   3.476   5.324   2.412 -0.4689 -0.8434 -0.2040
  160MOL    H2235320   3.811   5.273   2.136 -0.3902 -0.4366  0.6809
  160MOL    H2335321   3.705   5.062   2.047 -0.5775 -1.7717  0.9699
  160MOL    C2435322   3.654   4.656   2.293  0.8330 -0.0062  0.3063
  160MOL    C2535323   3.624   4.763   2.211  0.5502  0.6017  0.6030
  160MOL    C2635324   3.508   4.837   2.233  0.5543 -0.3397 -0.4491
  160MOL    C2735325   3.413   4.798   2.331  0.2963 -0.2156 -0.2389
  160MOL    C2835326   3.437   4.686   2.409 -0.3598 -0.4649  0.0243
  160MOL    C2935327   3.559   4.616   2.391 -0.1498  0.0725 -0.6170
  160MOL    O3035328   3.584   4.499   2.464 -0.2659  0.4521  0.3697
  160MOL    H3135329   3.749   4.608   2.275 -0.4678 -2.0261 -1.2689
  160MOL    H3235330   3.690   4.801   2.135 -0.6432  2.0075  0.2395
  160MOL    H3335331   3.320   4.852   2.343  0.3091 -0.4522  0.9688
  160MOL    H3435332   3.358   4.667   2.481  2.1280 -0.8398  2.7574
  160MOL    C3535333   3.928   4.441   2.594 -0.1645  0.0908  0.0511
  160MOL    C3635334   3.798   4.499   2.580 -0.0250  0.1705 -0.6603
  160MOL    C3735335   3.709   4.454   2.480 -0.1332 -0.0763  0.3084
  160MOL    C3835336   3.752   4.343   2.403 -0.2895 -0.5213 -0.3206
  160MOL    C3935337   3.877   4.292   2.409 -0.4024  0.4773  0.6191
  160MOL    C4035338   3.969   4.341   2.505  0.3893  0.0301 -0.2325
  160MOL    O4135339   4.098   4.296   2.524  0.3288  0.2417  0.1685
  160MOL    H4235340   3.999   4.476   2.667  1.0990  1.0562 -1.6248
  160MOL    H4335341   3.767   4.585   2.637 -4.1689 -0.3689 -1.9198
  160MOL    H4435342   3.685   4.314   2.324 -0.6401 -0.8596  0.0968
  160MOL    H4535343   3.909   4.218   2.337 -0.3883 -1.3581  2.4888
  160MOL    C4635344   4.356   4.557   2.454  0.2413  0.8758 -0.2579
  160MOL    C4735345   4.263   4.476   2.524 -0.0810 -0.2496  0.6917
  160MOL    C4835346   4.197   4.367   2.460  0.3680  0.0950  0.5750
  160MOL    C4935347   4.220   4.343   2.319  0.2340  0.8690  0.6065
  160MOL    C5035348   4.316   4.425   2.250  0.6804  0.5899  0.4156
  160MOL    C5135349   4.382   4.524   2.321 -0.0378 -0.0214 -0.4644
  160MOL    O5235350   4.479   4.599   2.252  0.0970 -0.6558 -0.0529
  160MOL    H5335351   4.410   4.631   2.511  1.8077 -0.7529  0.3970
  160MOL    H5435352   4.258   4.491   2.631 -0.5691 -0.0314  0.6392
  160MOL    H5535353   4.152   4.273   2.272  0.9167  0.2641  0.5288
  160MOL    H5635354   4.325   4.406   2.144  2.2737  1.3819  0.3990
  160MOL    C5735355   4.682   4.891   2.364  0.3062  0.3655  0.9622
  160MOL    C5835356   4.648   4.766   2.311 -0.4459 -0.8389 -0.1600
  160MOL    C5935357   4.516   4.721   2.293 -0.9329 -0.0664  0.7172
  160MOL    C6035358   4.418   4.819   2.312 -0.3846 -0.2034  0.5183
  160MOL    C6135359   4.449   4.951   2.351 -0.3464  0.2516  0.4853
  160MOL    C6235360   4.583   4.984   2.391 -0.1662  1.2603  0.5131
  160MOL    O6335361   4.611   5.102   2.454  0.9443 -0.2131 -0.4873
  160MOL    H6435362   4.781   4.926   2.388  1.2263 -0.1763 -1.8212
  160MOL    H6535363   4.723   4.693   2.283  1.2484  0.9109 -0.2362
  160MOL    H6635364   4.317   4.799   2.278 -0.3148 -0.5525  0.5210
  160MOL    H6735365   4.367   5.020   2.367 -0.2019  0.8100 -1.0317
  160MOL    C6835366   4.866   5.150   2.713  0.6241  1.0510 -0.2598
  160MOL    C6935367   4.797   5.163   2.596 -0.4135 -0.2450 -0.1326
  160MOL    C7035368   4.682   5.091   2.568  0.0349 -0.4075  0.3204
  160MOL    C7135369   4.638   4.993   2.670 -0.0942 -0.4385  0.3563
  160MOL    C7235370   4.717   4.965   2.782 -0.0831 -0.1026 -0.0770
  160MOL    C7335371   4.830   5.044   2.804  0.6300  0.9133 -0.2021
  160MOL    O7435372   4.918   5.014   2.905 -0.0142  0.1038 -0.4895
  160MOL    H7535373   4.960   5.201   2.728  3.0221 -2.8046 -1.2463
  160MOL    H7635374   4.825   5.238   2.523 -1.1428 -0.3195 -0.4901
  160MOL    H7735375   4.543   4.941   2.665 -0.4833  0.2158  0.8132
  160MOL    H7835376   4.682   4.893   2.855 -0.0728  0.8940  0.9332
  160MOL    C7935377   4.770   4.933   3.226  0.0280 -0.5701 -0.7583
  160MOL    C8035378   4.830   4.918   3.100 -0.0796  0.4083  0.1245
  160MOL    C8135379   4.871   5.029   3.030 -0.3421 -0.7073 -0.2863
  160MOL    C8235380   4.873   5.159   3.095  0.0546 -0.4651 -0.0958
  160MOL    C8335381   4.810   5.169   3.223 -0.1181  1.1266 -0.0089
  160MOL    C8435382   4.758   5.053   3.284 -0.0338 -0.6219  0.4721
  160MOL    O8535383   4.712   5.061   3.414  0.4347 -0.6094 -0.3587
  160MOL    H8635384   4.730   4.850   3.282  0.6979 -0.9487 -0.8361
  160MOL    H8735385   4.836   4.817   3.062 -0.3084  1.1224 -1.8479
  160MOL    H8835386   4.896   5.248   3.038  1.3449  0.1063  1.2924
  160MOL    H8935387   4.806   5.264   3.274  0.1302  2.2847 -2.0839
  160MOL    C9035388   4.852   4.917   3.717 -0.3696  0.0395 -0.3507
  160MOL    C9135389   4.759   4.948   3.615 -0.5101 -0.6249 -0.1167
  160MOL    C9235390   4.800   5.038   3.515 -0.0151  0.5841 -0.3564
  160MOL    C9335391   4.924   5.103   3.525  0.2241 -0.1516 -0.1426
  160MOL    C9435392   5.014   5.079   3.634  0.2989  0.2315 -0.1664
  160MOL    C9535393   4.977   4.985   3.730  0.6552  0.2513 -0.7944
  160MOL    O9635394   5.047   4.964   3.848  0.0286  0.2022 -0.0631
  160MOL    H9735395   4.821   4.853   3.799 -0.6838 -1.0101 -1.2830
  160MOL    H9835396   4.671   4.884   3.606  0.9496 -2.6937 -0.0629
  160MOL    H9935397   4.953   5.182   3.458 -0.4519 -1.0666 -1.5397
  160MOL   H10035398   5.106   5.135   3.647  0.1823  0.4048 -0.0806
  160MOL   C10135399   5.387   4.829   3.785  0.1678 -0.3959  0.2022
  160MOL   C10235400   5.250   4.849   3.776  0.5159  0.4390  1.1742
  160MOL   C10335401   5.183   4.951   3.845  0.9664  0.3048 -0.3780
  160MOL   C10435402   5.268   5.036   3.928 -0.2024 -0.0047  0.2248
  160MOL   C10535403   5.407   5.010   3.947  0.0866 -0.4003 -1.0024
  160MOL   C10635404   5.469   4.910   3.872  0.2573 -0.4502  0.7207
  160MOL   O10735405   5.604   4.885   3.890 -0.0728 -0.1806 -0.8702
  160MOL   H10835406   5.425   4.743   3.731 -0.9770  0.1919 -1.6071
  160MOL   H10935407   5.187   4.785   3.716 -0.1028  2.7191 -0.6969
  160MOL   H11035408   5.223   5.109   3.994  1.9845  0.9481  0.7117
  160MOL   H11135409   5.465   5.076   4.010 -0.6681  0.5269 -1.2805
  160MOL   C11235410   5.778   4.741   3.591 -0.0183 -0.1097 -0.2213
  160MOL   C11335411   5.702   4.755   3.711  1.3820 -0.4523 -0.7210
  160MOL   C11435412   5.683   4.875   3.776  0.0868  0.0279 -0.8266
  160MOL   C11535413   5.738   4.992   3.719  0.1472 -0.2242 -0.4170
  160MOL   C11635414   5.825   4.986   3.610  0.0153 -0.2547 -0.1525
  160MOL   C11735415   5.845   4.856   3.547 -0.0252  0.4435  0.0170
  160MOL   O11835416   5.934   4.849   3.442  0.0965  0.2211  0.0261
  160MOL   H11935417   5.796   4.645   3.543  0.7566  0.9537 -2.1155
  160MOL   H12035418   5.660   4.666   3.756 -1.8679  2.9901  3.5204
  160MOL   H12135419   5.726   5.086   3.771 -0.7303  0.0231 -1.0674
  160MOL   H12235420   5.875   5.072   3.569  0.8587 -0.8309 -0.3732
  160MOL   C12335421   5.775   4.874   3.109  0.3600  0.3439 -0.0362
  160MOL   C12435422   5.813   4.906   3.235 -0.7834 -0.0006  0.4178
  160MOL   C12535423   5.886   4.819   3.319 -0.3954  0.9163  0.4366
  160MOL   C12635424   5.905   4.689   3.273 -0.1173 -0.0483  1.2132
  160MOL   C12735425   5.857   4.652   3.146  0.7155 -0.3732 -0.3408
  160MOL   C12835426   5.799   4.743   3.062 -0.0854  0.2541 -0.1807
  160MOL   O12935427   5.746   4.709   2.942 -0.2876  0.1531  0.0438
  160MOL   H13035428   5.729   4.945   3.042  0.9236  0.5648 -0.1843
  160MOL   H13135429   5.803   5.009   3.266  0.5452  1.0552 -2.5056
  160MOL   H13235430   5.946   4.626   3.351  0.7749  1.5784  2.0798
  160MOL   H13335431   5.859   4.547   3.122 -0.4959 -0.9556  1.8908
  160MOL   C13435432   5.462   4.478   2.990  0.1206 -0.0048 -0.2725
  160MOL   C13535433   5.543   4.592   3.010  0.3940  0.6387  0.1660
  160MOL   C13635434   5.667   4.603   2.940  0.0397 -0.0086 -0.4476
  160MOL   C13735435   5.717   4.497   2.864  0.6639 -0.1285  0.1087
  160MOL   C13835436   5.630   4.383   2.844  0.6884 -0.0217 -0.6438
  160MOL   C13935437   5.505   4.372   2.908  0.5365 -0.0113  0.8517
  160MOL   O14035438   5.423   4.261   2.901  0.2033 -0.0007 -0.1704
  160MOL   H14135439   5.371   4.454   3.044 -0.7769  0.6401 -1.4685
  160MOL   H14235440   5.524   4.685   3.062  0.1065  1.1754 -0.8837
  160MOL   H14335441   5.810   4.501   2.810 -1.1044  1.8051 -2.9771
  160MOL   H14435442   5.666   4.298   2.787 -1.9909 -1.4667 -0.2534
  160MOL   C14535443   5.563   3.959   3.061  0.0033 -0.6974  0.7804
  160MOL   C14635444   5.501   4.083   3.046 -0.5019  0.7623  0.2761
  160MOL   C14735445   5.475   4.135   2.919 -0.4727  0.1849 -0.1740
  160MOL   C14835446   5.497   4.049   2.806 -0.4607  1.0589 -0.3582
  160MOL   C14935447   5.553   3.920   2.817 -0.0520  0.6616  0.0067
  160MOL   C15035448   5.585   3.877   2.948  0.2764 -0.8196  0.1906
  160MOL   O15135449   5.649   3.761   2.958  0.1682 -0.3255 -0.4841
  160MOL   H15235450   5.599   3.931   3.159 -0.8332 -1.1316  0.9679
  160MOL   H15335451   5.485   4.139   3.137 -1.0451 -0.1353  0.7386
  160MOL   H15435452   5.475   4.099   2.713 -1.2590  3.4253  1.0644
  160MOL   H15535453   5.584   3.852   2.739 -0.3500 -0.4579  0.8393
  160MOL   C15635454   5.590   3.408   3.000  0.5261  0.0537  0.5685
  160MOL   C15735455   5.637   3.528   2.948 -0.1628  0.0935  0.0321
  160MOL   C15835456   5.576   3.646   2.988 -0.0031  0.5169  0.0107
  160MOL   C15935457   5.458   3.649   3.068  0.2829  0.3343  0.4454
  160MOL   C16035458   5.403   3.527   3.109  0.4503  0.7696  0.7163
  160MOL   C16135459   5.475   3.407   3.078 -0.7118 -0.4575 -0.4114
  160MOL   O16235460   5.435   3.287   3.129  0.1589 -0.7426  0.1378
  160MOL   H16335461   5.648   3.323   2.968  0.9910 -0.3479  2.3914
  160MOL   H16435462   5.718   3.532   2.876  0.6124 -0.3361  0.8737
  160MOL   H16535463   5.422   3.742   3.109  2.1645  1.2292  0.0945
  160MOL   H16635464   5.314   3.525   3.169  0.0693 -1.7604  0.1190
  160MOL   C16735465   5.083   3.197   3.035 -0.0709  0.5391  0.0633
  160MOL   C16835466   5.197   3.252   3.111  1.1230 -0.3108 -0.0206
  160MOL   C16935467   5.330   3.232   3.066  0.2622  0.4551 -0.1702
  160MOL   C17035468   5.351   3.141   2.960 -0.3179 -0.0674 -0.1986
  160MOL   C17135469   5.246   3.080   2.888 -0.8842 -1.1999  0.1193
  160MOL   C17235470   5.113   3.119   2.914  0.2646 -0.0067 -0.2782
  160MOL   O17335471   5.018   3.072   2.825 -0.4659 -0.0719 -0.2694
  160MOL   H17435472   4.982   3.220   3.064 -0.3188 -0.1683 -0.2456
  160MOL   H17535473   5.176   3.313   3.197  0.1972 -2.4167  1.3071
  160MOL   H17635474   5.453   3.115   2.939  0.3000  2.3234 -0.2773
  160MOL   H17735475   5.274   3.021   2.803 -1.5188 -0.4071 -0.6471
  160MOL   C17835476   4.700   3.250   2.861 -0.1269  0.2396 -0.4526
  160MOL   C17935477   4.800   3.147   2.875  0.4175  0.2604  0.4445
  160MOL   C18035478   4.921   3.162   2.808  0.6191  0.2102 -0.8169
  160MOL   C18135479   4.944   3.276   2.727  0.3447  0.4277 -0.9562
  160MOL   C18235480   4.847   3.380   2.722  0.8156  0.2073 -0.1966
  160MOL   C18335481   4.716   3.363   2.780  0.2040  0.8443 -0.1470
  160MOL   O18435482   4.618   3.461   2.765  0.1991 -0.0632 -0.0998
  160MOL   H18535483   4.602   3.234   2.903  0.0945 -1.2343 -0.4592
  160MOL   H18635484   4.776   3.067   2.942 -3.4654  1.0062  0.0585
  160MOL   H18735485   5.026   3.280   2.656  0.7874 -0.8233 -0.5293
  160MOL   H18835486   4.843   3.463   2.654 -2.6275  0.7117  0.5257
  160MOL   C18935487   4.508   3.708   2.510 -0.3605 -0.3517 -0.5905
  160MOL   C19035488   4.549   3.657   2.637 -0.5758 -0.7800  0.8689
  160MOL   C19135489   4.597   3.523   2.642  0.4691 -0.5079  0.0749
  160MOL   C19235490   4.613   3.450   2.519 -0.8370  0.4903 -0.4618
  160MOL   C19335491   4.567   3.505   2.400  0.6283  0.2971  0.8183
  160MOL   C19435492   4.516   3.634   2.392 -0.7925 -0.7898 -0.2016
  160MOL   O19535493   4.480   3.693   2.273  0.5076  0.2787 -0.0838
  160MOL   H19635494   4.471   3.809   2.505  0.8519  0.2348  1.5022
  160MOL   H19735495   4.537   3.726   2.719  0.1903 -0.0387  0.3705
  160MOL   H19835496   4.644   3.347   2.514 -2.3396  0.0753 -1.9677
  160MOL   H19935497   4.583   3.456   2.306  1.4563  0.8807  0.6437
  160MOL   C20035498   4.560   3.585   1.929  0.3394 -0.1140  0.0085
  160MOL   C20135499   4.488   3.605   2.046 -0.4569  0.9956 -0.0615
  160MOL   C20235500   4.549   3.655   2.162 -0.0656  0.6379  0.6810
  160MOL   C20335501   4.685   3.678   2.154  0.0956  0.0612 -0.6762
  160MOL   C20435502   4.763   3.648   2.044 -0.4364 -0.1227  0.3553
  160MOL   C20535503   4.701   3.600   1.925 -0.1503  0.0454  0.4533
  160MOL   O20635504   4.782   3.570   1.820 -0.2975 -0.3908  0.5272
  160MOL   H20735505   4.505   3.544   1.845 -0.8883  1.0609  0.2162
  160MOL   H20835506   4.381   3.593   2.041 -0.2068 -1.3019 -0.0187
  160MOL   H20935507   4.739   3.709   2.242 -0.9650  1.3397 -0.4634
  160MOL   H21035508   4.870   3.658   2.045 -0.5975  2.0070 -0.6327
  160MOL   C21135509   4.840   3.838   1.567 -0.1304  1.2366  0.3471
  160MOL   C21235510   4.775   3.741   1.645  0.0229 -0.2172  0.6293
  160MOL   C21335511   4.837   3.681   1.758 -0.5872 -0.9093 -0.5019
  160MOL   C21435512   4.969   3.720   1.787 -0.6848  0.1132 -0.4632
  160MOL   C21535513   5.032   3.819   1.709  0.3650 -0.2974  0.0450
  160MOL   C21635514   4.966   3.884   1.603  0.1412 -0.6283 -0.2413
  160MOL   O21735515   5.027   3.984   1.528  0.3783 -0.8050 -0.2334
  160MOL   H21835516   4.782   3.875   1.483 -1.3240  1.0882  1.0982
  160MOL   H21935517   4.683   3.705   1.602 -0.6083  0.2980  1.5205
  160MOL   H22035518   5.017   3.675   1.873 -1.8961  0.6360  0.5126
  160MOL   H22135519   5.123   3.867   1.742 -1.2281  2.1642  1.0067
  160MOL   H22235520   4.962   4.040   1.490 -0.5116 -0.3821  1.8043
  161MOL     C135521   3.106   2.780   6.406  0.5176  0.4340  0.2591
  161MOL     C235522   3.121   2.686   6.302 -0.3944  0.3839 -0.2012
  161MOL     C335523   3.247   2.644   6.257  0.2880 -0.2847  0.5684
  161MOL     C435524   3.367   2.694   6.317  0.7036  0.8247 -1.0228
  161MOL     C535525   3.353   2.795   6.419  0.3012  0.0466  0.1818
  161MOL     C635526   3.221   2.834   6.461  0.9524  0.1485 -0.0858
  161MOL     O735527   3.208   2.913   6.572 -0.1228 -0.1352 -0.0569
  161MOL     H835528   3.011   2.797   6.455  1.0085 -0.7514  1.6582
  161MOL     H935529   3.029   2.660   6.252 -0.5330  1.6649 -0.6279
  161MOL    H1035530   3.461   2.665   6.273  0.6719  1.1599 -1.3204
  161MOL    H1135531   3.444   2.830   6.466  0.1963 -0.2522  0.6126
  161MOL    H1235532   3.253   2.566   6.183  1.8261 -0.5970  0.9967
  161MOL    C1335533   3.337   3.256   6.635  0.5665 -0.0475 -0.1623
  161MOL    C1435534   3.298   3.127   6.665  0.2277 -0.0420  0.6613
  161MOL    C1535535   3.241   3.046   6.558  0.1423  0.2075  0.0795
  161MOL    C1635536   3.225   3.108   6.427  0.6270 -0.5342  0.5342
  161MOL    C1735537   3.260   3.241   6.409  0.7301  0.4110 -0.8378
  161MOL    C1835538   3.316   3.313   6.513  0.8208 -0.3817  0.1034
  161MOL    O1935539   3.367   3.441   6.481 -0.7880  0.9307 -0.3612
  161MOL    H2035540   3.378   3.312   6.717  2.1031 -0.4714 -0.6252
  161MOL    H2135541   3.299   3.088   6.766 -0.0151 -1.3359  0.1791
  161MOL    H2235542   3.176   3.070   6.339 -0.9952  1.5046  0.5232
  161MOL    H2335543   3.253   3.296   6.317  1.6111  2.4829  0.2965
  161MOL    C2435544   3.733   3.459   6.441  0.2600  0.5982 -0.4357
  161MOL    C2535545   3.610   3.433   6.505  0.4586  0.0271 -0.3106
  161MOL    C2635546   3.491   3.444   6.426 -0.1270 -0.8948 -0.8191
  161MOL    C2735547   3.498   3.459   6.287  0.3103  0.3894  0.1119
  161MOL    C2835548   3.625   3.471   6.222 -0.1505 -0.1422  0.1299
  161MOL    C2935549   3.739   3.467   6.301 -0.1599  0.7066  0.5246
  161MOL    O3035550   3.864   3.471   6.244 -0.7794  0.3951  0.2879
  161MOL    H3135551   3.823   3.456   6.499  0.6176  0.0109 -1.0118
  161MOL    H3235552   3.599   3.415   6.611  0.0326 -0.9760 -0.5190
  161MOL    H3335553   3.406   3.455   6.230  0.7912  0.7621 -0.6909
  161MOL    H3435554   3.634   3.475   6.115  2.8477  0.6292  0.3619
  161MOL    C3535555   3.862   3.315   5.901 -0.0885 -0.4947 -0.4035
  161MOL    C3635556   3.859   3.420   6.003  0.9862  0.0908  0.3066
  161MOL    C3735557   3.882   3.379   6.141 -0.0651 -0.5138 -0.1459
  161MOL    C3835558   3.912   3.242   6.171 -0.7267  0.4547  0.7257
  161MOL    C3935559   3.912   3.141   6.072 -0.3878 -0.6957  0.2845
  161MOL    C4035560   3.887   3.176   5.934  0.4410  0.4968 -0.5082
  161MOL    O4135561   3.905   3.086   5.833  0.3061 -0.3131  0.7761
  161MOL    H4235562   3.846   3.348   5.799 -1.7795  1.0735  0.3512
  161MOL    H4335563   3.837   3.523   5.977  1.1278  0.3019  0.9940
  161MOL    H4435564   3.915   3.224   6.278  1.0302  0.6603  0.7341
  161MOL    H4535565   3.930   3.038   6.097  0.5233 -0.1160  2.1013
  161MOL    C4635566   3.590   2.905   5.788  0.3144  0.3979  0.0486
  161MOL    C4735567   3.707   2.950   5.851  0.0757 -0.8710  0.4465
  161MOL    C4835568   3.790   3.035   5.775 -0.6437  0.0269  0.1792
  161MOL    C4935569   3.758   3.077   5.647 -0.7609 -0.0659 -0.2106
  161MOL    C5035570   3.638   3.027   5.584 -0.4182 -1.1211  0.3549
  161MOL    C5135571   3.552   2.945   5.655  0.3385 -0.1050  0.0066
  161MOL    O5235572   3.443   2.895   5.585  0.1466 -0.1739 -0.0334
  161MOL    H5335573   3.518   2.840   5.834  0.4362 -0.9079 -1.5607
  161MOL    H5435574   3.715   2.926   5.956 -0.3044 -0.8108  0.4890
  161MOL    H5535575   3.834   3.128   5.590  0.2453 -0.5772  0.6576
  161MOL    H5635576   3.614   3.068   5.487  1.3567 -0.9782 -0.0380
  161MOL    C5735577   3.350   2.619   5.367  0.0352 -0.2733  0.0654
  161MOL    C5835578   3.350   2.742   5.429 -0.8674  0.5472  0.1707
  161MOL    C5935579   3.460   2.785   5.507  0.4415  0.2105 -0.9219
  161MOL    C6035580   3.571   2.692   5.520  0.2275  0.6128 -0.6563
  161MOL    C6135581   3.566   2.572   5.446  0.1055 -0.0310 -0.5120
  161MOL    C6235582   3.458   2.533   5.364  0.5468 -0.2949  0.4781
  161MOL    O6335583   3.460   2.411   5.300  0.3069  0.1771  0.0248
  161MOL    H6435584   3.264   2.596   5.306 -0.0087  1.4136 -0.5343
  161MOL    H6535585   3.259   2.799   5.417 -1.2355 -0.6209 -2.8751
  161MOL    H6635586   3.648   2.708   5.594 -0.0413 -0.8029 -0.0439
  161MOL    H6735587   3.644   2.497   5.451 -0.1099 -0.3973 -2.3148
  161MOL    C6835588   3.620   2.376   4.969  0.3616 -0.3563 -0.1309
  161MOL    C6935589   3.604   2.388   5.108  0.9781 -0.4404  0.0722
  161MOL    C7035590   3.481   2.412   5.166  0.2999 -0.5191  0.3820
  161MOL    C7135591   3.374   2.421   5.074  0.5038 -0.4487  0.0958
  161MOL    C7235592   3.389   2.411   4.935  0.4344 -0.2292 -0.3364
  161MOL    C7335593   3.512   2.380   4.879  0.4008  0.3826 -1.1766
  161MOL    O7435594   3.539   2.351   4.750  0.4972  0.3104 -0.0715
  161MOL    H7535595   3.717   2.354   4.926 -0.0773 -0.1506 -1.2601
  161MOL    H7635596   3.689   2.391   5.175  1.6823 -0.8073 -0.8061
  161MOL    H7735597   3.274   2.437   5.111  1.4076  1.8368  1.6742
  161MOL    H7835598   3.299   2.419   4.876  0.0158  2.5097  0.5962
  161MOL    C7935599   3.439   2.044   4.576  0.3597 -0.4100 -0.0435
  161MOL    C8035600   3.437   2.172   4.623 -0.5003 -1.2165  0.1745
  161MOL    C8135601   3.539   2.224   4.706 -0.2588 -0.7050 -0.2981
  161MOL    C8235602   3.657   2.144   4.731 -0.5025  0.0249 -0.0977
  161MOL    C8335603   3.662   2.011   4.686 -0.6493 -0.1524  0.4799
  161MOL    C8435604   3.552   1.967   4.605 -0.5277 -0.0303  0.0504
  161MOL    O8535605   3.573   1.843   4.552 -0.0865  0.2381  0.0995
  161MOL    H8635606   3.360   2.009   4.511 -0.1792  0.7805 -0.0504
  161MOL    H8735607   3.361   2.241   4.588  2.1116  2.0785  0.7737
  161MOL    H8835608   3.741   2.178   4.789  0.5307  0.0649 -1.6047
  161MOL    H8935609   3.750   1.949   4.691 -1.1726 -0.8707  0.8773
  161MOL    C9035610   3.566   1.777   4.187 -0.6922 -0.5053  0.8789
  161MOL    C9135611   3.607   1.824   4.312  0.1834 -0.3890 -1.3481
  161MOL    C9235612   3.528   1.804   4.427  0.5696 -0.3560  0.1171
  161MOL    C9335613   3.401   1.743   4.407 -0.6829  0.5055 -0.9019
  161MOL    C9435614   3.361   1.696   4.280  0.5065 -0.0566  0.2231
  161MOL    C9535615   3.447   1.703   4.171 -0.2025 -0.7425 -0.4254
  161MOL    O9635616   3.405   1.647   4.050  0.0234 -0.3784 -0.5529
  161MOL    H9735617   3.632   1.784   4.102 -1.1053  2.9988  0.7834
  161MOL    H9835618   3.709   1.859   4.313  0.2721 -0.6526 -1.1742
  161MOL    H9935619   3.330   1.738   4.488 -2.0855  0.4078 -2.1014
  161MOL   H10035620   3.269   1.642   4.261  0.4743  0.0664  0.0155
  161MOL   C10135621   3.594   1.416   3.830 -0.0515  0.5114  0.1704
  161MOL   C10235622   3.527   1.530   3.883  0.0025  1.1224 -0.7143
  161MOL   C10335623   3.469   1.533   4.010  0.8565  0.0624  0.4303
  161MOL   C10435624   3.470   1.412   4.085 -0.1298  0.0946 -0.2345
  161MOL   C10535625   3.539   1.298   4.034  0.5067 -0.4667 -0.2690
  161MOL   C10635626   3.610   1.301   3.912 -0.3929 -0.2556 -0.2575
  161MOL   O10735627   3.679   1.195   3.862  0.4329 -0.0031  0.0524
  161MOL   H10835628   3.636   1.425   3.731 -0.7827  2.2212 -0.0036
  161MOL   H10935629   3.517   1.614   3.816  0.5483  0.9699 -0.9849
  161MOL   H11035630   3.426   1.408   4.183  0.7046 -0.8147  0.1184
  161MOL   H11135631   3.534   1.208   4.095  1.3178 -0.0067  0.4947
  161MOL   C11235632   3.594   0.837   3.820  0.3312 -0.9775  0.2306
  161MOL   C11335633   3.605   0.976   3.799 -0.1622 -0.1306  0.2024
  161MOL   C11435634   3.649   1.065   3.899 -0.1496 -0.1184  0.1687
  161MOL   C11535635   3.690   1.019   4.025  0.1079 -0.2578 -0.8816
  161MOL   C11635636   3.683   0.883   4.048  0.1802 -0.2294  0.5674
  161MOL   C11735637   3.632   0.791   3.951 -0.8638 -0.5173 -0.2001
  161MOL   O11835638   3.635   0.655   3.978 -0.0269  0.3953 -0.0570
  161MOL   H11935639   3.546   0.778   3.744  0.2139 -1.0088  0.3292
  161MOL   H12035640   3.595   1.015   3.699 -0.5493  1.0978  0.7132
  161MOL   H12135641   3.729   1.084   4.101 -2.1473 -0.2754  0.3471
  161MOL   H12235642   3.718   0.854   4.146  0.0071  1.1011  1.0357
  161MOL   C12335643   3.349   0.431   3.949  0.3427 -0.3514 -0.0216
  161MOL   C12435644   3.428   0.540   3.994  0.3786 -0.4521  0.0318
  161MOL   C12535645   3.548   0.566   3.928  0.2507 -0.0820  0.3553
  161MOL   C12635646   3.581   0.494   3.810 -0.3485 -0.5213 -0.3824
  161MOL   C12735647   3.491   0.404   3.757 -0.1953  0.2747  0.3778
  161MOL   C12835648   3.376   0.368   3.824 -0.1024 -0.5237  0.3686
  161MOL   O12935649   3.292   0.274   3.775 -0.2361 -0.5967 -0.7401
  161MOL   H13035650   3.258   0.408   4.003 -0.6618 -1.8037 -2.2814
  161MOL   H13135651   3.404   0.596   4.083  1.3577  0.6886 -0.4115
  161MOL   H13235652   3.682   0.506   3.775  1.1101 -0.9316  3.4570
  161MOL   H13335653   3.520   0.364   3.661  0.5790  1.8252 -0.0434
  161MOL   C13435654   3.175   0.289   3.424  0.2282  0.2007  0.1598
  161MOL   C13535655   3.256   0.263   3.539  0.2117  0.4607 -0.4726
  161MOL   C13635656   3.216   0.308   3.667 -0.5542 -0.1997  0.2868
  161MOL   C13735657   3.090   0.376   3.684 -0.2849 -0.1155  0.4535
  161MOL   C13835658   3.016   0.404   3.567  0.2972 -0.2732 -0.9516
  161MOL   C13935659   3.056   0.362   3.438 -0.3742 -0.3057 -0.2894
  161MOL   O14035660   2.971   0.383   3.330  0.5064 -0.1729  0.1879
  161MOL   H14135661   3.200   0.240   3.331 -1.6824 -0.2220 -0.1373
  161MOL   H14235662   3.353   0.218   3.528 -0.5208 -1.4374  0.6346
  161MOL   H14335663   3.064   0.410   3.783 -0.6346 -1.7025  0.9158
  161MOL   H14435664   2.921   0.451   3.584  0.6001  0.3377 -0.9425
  161MOL   C14535665   2.687   0.151   3.389 -0.2134 -0.7749 -0.1295
  161MOL   C14635666   2.808   0.220   3.410 -0.0421 -0.1755 -0.2156
  161MOL   C14735667   2.870   0.293   3.302  0.5801  0.8569 -0.5225
  161MOL   C14835668   2.810   0.283   3.174 -0.1938 -1.2706 -0.4309
  161MOL   C14935669   2.704   0.194   3.154  0.4647 -0.7591 -0.7579
  161MOL   C15035670   2.644   0.123   3.261 -0.1170  0.8984 -0.0478
  161MOL   O15135671   2.539   0.048   3.234  0.5049 -0.4141 -0.3793
  161MOL   H15235672   2.644   0.115   3.482  0.1586  1.0705  0.7679
  161MOL   H15335673   2.836   0.219   3.515 -0.0030 -1.9410 -0.2143
  161MOL   H15435674   2.855   0.333   3.090 -0.5755 -0.8474 -0.3846
  161MOL   H15535675   2.661   0.181   3.055 -1.0900 -0.4431 -0.1281
  161MOL   C15635676   2.581   8.012   3.460 -0.9510  0.1811  0.2036
  161MOL   C15735677   2.620   8.116   3.374  0.2927  0.1070  0.2155
  161MOL   C15835678   2.521   8.190   3.304 -0.0593  0.3883  0.8909
  161MOL   C15935679   2.387   8.146   3.308  0.3951  0.5374  0.0062
  161MOL   C16035680   2.351   8.033   3.382 -0.0248  0.0670  0.2751
  161MOL   C16135681   2.448   7.962   3.459  0.1760 -0.5195  0.6408
  161MOL   O16235682   2.421   7.840   3.508 -0.1471  0.2637 -0.0434
  161MOL   H16335683   2.656   7.947   3.504 -1.5584 -0.4788  0.2588
  161MOL   H16435684   2.726   8.132   3.367  0.1862  1.8261  2.1595
  161MOL   H16535685   2.313   8.198   3.249 -1.2505  0.3121  1.8453
  161MOL   H16635686   2.247   8.006   3.376  0.1782 -0.6446 -0.2364
  161MOL   C16735687   2.597   7.572   3.313 -0.9475 -0.3696 -0.4913
  161MOL   C16835688   2.524   7.688   3.339  0.3194 -0.4526 -0.2650
  161MOL   C16935689   2.504   7.734   3.470 -0.4524  0.3211 -0.5214
  161MOL   C17035690   2.572   7.664   3.576  0.0105  0.3310  0.6107
  161MOL   C17135691   2.662   7.556   3.546 -0.5817  0.2110 -0.4019
  161MOL   C17235692   2.675   7.509   3.414 -0.3589 -0.3266  0.2550
  161MOL   O17335693   2.765   7.403   3.397 -0.1048  0.0559  0.1105
  161MOL   H17435694   2.613   7.543   3.211  2.8018 -0.3099  0.0349
  161MOL   H17535695   2.480   7.737   3.253  0.5144  0.1353 -0.0303
  161MOL   H17635696   2.554   7.688   3.680 -0.0069  4.0625 -0.1873
  161MOL   H17735697   2.723   7.513   3.623 -0.3297 -3.1785 -2.3891
  161MOL   C17835698   2.560   7.090   3.367 -0.3664  0.6278  0.0995
  161MOL   C17935699   2.620   7.214   3.328 -0.2060  0.1487 -0.2417
  161MOL   C18035700   2.711   7.276   3.418 -0.2795  0.7873 -0.1363
  161MOL   C18135701   2.735   7.212   3.539 -0.4874 -0.1118  0.0955
  161MOL   C18235702   2.667   7.094   3.582  0.3973 -0.1637  0.4246
  161MOL   C18335703   2.586   7.027   3.491 -0.1597 -0.6324 -0.5114
  161MOL   O18435704   2.524   6.907   3.526  0.5078  0.0963 -0.2031
  161MOL   H18535705   2.496   7.044   3.293  1.0021 -0.7181 -0.2646
  161MOL   H18635706   2.593   7.260   3.235  0.3317  1.3520  0.1900
  161MOL   H18735707   2.803   7.264   3.604  2.0542 -1.8386 -1.0988
  161MOL   H18835708   2.680   7.056   3.682 -1.3115  2.6899  1.8042
  161MOL   C18935709   2.216   6.998   3.728 -0.2979 -0.0729  0.3544
  161MOL   C19035710   2.344   7.011   3.681 -0.1056  0.2152 -0.1287
  161MOL   C19135711   2.394   6.917   3.580  0.8196  0.1508 -0.0463
  161MOL   C19235712   2.309   6.815   3.539  0.8299 -0.0668 -0.5890
  161MOL   C19335713   2.179   6.800   3.588 -0.2600  0.5671  0.0773
  161MOL   C19435714   2.130   6.893   3.685 -0.3947  0.3090 -0.2036
  161MOL   O19535715   2.009   6.876   3.752  1.2942  0.2689  0.5039
  161MOL   H19635716   2.173   7.049   3.813 -1.0697 -0.8025  0.4083
  161MOL   H19735717   2.406   7.093   3.715  1.1899  0.4006 -2.7925
  161MOL   H19835718   2.344   6.744   3.465  1.1172 -0.8001  0.2361
  161MOL   H19935719   2.121   6.714   3.559 -0.0287 -0.5620  2.8450
  161MOL   C20035720   1.734   7.035   3.531 -0.6673 -0.1918 -0.1982
  161MOL   C20135721   1.853   7.024   3.614 -0.1387  0.0394  0.0297
  161MOL   C20235722   1.890   6.900   3.676 -0.5275 -0.4391  0.1614
  161MOL   C20335723   1.799   6.790   3.657 -0.3394 -0.1146  0.4880
  161MOL   C20435724   1.689   6.797   3.572 -0.2613 -0.1202 -0.3427
  161MOL   C20535725   1.647   6.923   3.510 -0.0354 -0.2096 -0.8840
  161MOL   O20635726   1.537   6.925   3.436  0.2591 -0.0864  0.4224
  161MOL   H20735727   1.710   7.132   3.489  1.1682  0.7391  0.8577
  161MOL   H20835728   1.922   7.106   3.624 -1.1998  0.7334  2.0030
  161MOL   H20935729   1.823   6.694   3.702 -0.7143 -0.1317  0.6545
  161MOL   H21035730   1.638   6.709   3.538 -0.7636  0.5788 -1.4410
  161MOL   C21135731   1.406   7.230   3.274 -0.1614  0.6045  0.1063
  161MOL   C21235732   1.481   7.115   3.302 -0.0337 -0.3875  0.0767
  161MOL   C21335733   1.468   7.043   3.419 -0.1868 -0.5245  0.1398
  161MOL   C21435734   1.362   7.074   3.507  0.5929 -0.1774  0.0674
  161MOL   C21535735   1.290   7.196   3.481  0.1142 -0.2040 -0.1466
  161MOL   C21635736   1.306   7.269   3.362 -0.5518  0.2651  0.1684
  161MOL   O21735737   1.232   7.384   3.336 -0.4049 -0.1568  0.5766
  161MOL   H21835738   1.434   7.269   3.177  2.5470 -2.0722 -0.2426
  161MOL   H21935739   1.559   7.085   3.233  1.5128  2.6454  0.4184
  161MOL   H22035740   1.333   7.016   3.594  0.4471 -0.0787  0.0845
  161MOL   H22135741   1.220   7.238   3.550  1.7746  2.1872  0.1429
  161MOL   H22235742   1.196   7.405   3.420  2.1708 -1.1538  1.9978
  162MOL     C135743   1.502   6.207   4.453 -0.0792  0.2531 -0.3354
  162MOL     C235744   1.491   6.217   4.311  0.0362 -0.3385 -0.0471
  162MOL     C335745   1.387   6.155   4.249 -0.2227 -0.4152 -0.1986
  162MOL     C435746   1.300   6.070   4.319  0.0254 -0.8206 -0.7737
  162MOL     C535747   1.310   6.056   4.460 -0.1701  0.2969  0.5695
  162MOL     C635748   1.406   6.128   4.526  0.0770  0.6213 -0.1365
  162MOL     O735749   1.414   6.124   4.663  0.3047 -1.2825  0.0182
  162MOL     H835750   1.579   6.257   4.510  0.1374 -2.5457  1.9327
  162MOL     H935751   1.548   6.295   4.264 -0.8998  0.0461 -0.5473
  162MOL    H1035752   1.225   6.005   4.276 -0.0070 -0.7036 -0.8948
  162MOL    H1135753   1.242   6.001   4.525  1.1433 -1.9772  0.0953
  162MOL    H1235754   1.380   6.163   4.141 -0.7243 -2.3048 -0.3374
  162MOL    C1335755   1.135   6.084   4.891 -0.0115 -0.4273  0.0060
  162MOL    C1435756   1.255   6.057   4.824 -1.1102 -0.6041 -0.6071
  162MOL    C1535757   1.304   6.152   4.734 -0.0552 -0.1892 -0.4006
  162MOL    C1635758   1.240   6.278   4.719 -1.2003  0.2218 -0.7813
  162MOL    C1735759   1.116   6.304   4.783 -0.8377 -0.0936 -0.3789
  162MOL    C1835760   1.058   6.201   4.864 -0.3247  0.8678  0.2113
  162MOL    O1935761   0.932   6.223   4.927 -0.0967  0.5464  0.2453
  162MOL    H2035762   1.089   6.011   4.956  0.3570 -0.7084 -0.0470
  162MOL    H2135763   1.303   5.961   4.830  3.9433  1.6052 -3.1611
  162MOL    H2235764   1.273   6.342   4.638 -0.9965  0.4617 -0.5101
  162MOL    H2335765   1.070   6.401   4.771 -2.1393 -0.3405  2.1671
  162MOL    C2435766   0.622   6.033   4.996 -0.2676  0.6098 -0.1253
  162MOL    C2535767   0.733   6.121   5.017  0.2751  0.2478 -0.0849
  162MOL    C2635768   0.833   6.129   4.914 -0.2860 -0.4596  0.1727
  162MOL    C2735769   0.823   6.048   4.799 -0.5441 -0.6717  0.2458
  162MOL    C2835770   0.712   5.964   4.785 -0.5386  0.0412  0.1303
  162MOL    C2935771   0.612   5.955   4.883 -0.0667 -0.7421 -0.4880
  162MOL    O3035772   0.511   5.869   4.874 -0.7560 -0.0596  0.1297
  162MOL    H3135773   0.552   6.018   5.077  0.4078  0.1116  0.3682
  162MOL    H3235774   0.739   6.178   5.108 -0.8028 -0.4438  0.4329
  162MOL    H3335775   0.897   6.052   4.721 -0.6104 -0.1830  0.2050
  162MOL    H3435776   0.701   5.905   4.695 -1.1995  1.2684 -0.6066
  162MOL    C3535777   0.175   6.020   4.865  0.4412 -0.0466 -0.9726
  162MOL    C3635778   0.313   6.001   4.852  1.0152  0.0501 -0.0221
  162MOL    C3735779   0.378   5.896   4.912 -0.2190  0.5965 -0.9060
  162MOL    C3835780   0.315   5.821   5.004 -0.2390  0.0106  0.3230
  162MOL    C3935781   0.178   5.840   5.029  0.1317 -0.1393 -0.1028
  162MOL    C4035782   0.109   5.944   4.963  0.4596 -0.5482  0.0795
  162MOL    O4135783   8.230   5.970   4.984  0.6775 -0.4721 -0.7582
  162MOL    H4235784   0.125   6.101   4.814 -0.7969 -1.2925 -1.7680
  162MOL    H4335785   0.365   6.057   4.776 -0.5458 -1.3004 -2.1488
  162MOL    H4435786   0.370   5.743   5.054 -3.0928 -1.0226  1.9598
  162MOL    H4535787   0.121   5.767   5.085  3.0302 -0.7000  2.2005
  162MOL    C4635788   7.998   5.751   4.793 -0.8106 -0.3490 -0.0226
  162MOL    C4735789   8.098   5.844   4.820 -0.0419 -0.0649 -0.6296
  162MOL    C4835790   8.146   5.867   4.951 -0.5342 -0.4810  0.4682
  162MOL    C4935791   8.112   5.773   5.050  0.3276 -0.2365 -0.4303
  162MOL    C5035792   8.029   5.665   5.016 -0.0340 -0.4120 -0.1226
  162MOL    C5135793   7.965   5.661   4.892 -0.0247 -0.4101  0.4882
  162MOL    O5235794   7.878   5.556   4.867  0.2382 -0.6199 -0.6778
  162MOL    H5335795   7.973   5.734   4.690  0.2166  1.3965 -0.5722
  162MOL    H5435796   8.137   5.902   4.737 -0.0022  0.9190  0.0705
  162MOL    H5535797   8.143   5.792   5.151  0.1825 -2.6610  0.1175
  162MOL    H5635798   8.000   5.597   5.094  0.5846 -0.4868  0.0512
  162MOL    C5735799   7.570   5.491   5.054  0.4016  0.3625  0.4903
  162MOL    C5835800   7.706   5.479   5.012  0.4669 -0.4448 -0.3494
  162MOL    C5935801   7.749   5.573   4.915 -0.9069  0.0597  0.1913
  162MOL    C6035802   7.658   5.667   4.863  0.7487 -0.5258  0.0445
  162MOL    C6135803   7.530   5.682   4.916 -0.2340 -0.0753 -0.6042
  162MOL    C6235804   7.485   5.592   5.006  0.2494  0.0504 -0.0798
  162MOL    O6335805   7.359   5.589   5.061  0.4390  0.3136 -0.1174
  162MOL    H6435806   7.535   5.417   5.123  0.7397 -1.1603 -0.9252
  162MOL    H6535807   7.767   5.394   5.039  1.2327 -0.3969 -1.9013
  162MOL    H6635808   7.687   5.731   4.781  1.7935  0.2427  0.9983
  162MOL    H6735809   7.465   5.759   4.878 -0.3876 -0.7328 -1.6998
  162MOL    C6835810   7.156   5.859   4.907  0.2454 -0.0184 -0.1411
  162MOL    C6935811   7.251   5.799   4.990 -0.0026 -0.2254  0.1565
  162MOL    C7035812   7.256   5.655   5.000 -0.0069  0.7667  0.3805
  162MOL    C7135813   7.155   5.578   4.933 -0.2114 -0.2750  0.5056
  162MOL    C7235814   7.055   5.648   4.853  0.5131 -0.0476 -0.4471
  162MOL    C7335815   7.058   5.787   4.829  0.4393  0.1092 -0.1211
  162MOL    O7435816   6.966   5.850   4.748  0.3140  0.2057  0.1693
  162MOL    H7535817   7.147   5.966   4.902 -0.8711 -0.1208 -0.5895
  162MOL    H7635818   7.312   5.861   5.053  0.4255 -1.5034  1.0097
  162MOL    H7735819   7.157   5.470   4.934 -2.6222 -0.3732 -0.6920
  162MOL    H7835820   6.981   5.595   4.796  0.4923  0.1191 -0.5734
  162MOL    C7935821   6.774   6.124   4.877  0.1449  0.3302 -0.8091
  162MOL    C8035822   6.876   6.054   4.814  0.0604  0.1051 -0.6027
  162MOL    C8135823   6.872   5.916   4.820  0.1825  0.0186  0.8598
  162MOL    C8235824   6.770   5.847   4.888  0.6733 -0.4410  0.2591
  162MOL    C8335825   6.663   5.914   4.949 -0.2249 -0.7825  0.2914
  162MOL    C8435826   6.671   6.056   4.950  0.1910 -0.3730 -0.2481
  162MOL    O8535827   6.577   6.130   5.010 -0.0923  0.1714  0.3387
  162MOL    H8635828   6.759   6.230   4.864 -1.5663  0.3976  1.3501
  162MOL    H8735829   6.957   6.094   4.755 -0.8850 -0.2989 -2.2102
  162MOL    H8835830   6.773   5.739   4.893 -0.7388 -0.6512 -2.7274
  162MOL    H8935831   6.592   5.861   5.011 -1.0363  1.0350  0.9600
  162MOL    C9035832   6.303   6.355   4.917  0.0825  0.0688 -0.0697
  162MOL    C9135833   6.410   6.300   4.989  1.2302 -0.1234  0.6312
  162MOL    C9235834   6.475   6.186   4.939  0.7198  0.3196  0.1097
  162MOL    C9335835   6.433   6.131   4.818  0.3856 -0.6208  0.2366
  162MOL    C9435836   6.331   6.187   4.748 -0.2557  0.3683  0.0914
  162MOL    C9535837   6.260   6.299   4.792  0.3113  0.0438 -0.1080
  162MOL    O9635838   6.150   6.353   4.725  0.0571 -0.2773  0.5584
  162MOL    H9735839   6.256   6.445   4.955 -0.6670 -0.5491  0.4859
  162MOL    H9835840   6.445   6.345   5.080 -0.1455  1.3860  0.4317
  162MOL    H9935841   6.474   6.044   4.769 -0.9637  0.8653 -3.7005
  162MOL   H10035842   6.299   6.142   4.655  1.3056  2.0058 -1.2898
  162MOL   C10135843   5.807   6.247   4.792  0.5795 -0.6399  0.2126
  162MOL   C10235844   5.932   6.311   4.808  0.2926  0.4943  0.4422
  162MOL   C10335845   6.033   6.286   4.716 -0.1442 -0.0091  0.3260
  162MOL   C10435846   6.021   6.189   4.612 -0.1152  0.4731 -0.3496
  162MOL   C10535847   5.901   6.114   4.605 -0.3831 -0.0785  0.0369
  162MOL   C10635848   5.791   6.145   4.688 -0.5428  0.0922 -0.2241
  162MOL   O10735849   5.676   6.078   4.675 -0.0170  0.2043 -0.2062
  162MOL   H10835850   5.720   6.278   4.848  0.9495 -1.3610  1.1974
  162MOL   H10935851   5.937   6.391   4.881 -0.2925  1.9425 -1.0526
  162MOL   H11035852   6.098   6.180   4.536 -0.1450 -0.3735 -0.2795
  162MOL   H11135853   5.890   6.043   4.525  0.8058 -0.1599 -0.0625
  162MOL   C11235854   5.700   5.704   4.684 -0.4270  0.4535 -0.5438
  162MOL   C11335855   5.715   5.838   4.723 -1.0848  0.6189  0.1606
  162MOL   C11435856   5.672   5.946   4.638  0.8222  0.2291  0.1117
  162MOL   C11535857   5.616   5.911   4.516 -0.2057  0.1030 -0.3703
  162MOL   C11635858   5.596   5.780   4.475 -0.0552  0.0739  0.0298
  162MOL   C11735859   5.631   5.675   4.562 -0.1364  0.4493 -0.2409
  162MOL   O11835860   5.595   5.549   4.523  0.0357 -0.1389  0.2774
  162MOL   H11935861   5.741   5.619   4.737 -1.7053  0.0289 -0.2203
  162MOL   H12035862   5.776   5.863   4.809 -1.6610 -0.0516  0.7709
  162MOL   H12135863   5.582   5.989   4.449 -0.6465 -0.8768 -1.3068
  162MOL   H12235864   5.545   5.757   4.382 -1.1208 -0.7630  0.8032
  162MOL   C12335865   5.780   5.261   4.672 -0.7198 -0.1125 -0.2302
  162MOL   C12435866   5.690   5.366   4.657 -0.6645 -0.2222  0.6681
  162MOL   C12535867   5.686   5.446   4.541 -0.2141 -0.0328 -0.3477
  162MOL   C12635868   5.786   5.419   4.443 -0.6292 -0.0925  0.7983
  162MOL   C12735869   5.874   5.310   4.448 -0.2533 -0.2163  0.0525
  162MOL   C12835870   5.872   5.239   4.568 -0.2063  0.4878 -0.5656
  162MOL   O12935871   5.970   5.144   4.591 -0.0105  0.5003 -0.1495
  162MOL   H13035872   5.794   5.203   4.762  0.7416  0.4822 -0.0633
  162MOL   H13135873   5.625   5.382   4.742  0.0842  1.3091  0.9649
  162MOL   H13235874   5.783   5.483   4.356  1.5287  0.4446  1.0887
  162MOL   H13335875   5.957   5.294   4.382 -0.9563 -1.7530 -0.4938
  162MOL   C13435876   5.987   4.792   4.705  0.7647  0.6982  0.4510
  162MOL   C13535877   6.008   4.930   4.692 -0.2045 -0.5662 -0.1585
  162MOL   C13635878   5.934   5.013   4.602  0.4584 -0.1380 -0.5587
  162MOL   C13735879   5.824   4.959   4.535  0.4156  0.0949 -0.4411
  162MOL   C13835880   5.793   4.822   4.546  0.3434  0.3853  1.2862
  162MOL   C13935881   5.873   4.736   4.633 -0.1111  0.1648  0.9648
  162MOL   O14035882   5.846   4.601   4.633 -0.0560 -0.0222  0.3351
  162MOL   H14135883   6.051   4.723   4.759 -1.1099 -2.2875 -0.9996
  162MOL   H14235884   6.085   4.977   4.753  2.2982 -1.0770 -2.7974
  162MOL   H14335885   5.765   5.022   4.470  0.2521  0.6802  0.2751
  162MOL   H14435886   5.705   4.776   4.503  1.4583 -0.7175  0.1441
  162MOL   C14535887   6.000   4.274   4.520  0.4675  0.0358  0.2173
  162MOL   C14635888   5.951   4.382   4.605 -0.3068 -0.0208 -0.1037
  162MOL   C14735889   5.911   4.507   4.553  0.0969  0.5487  0.0165
  162MOL   C14835890   5.917   4.533   4.412  0.2003 -0.2211  0.4361
  162MOL   C14935891   5.959   4.430   4.326 -0.9931  0.0359  0.0803
  162MOL   C15035892   5.999   4.302   4.379 -0.0040 -0.0490  0.0717
  162MOL   O15135893   6.041   4.206   4.293  0.6318  0.0259 -0.3194
  162MOL   H15235894   6.026   4.172   4.547 -1.8441 -0.3269  1.1996
  162MOL   H15335895   5.932   4.357   4.708 -0.4897 -1.4734 -0.4730
  162MOL   H15435896   5.884   4.630   4.377  1.8820  1.5860  3.5751
  162MOL   H15535897   5.955   4.439   4.219 -3.6825 -1.0236  0.0307
  162MOL   C15635898   6.403   4.230   4.349 -0.7311 -0.4818  0.3322
  162MOL   C15735899   6.273   4.268   4.318  0.0420  0.1350  0.2800
  162MOL   C15835900   6.173   4.172   4.315 -0.2755  1.1257 -0.2333
  162MOL   C15935901   6.200   4.039   4.336 -0.1769  0.6136  0.1215
  162MOL   C16035902   6.326   3.996   4.369 -0.1753 -0.2172 -0.6661
  162MOL   C16135903   6.430   4.091   4.375 -0.0868  0.4045  0.2711
  162MOL   O16235904   6.556   4.054   4.422 -0.1747 -0.2065  0.1580
  162MOL   H16335905   6.473   4.312   4.353 -1.5308  0.2765 -1.0895
  162MOL   H16435906   6.259   4.375   4.308 -0.4049  0.0398 -0.1143
  162MOL   H16535907   6.122   3.965   4.346  0.1561  0.0753 -1.1747
  162MOL   H16635908   6.345   3.893   4.394 -1.7946  0.3815  3.3726
  162MOL   C16735909   6.817   4.134   4.177  0.2200  0.3482  0.3006
  162MOL   C16835910   6.702   4.084   4.242 -1.1757 -0.0987 -0.4026
  162MOL   C16935911   6.669   4.115   4.371 -0.7356  0.0002 -0.0662
  162MOL   C17035912   6.761   4.199   4.442 -0.0948 -0.4971  0.3044
  162MOL   C17135913   6.865   4.262   4.371 -0.3590  0.0333 -0.0813
  162MOL   C17235914   6.899   4.223   4.243 -0.6145 -0.0667 -0.3762
  162MOL   O17335915   7.017   4.277   4.181 -0.1143 -0.1280  0.3029
  162MOL   H17435916   6.842   4.108   4.075  3.2063  1.0551  0.8119
  162MOL   H17535917   6.638   4.015   4.191 -1.4301  0.3233 -0.6601
  162MOL   H17635918   6.753   4.234   4.543 -1.4831 -0.2748  0.1193
  162MOL   H17735919   6.932   4.331   4.420  0.1904  0.3119 -1.2225
  162MOL   C17835920   7.354   4.284   4.341 -0.4819 -0.2587  0.3973
  162MOL   C17935921   7.227   4.321   4.301 -0.6882 -0.6263 -0.3060
  162MOL   C18035922   7.142   4.233   4.225  0.4075  0.6369  0.2645
  162MOL   C18135923   7.186   4.103   4.218  0.1978  0.2447 -0.3268
  162MOL   C18235924   7.309   4.060   4.265 -0.2116  0.3505  0.1335
  162MOL   C18335925   7.398   4.151   4.322 -0.3411 -0.2745 -0.3281
  162MOL   O18435926   7.519   4.117   4.364  0.6143 -0.1837  0.4095
  162MOL   H18535927   7.422   4.362   4.371  0.1713 -0.7504  0.2030
  162MOL   H18635928   7.199   4.425   4.306  0.2537 -0.3168 -1.4029
  162MOL   H18735929   7.134   4.024   4.165  0.7545 -1.2439  1.3276
  162MOL   H18835930   7.333   3.955   4.264 -2.2173 -0.1567  1.4898
  162MOL   C18935931   7.721   4.273   4.085 -0.2191  0.1637 -0.6219
  162MOL   C19035932   7.614   4.209   4.149 -0.1460 -0.0409 -0.3597
  162MOL   C19135933   7.624   4.164   4.283 -0.7980  0.2756 -0.3692
  162MOL   C19235934   7.753   4.172   4.343  0.3677 -0.2626  0.0160
  162MOL   C19335935   7.864   4.233   4.276  0.2566 -0.2110  0.9780
  162MOL   C19435936   7.846   4.284   4.146 -0.3967 -0.0475  0.4275
  162MOL   O19535937   7.953   4.354   4.091 -0.1622 -0.3398  0.1920
  162MOL   H19635938   7.717   4.318   3.987  0.3617  1.8431  0.1223
  162MOL   H19735939   7.516   4.218   4.105 -0.7675  0.0185  0.9812
  162MOL   H19835940   7.759   4.148   4.448 -1.0674 -1.2809 -0.1235
  162MOL   H19935941   7.964   4.235   4.315  0.8510 -0.8053 -0.4993
  162MOL   C20035942   7.943   4.687   3.927  0.8750 -0.5930 -0.1098
  162MOL   C20135943   7.958   4.552   3.948  0.2475 -0.1257  0.4853
  162MOL   C20235944   7.937   4.490   4.073  0.1196  0.5218  0.3640
  162MOL   C20335945   7.887   4.567   4.175 -0.1578 -0.8890  0.6260
  162MOL   C20435946   7.873   4.705   4.160  0.2162  0.1514  1.0095
  162MOL   C20535947   7.900   4.768   4.036 -0.5175  0.5920  0.3869
  162MOL   O20635948   7.890   4.900   4.022  0.0924 -0.2214  0.0858
  162MOL   H20735949   7.970   4.727   3.831 -2.0856  0.0188 -0.7405
  162MOL   H20835950   7.981   4.500   3.856 -1.8232 -1.3025  0.6108
  162MOL   H20935951   7.869   4.514   4.267  0.4403 -0.9580  0.7033
  162MOL   H21035952   7.858   4.765   4.248 -1.8551  1.8670 -0.4628
  162MOL   C21135953   7.716   5.118   4.271  0.8327  0.1067 -0.7161
  162MOL   C21235954   7.815   5.048   4.204  0.4249 -0.3239  0.0676
  162MOL   C21335955   7.789   4.976   4.087  0.4687 -0.1294  0.5585
  162MOL   C21435956   7.660   4.981   4.038  0.4272 -0.1210  0.1409
  162MOL   C21535957   7.560   5.045   4.110  0.6293  0.0075 -0.7055
  162MOL   C21635958   7.585   5.123   4.217 -1.2457  0.4179 -0.4132
  162MOL   O21735959   7.487   5.195   4.281 -0.9580  0.4833  0.3975
  162MOL   H21835960   7.737   5.172   4.362 -1.2501 -0.4248  0.1037
  162MOL   H21935961   7.917   5.046   4.242  0.1035 -2.4159  0.9127
  162MOL   H22035962   7.633   4.924   3.949 -0.7165  1.8365 -0.7909
  162MOL   H22135963   7.460   5.035   4.069  1.3897 -0.5046 -2.4795
  162MOL   H22235964   7.514   5.227   4.365 -2.3191 -2.7223  2.1120
  163MOL     C135965   5.242   3.657   1.017 -0.5371  0.6891 -0.2051
  163MOL     C235966   5.124   3.575   1.011 -1.0083 -0.3985  0.4428
  163MOL     C335967   5.032   3.581   1.119  0.3181 -0.5775  0.9700
  163MOL     C435968   5.062   3.664   1.225 -0.0934 -0.0862  0.4802
  163MOL     C535969   5.168   3.751   1.227  0.0104 -0.6237 -0.3534
  163MOL     C635970   5.264   3.740   1.127 -0.7121  0.0963  0.0326
  163MOL     O735971   5.389   3.803   1.144 -0.3546 -0.1017  0.1882
  163MOL     H835972   5.316   3.648   0.939  1.0348  3.4118  0.9360
  163MOL     H935973   5.104   3.511   0.926 -1.6778 -0.1480  0.4055
  163MOL    H1035974   4.989   3.672   1.305 -2.6600  0.3992 -1.8544
  163MOL    H1135975   5.180   3.823   1.307  0.1052  0.6948 -1.5354
  163MOL    H1235976   4.942   3.521   1.128 -0.7429  1.0583  1.4866
  163MOL    C1335977   5.563   3.904   0.825 -0.5978  0.0836 -0.0282
  163MOL    C1435978   5.507   3.824   0.928 -0.0351  0.4058 -0.0290
  163MOL    C1535979   5.438   3.877   1.036 -0.1687 -0.3204 -0.0835
  163MOL    C1635980   5.401   4.014   1.032  0.1238 -0.0978  0.1074
  163MOL    C1735981   5.453   4.099   0.928  0.3218 -0.1816  0.3440
  163MOL    C1835982   5.536   4.040   0.830 -0.5347 -0.9932 -0.4784
  163MOL    O1935983   5.584   4.131   0.737 -0.1658 -0.3503 -0.4134
  163MOL    H2035984   5.629   3.862   0.750  0.9212 -1.7886  2.2729
  163MOL    H2135985   5.524   3.717   0.927 -1.7788  0.0968  1.3980
  163MOL    H2235986   5.338   4.055   1.110  0.3314 -2.7128  1.6960
  163MOL    H2335987   5.432   4.204   0.922  2.7569  0.2641 -1.3284
  163MOL    C2435988   5.358   4.182   0.450 -0.1703 -0.1331 -0.3467
  163MOL    C2535989   5.413   4.188   0.577  0.4193 -0.4556 -0.1342
  163MOL    C2635990   5.531   4.123   0.610 -0.3144  0.4214 -0.4266
  163MOL    C2735991   5.605   4.054   0.510  0.1952 -0.1016 -0.0822
  163MOL    C2835992   5.550   4.048   0.381 -0.1111 -0.1368 -0.0731
  163MOL    C2935993   5.424   4.106   0.355  0.4354 -0.3101 -0.1223
  163MOL    O3035994   5.365   4.089   0.232 -0.1340 -0.2078  0.2505
  163MOL    H3135995   5.268   4.238   0.434 -0.6974 -1.4019 -1.9824
  163MOL    H3235996   5.358   4.239   0.654  0.0654  1.7297 -1.7926
  163MOL    H3335997   5.697   4.011   0.545  0.6692 -0.8902 -2.2500
  163MOL    H3435998   5.594   3.982   0.308  1.6601  2.3592 -1.3589
  163MOL    C3535999   5.615   4.094   8.217  0.5524  0.3948  0.8486
  163MOL    C3636000   5.545   4.130   0.082 -0.2474 -0.6113 -0.2849
  163MOL    C3736001   5.426   4.064   0.115 -0.0375 -0.1379  0.6004
  163MOL    C3836002   5.367   3.973   0.029  0.1567 -0.0010  0.5015
  163MOL    C3936003   5.425   3.954   8.158 -0.0313  0.2458  0.8946
  163MOL    C4036004   5.550   4.014   8.125  1.0172  0.0704  0.0187
  163MOL    O4136005   5.611   3.995   8.010 -0.0824 -0.1440 -0.1013
  163MOL    H4236006   5.711   4.136   8.189  1.5847 -2.0805  0.5170
  163MOL    H4336007   5.584   4.210   0.144 -1.3791 -1.1512  1.1402
  163MOL    H4436008   5.271   3.927   0.045  0.1153 -0.7045 -1.5867
  163MOL    H4536009   5.371   3.891   8.090  1.2446  0.4125 -0.2991
  163MOL    C4636010   5.623   3.718   7.769  0.0566 -0.9511  0.1766
  163MOL    C4736011   5.597   3.848   7.829 -0.4230  0.1427  0.4522
  163MOL    C4836012   5.633   3.869   7.961  0.1208 -0.1857 -0.0679
  163MOL    C4936013   5.695   3.766   8.035 -0.2775  0.0055 -0.0240
  163MOL    C5036014   5.720   3.639   7.981 -0.3666 -0.5663  0.5679
  163MOL    C5136015   5.674   3.612   7.842 -0.3400  0.4458  0.3459
  163MOL    O5236016   5.668   3.491   7.777  0.6140  0.5348  0.1358
  163MOL    H5336017   5.597   3.701   7.665 -2.7763 -0.9005  0.8277
  163MOL    H5436018   5.563   3.933   7.772  1.8770  1.2462  0.6780
  163MOL    H5536019   5.726   3.787   8.136  1.2746 -1.2844 -0.2046
  163MOL    H5636020   5.769   3.573   8.050 -2.0889 -1.8111  0.6343
  163MOL    C5736021   5.977   3.331   7.679 -0.0942 -0.1734 -0.1179
  163MOL    C5836022   5.871   3.426   7.679  0.4460 -0.0308 -0.4452
  163MOL    C5936023   5.778   3.418   7.783 -0.0913 -0.3747  0.1359
  163MOL    C6036024   5.792   3.321   7.886  0.2483  0.3755  0.5753
  163MOL    C6136025   5.893   3.226   7.884 -0.9622 -0.7898 -0.1717
  163MOL    C6236026   5.992   3.231   7.782  1.5013 -0.0847  0.6977
  163MOL    O6336027   6.101   3.142   7.769  0.3756 -0.0258  0.0247
  163MOL    H6436028   6.056   3.341   7.607 -0.4505 -0.2879 -0.5226
  163MOL    H6536029   5.863   3.512   7.615 -2.0563  0.1086  0.0129
  163MOL    H6636030   5.720   3.320   7.967 -0.7905 -1.5456 -0.3640
  163MOL    H6736031   5.906   3.140   7.948 -1.6009 -0.7325  0.0431
  163MOL    C6836032   6.324   3.194   8.055  0.3499  0.7658  0.0004
  163MOL    C6936033   6.229   3.224   7.958 -0.6194 -0.2163  0.6169
  163MOL    C7036034   6.183   3.121   7.872 -0.4847  0.6596 -0.0991
  163MOL    C7136035   6.242   2.990   7.884  0.0619 -0.1655  0.0401
  163MOL    C7236036   6.338   2.964   7.980  0.7529  0.2553 -0.1066
  163MOL    C7336037   6.382   3.063   8.066 -0.3530 -0.2813  0.2575
  163MOL    O7436038   6.478   3.032   8.153 -0.4566 -0.3353 -0.4188
  163MOL    H7536039   6.362   3.280   8.109  2.1556 -1.4470  2.3836
  163MOL    H7636040   6.185   3.320   7.936 -1.2355 -0.2387  1.7214
  163MOL    H7736041   6.226   2.913   7.810  0.9273 -2.7758  2.5247
  163MOL    H7836042   6.380   2.865   7.990  0.6299  0.2388  0.2311
  163MOL    C7936043   6.809   2.907   8.035 -0.0477  0.1714 -0.4103
  163MOL    C8036044   6.679   2.907   8.091 -0.6708 -0.4345  0.4079
  163MOL    C8136045   6.609   3.026   8.114  0.4152 -1.0191 -0.8220
  163MOL    C8236046   6.679   3.154   8.096 -0.5710 -0.1121  0.1611
  163MOL    C8336047   6.806   3.148   8.036 -0.2092 -0.3686  0.2242
  163MOL    C8436048   6.879   3.030   8.011 -0.6188  0.4199  0.0753
  163MOL    O8536049   7.008   3.039   7.961 -0.5368  0.0059  0.7307
  163MOL    H8636050   6.857   2.815   8.006  0.9696  0.4777  0.2881
  163MOL    H8736051   6.633   2.812   8.117 -2.5172  0.5273  0.7518
  163MOL    H8836052   6.632   3.250   8.116  2.0628  0.8743  1.8315
  163MOL    H8936053   6.872   3.233   8.028 -0.5173 -0.2588 -1.2172
  163MOL    C9036054   7.239   3.061   8.251  0.6265 -0.6363  0.0124
  163MOL    C9136055   7.140   3.011   8.166  0.0283 -0.5364 -0.0635
  163MOL    C9236056   7.106   3.077   8.045  0.2247  0.0668  0.7124
  163MOL    C9336057   7.164   3.203   8.020 -0.3323 -0.0931 -0.2125
  163MOL    C9436058   7.271   3.252   8.099  0.4786 -0.0292 -0.1642
  163MOL    C9536059   7.305   3.182   8.219 -0.1884  0.6269 -0.2441
  163MOL    O9636060   7.396   3.228   0.059  0.0988  0.1991  0.6769
  163MOL    H9736061   7.264   3.023   0.095 -1.7720  0.5695  1.1193
  163MOL    H9836062   7.097   2.918   8.202 -1.3881  0.1463  0.0340
  163MOL    H9936063   7.136   3.263   7.934 -0.0234 -1.7911 -1.5096
  163MOL   H10036064   7.311   3.351   8.081 -0.2973  0.3573  0.1828
  163MOL   C10136065   7.722   3.150   0.188 -0.3498  0.2053  0.3092
  163MOL   C10236066   7.586   3.187   0.180 -0.5123 -1.0580  0.3256
  163MOL   C10336067   7.525   3.186   0.051 -0.6001  0.2072 -0.6045
  163MOL   C10436068   7.586   3.137   8.190 -0.6188  0.0373 -0.1624
  163MOL   C10536069   7.723   3.090   8.205 -0.1584  0.2580 -0.1858
  163MOL   C10636070   7.791   3.100   0.074 -0.0467  0.9584 -1.0281
  163MOL   O10736071   7.921   3.048   0.081 -0.6563 -0.0210  0.1056
  163MOL   H10836072   7.777   3.161   0.281  0.2301  1.3560 -0.1627
  163MOL   H10936073   7.527   3.214   0.267 -0.6645 -1.6263  0.4048
  163MOL   H11036074   7.539   3.126   8.093  1.0384  1.0899 -1.1192
  163MOL   H11136075   7.783   3.037   8.133 -0.7227 -0.2944 -0.2537
  163MOL   C11236076   7.922   2.764   0.316 -0.1633 -0.0425 -0.4565
  163MOL   C11336077   7.876   2.856   0.228  0.3234  0.2371 -0.7798
  163MOL   C11436078   7.957   2.965   0.181 -0.0716  0.2007  0.3872
  163MOL   C11536079   8.089   2.977   0.232  0.2746 -0.5579  0.1245
  163MOL   C11636080   8.128   2.892   0.339 -0.4584 -0.2811  0.0632
  163MOL   C11736081   8.053   2.778   0.365 -0.1234 -0.4935  0.3828
  163MOL   O11836082   8.094   2.687   0.466  0.0721  0.1712  0.0859
  163MOL   H11936083   7.870   2.675   0.347  0.5429 -1.3175 -2.8316
  163MOL   H12036084   7.778   2.848   0.185  1.2347 -1.7075 -2.5897
  163MOL   H12136085   8.162   3.052   0.204 -0.4560  0.2595  0.3634
  163MOL   H12236086   8.229   2.890   0.377 -0.3770  0.8845 -0.0857
  163MOL   C12336087   8.015   2.335   0.521  1.1172  0.0301 -0.8160
  163MOL   C12436088   8.011   2.475   0.541 -0.3872 -0.8430  0.0702
  163MOL   C12536089   8.086   2.552   0.450 -0.0044 -0.0868 -0.3943
  163MOL   C12636090   8.171   2.485   0.354  0.7284  0.1441  0.2955
  163MOL   C12736091   8.175   2.349   0.336 -0.1956 -0.6410  0.2670
  163MOL   C12836092   8.090   2.270   0.417 -0.1394 -0.6526  0.5404
  163MOL   O12936093   8.084   2.133   0.405 -0.3354 -0.3096 -0.0468
  163MOL   H13036094   7.958   2.274   0.590  1.1356 -0.5102 -1.2729
  163MOL   H13136095   7.972   2.530   0.626  0.9872  0.6291 -0.2169
  163MOL   H13236096   8.225   2.553   0.290  1.8211  0.8720  1.9505
  163MOL   H13336097   8.236   2.301   0.261  0.6447  0.3342  0.3086
  163MOL   C13436098   0.148   1.985   0.530  0.4346  1.0653 -0.0169
  163MOL   C13536099   0.018   2.045   0.529  0.1121  0.4676 -0.4214
  163MOL   C13636100   8.198   2.056   0.411 -0.0059 -0.0261 -0.1763
  163MOL   C13736101   8.236   1.998   0.290 -0.1537  0.3015 -0.6473
  163MOL   C13836102   0.113   1.935   0.291  0.2181 -0.6486 -0.1772
  163MOL   C13936103   0.194   1.928   0.407 -0.4723  0.0383  0.8385
  163MOL   O14036104   0.320   1.870   0.402  0.5252 -0.3143  0.4298
  163MOL   H14136105   0.196   1.978   0.626  1.1630  1.7241 -0.3257
  163MOL   H14236106   8.226   2.083   0.619 -3.0378 -2.5345 -0.6439
  163MOL   H14336107   8.178   2.010   0.200 -1.6756 -1.5585  0.0591
  163MOL   H14436108   0.149   1.883   0.203 -2.0329 -2.4637 -0.0676
  163MOL   C14536109   0.370   1.574   0.192  0.0935 -0.2427  0.2461
  163MOL   C14636110   0.369   1.711   0.240 -0.2031  0.6877  0.0696
  163MOL   C14736111   0.328   1.740   0.371 -0.1159 -0.0686 -1.3811
  163MOL   C14836112   0.292   1.632   0.460 -0.2907 -0.3197 -0.1909
  163MOL   C14936113   0.285   1.499   0.410  0.2702 -0.7388  0.6609
  163MOL   C15036114   0.323   1.472   0.276 -0.9577  0.0718 -0.3053
  163MOL   O15136115   0.289   1.351   0.224  0.4771  0.1421 -0.3919
  163MOL   H15236116   0.404   1.565   0.090  0.2157  1.7634  0.0778
  163MOL   H15336117   0.392   1.790   0.170  1.7118 -0.1698 -0.3215
  163MOL   H15436118   0.238   1.643   0.553  1.5744 -1.2502  1.0355
  163MOL   H15536119   0.237   1.423   0.469 -1.4705  0.3845  0.7365
  163MOL   C15636120   0.410   1.233   8.151  0.0515  0.6417 -0.1501
  163MOL   C15736121   0.323   1.263   8.253 -0.5432  0.3977 -0.0725
  163MOL   C15836122   0.373   1.288   0.128 -0.0333 -0.4133 -0.6706
  163MOL   C15936123   0.512   1.272   0.151  0.0298  0.2781  0.4563
  163MOL   C16036124   0.601   1.251   0.043  0.3719 -0.7440  0.0651
  163MOL   C16136125   0.550   1.225   8.168  0.1803 -0.0463 -0.1819
  163MOL   O16236126   0.627   1.209   8.061 -0.4426  0.7240  0.4323
  163MOL   H16336127   0.367   1.218   8.054  1.2061  0.3530 -0.6267
  163MOL   H16436128   0.216   1.264   8.242 -0.5665  0.9938  0.2093
  163MOL   H16536129   0.561   1.281   0.247  1.4723  0.2249 -0.2524
  163MOL   H16636130   0.709   1.244   0.048  0.4482  0.0429 -0.4678
  163MOL   C16736131   0.720   0.858   7.996  0.9948  0.2862  1.0372
  163MOL   C16836132   0.642   0.976   8.004  0.8448  0.3762 -0.4057
  163MOL   C16936133   0.700   1.096   8.059  0.2179  0.7841 -0.4101
  163MOL   C17036134   0.834   1.095   8.097 -1.1819  0.6947  0.0002
  163MOL   C17136135   0.906   0.972   8.101 -0.1045  0.2979  0.2122
  163MOL   C17236136   0.851   0.853   8.046  0.6461 -0.1844  0.0346
  163MOL   O17336137   0.928   0.735   8.048  0.2485 -0.0017  0.5366
  163MOL   H17436138   0.678   0.767   7.956  0.1414  1.3205 -0.4724
  163MOL   H17536139   0.541   0.969   7.968  1.4410 -0.8076 -1.8934
  163MOL   H17636140   0.893   1.180   8.127  1.6068 -1.5467  1.1675
  163MOL   H17736141   1.011   0.967   8.128 -0.1982  0.4955  0.6223
  163MOL   C17836142   0.866   0.421   7.866 -0.2307 -0.7860 -0.4430
  163MOL   C17936143   0.904   0.556   7.900 -0.0785  0.4058 -0.9816
  163MOL   C18036144   0.868   0.615   8.021 -0.2544  1.0062  0.0361
  163MOL   C18136145   0.771   0.549   8.106 -0.0862  0.3689 -0.0617
  163MOL   C18236146   0.721   0.421   8.063  0.5521 -0.1369 -0.0528
  163MOL   C18336147   0.774   0.357   7.948  0.0548  0.2369  0.4911
  163MOL   O18436148   0.735   0.229   7.923  0.4519 -0.6458  0.0104
  163MOL   H18536149   0.907   0.379   7.775  1.7811 -1.2310  0.6531
  163MOL   H18636150   0.986   0.602   7.847  1.2035  0.3011  0.8498
  163MOL   H18736151   0.741   0.595   8.199 -0.8487 -0.3382  0.0495
  163MOL   H18836152   0.642   0.373   8.118  1.4808 -1.8310 -0.1755
  163MOL   C18936153   1.014   0.025   8.055 -0.5739  0.6456  0.4497
  163MOL   C19036154   0.940   0.138   8.010 -0.1771 -0.0956  0.0129
  163MOL   C19136155   0.813   0.121   7.961  0.0598 -0.0792  0.1674
  163MOL   C19236156   0.759   8.249   7.929  0.0135 -0.2441  0.0179
  163MOL   C19336157   0.841   8.139   7.960  0.2481 -0.0182  0.0058
  163MOL   C19436158   0.962   8.152   8.021  0.3359  0.3293  0.0860
  163MOL   O19536159   1.045   8.043   8.035 -0.2406  0.5692 -0.3925
  163MOL   H19636160   1.114   0.018   8.093 -1.1060 -5.2035  1.1346
  163MOL   H19736161   0.971   0.239   8.030  1.9512 -1.1612  2.2756
  163MOL   H19836162   0.660   8.244   7.887  0.3749  3.0745 -1.3766
  163MOL   H19936163   0.803   8.039   7.944  2.2375 -1.2378  2.5903
  163MOL   C20036164   1.320   8.021   7.783 -0.2356  0.5437  0.3290
  163MOL   C20136165   1.252   8.055   7.907  0.4132 -1.0557 -0.0121
  163MOL   C20236166   1.118   8.012   7.920  0.4089  0.3300 -0.2934
  163MOL   C20336167   1.056   7.933   7.820 -0.0484 -0.1665  0.6321
  163MOL   C20436168   1.128   7.900   7.702  0.0187 -0.4560  0.2206
  163MOL   C20536169   1.256   7.945   7.681  0.4267  0.6538  0.4562
  163MOL   O20636170   1.336   7.896   7.582 -0.4615  0.0195 -0.1691
  163MOL   H20736171   1.427   8.038   7.781 -0.1878  0.2835  0.5679
  163MOL   H20836172   1.304   8.104   7.987 -1.4856  0.6076  0.2482
  163MOL   H20936173   0.956   7.896   7.831  0.3155 -1.0470  1.0267
  163MOL   H21036174   1.082   7.838   7.626 -1.2765 -0.0871  0.6849
  163MOL   C21136175   1.265   8.096   7.281 -0.3208  0.0508  0.3223
  163MOL   C21236176   1.331   8.055   7.401  0.0036 -0.5944 -0.1271
  163MOL   C21336177   1.294   7.933   7.458 -0.4897 -0.1746 -0.0164
  163MOL   C21436178   1.216   7.842   7.384 -0.3632 -0.1692  0.1754
  163MOL   C21536179   1.151   7.885   7.267 -0.3834 -0.1867  0.1217
  163MOL   C21636180   1.176   8.014   7.217 -0.0515 -0.2224 -0.4113
  163MOL   O21736181   1.107   8.053   7.110  0.5681  0.3014 -0.5184
  163MOL   H21836182   1.290   8.188   7.230 -2.3711  0.1211 -0.6039
  163MOL   H21936183   1.390   8.122   7.462 -1.6837 -0.0859  0.9776
  163MOL   H22036184   1.204   7.740   7.418 -1.0026  0.1988  1.0785
  163MOL   H22136185   1.087   7.821   7.208  0.7726 -0.8453 -0.4414
  163MOL   H22236186   1.075   7.976   7.065 -0.2761 -0.6193  1.5851
  164MOL     C136187   2.608   5.696   7.990 -0.3473 -0.0847  0.4994
  164MOL     C236188   2.501   5.604   8.011  0.4629  0.1229 -0.3500
  164MOL     C336189   2.498   5.532   8.130 -0.9943 -0.6357  0.4959
  164MOL     C436190   2.598   5.552   8.218  0.1401  0.3712 -0.0971
  164MOL     C536191   2.693   5.654   8.204  0.0376 -0.9691 -1.1031
  164MOL     C636192   2.711   5.713   8.082 -0.3179 -0.0578  0.1986
  164MOL     O736193   2.826   5.787   8.059  0.1326  0.0956  0.2469
  164MOL     H836194   2.631   5.738   7.894 -1.6606 -2.4442 -0.8812
  164MOL     H936195   2.439   5.582   7.926 -1.4170 -0.9966  1.2548
  164MOL    H1036196   2.600   5.507   0.062  0.7284  3.9512  1.6503
  164MOL    H1136197   2.772   5.665   0.023 -1.2320  2.0431 -0.1200
  164MOL    H1236198   2.423   5.460   8.158 -0.1694 -1.7609 -0.1351
  164MOL    C1336199   3.106   5.567   7.982  0.0573  0.2882  0.6259
  164MOL    C1436200   2.984   5.624   7.977 -0.2542  0.1259  0.8948
  164MOL    C1536201   2.949   5.731   8.057 -0.7007  0.2127  0.0076
  164MOL    C1636202   3.048   5.782   8.140 -0.3497  0.6089 -0.1574
  164MOL    C1736203   3.183   5.731   8.146 -0.5952 -0.0178 -0.2518
  164MOL    C1836204   3.206   5.625   8.058  0.0861 -0.2274  0.5759
  164MOL    O1936205   3.329   5.576   8.058 -0.4145  0.2408  0.1092
  164MOL    H2036206   3.131   5.486   7.914  0.2860  1.1286 -0.3041
  164MOL    H2136207   2.909   5.584   7.910  1.3985 -0.1091 -0.8698
  164MOL    H2236208   3.014   5.863   8.203 -5.1644 -0.0028 -1.7516
  164MOL    H2336209   3.265   5.768   8.206 -0.9542  1.5951 -0.7241
  164MOL    C2436210   3.464   5.722   7.744 -0.2561 -0.8200 -0.4431
  164MOL    C2536211   3.377   5.699   7.857  0.1126 -0.6698 -0.3150
  164MOL    C2636212   3.399   5.593   7.942 -0.5002  0.4065 -0.5534
  164MOL    C2736213   3.513   5.514   7.919  1.1407 -0.1530  0.4046
  164MOL    C2836214   3.600   5.535   7.810 -0.4123 -0.1210 -0.1465
  164MOL    C2936215   3.575   5.640   7.723  0.0903  0.0769 -0.2359
  164MOL    O3036216   3.651   5.664   7.614  0.1729  0.4792  0.3721
  164MOL    H3136217   3.427   5.799   7.678  1.0345  1.2118  1.1540
  164MOL    H3236218   3.296   5.769   7.874 -0.5407 -1.2767 -0.9120
  164MOL    H3336219   3.534   5.428   7.981  0.4196 -1.4914 -1.1733
  164MOL    H3436220   3.685   5.473   7.786  1.4000  2.7673 -1.4964
  164MOL    C3536221   3.760   6.021   7.631  1.2133 -1.1165 -0.6150
  164MOL    C3636222   3.701   5.901   7.671  0.1465  0.6214 -0.0167
  164MOL    C3736223   3.683   5.796   7.578  0.1890 -0.6375  0.4639
  164MOL    C3836224   3.713   5.825   7.444  0.0585 -0.1967 -0.1967
  164MOL    C3936225   3.765   5.947   7.405  0.2922 -0.2941 -0.1740
  164MOL    C4036226   3.792   6.049   7.499  0.2593 -0.6022  0.0965
  164MOL    O4136227   3.838   6.174   7.460 -0.0614  0.2615 -0.2838
  164MOL    H4236228   3.769   6.104   7.700 -2.3810 -0.1694 -1.1607
  164MOL    H4336229   3.681   5.874   7.773  3.2407  0.2403  0.5411
  164MOL    H4436230   3.690   5.758   7.363 -0.1718  2.3198 -2.2847
  164MOL    H4536231   3.798   5.972   7.305  2.1905  2.0601  1.0079
  164MOL    C4636232   4.109   6.376   7.598 -0.1559 -0.1841  0.4778
  164MOL    C4736233   3.985   6.335   7.556 -0.0197 -0.0223 -0.1941
  164MOL    C4836234   3.964   6.204   7.512 -0.5334 -0.6291  0.2505
  164MOL    C4936235   4.071   6.109   7.525 -0.2018  0.3670 -0.1379
  164MOL    C5036236   4.191   6.153   7.577  0.2642  0.4210 -0.4598
  164MOL    C5136237   4.212   6.287   7.621  0.0529  0.8238 -0.6794
  164MOL    O5236238   4.330   6.336   7.667 -0.6370  0.2748 -0.2094
  164MOL    H5336239   4.126   6.480   7.621 -1.5742  0.5793 -1.7940
  164MOL    H5436240   3.915   6.417   7.547 -0.0221  0.1012  0.8173
  164MOL    H5536241   4.065   6.007   7.489 -1.1053  0.0551  0.8464
  164MOL    H5636242   4.274   6.085   7.585  1.3923  1.9301  1.1548
  164MOL    C5736243   4.623   6.514   7.539  0.3459  0.7952  0.1480
  164MOL    C5836244   4.507   6.482   7.616 -0.5039  0.8547 -0.0618
  164MOL    C5936245   4.433   6.370   7.579  1.0246 -0.2163 -0.5218
  164MOL    C6036246   4.461   6.305   7.456 -0.3954  0.0541 -0.5612
  164MOL    C6136247   4.563   6.345   7.371 -0.8586 -0.1160  0.1744
  164MOL    C6236248   4.650   6.449   7.412 -0.0658  0.1591 -0.2838
  164MOL    O6336249   4.755   6.496   7.331 -0.2946 -0.1277  0.4788
  164MOL    H6436250   4.685   6.599   7.563  1.5020  0.4210 -1.4296
  164MOL    H6536251   4.477   6.535   7.705 -2.0960 -0.5516  0.2803
  164MOL    H6636252   4.408   6.215   7.428  1.8576 -1.8692  1.1526
  164MOL    H6736253   4.572   6.299   7.274  0.2617  2.3539 -0.9526
  164MOL    C6836254   5.042   6.283   7.281  0.6505  0.2791 -0.1727
  164MOL    C6936255   4.919   6.342   7.263 -0.2555  0.4977  0.0451
  164MOL    C7036256   4.872   6.436   7.356 -1.2770  0.2738  0.3017
  164MOL    C7136257   4.948   6.475   7.463  1.0663 -0.3728 -0.6974
  164MOL    C7236258   5.076   6.418   7.479  0.5256  0.2853  0.1798
  164MOL    C7336259   5.126   6.324   7.387  0.3987  0.2432  0.5670
  164MOL    O7436260   5.247   6.260   7.398  0.1281  0.2429  0.4839
  164MOL    H7536261   5.070   6.197   7.221  0.2542  0.1627 -0.1926
  164MOL    H7636262   4.859   6.307   7.181  0.1731  1.2661 -0.5981
  164MOL    H7736263   4.921   6.556   7.530  0.2264 -0.6356 -0.7175
  164MOL    H7836264   5.131   6.446   7.567 -2.6030  0.2200  2.2223
  164MOL    C7936265   5.217   5.947   7.588  0.5887 -0.0805  0.4561
  164MOL    C8036266   5.230   6.039   7.480  0.0373  0.4373 -0.0903
  164MOL    C8136267   5.251   6.175   7.505  0.1685  0.0765 -0.3230
  164MOL    C8236268   5.278   6.211   7.637 -0.8958 -0.4417  0.2849
  164MOL    C8336269   5.277   6.121   7.744  0.1409 -0.5964 -0.2228
  164MOL    C8436270   5.244   5.986   7.719 -0.4490  0.4873 -0.3126
  164MOL    O8536271   5.222   5.888   7.822  0.0910  0.2842 -0.3681
  164MOL    H8636272   5.181   5.849   7.559  0.3956  0.0409  0.2778
  164MOL    H8736273   5.222   6.007   7.377  1.9653 -0.0760 -0.1043
  164MOL    H8836274   5.289   6.317   7.649  2.7136 -1.0087  2.5764
  164MOL    H8936275   5.303   6.152   7.844 -1.5021  0.2638 -0.0504
  164MOL    C9036276   5.001   5.614   7.729  1.2318  0.0247  0.2971
  164MOL    C9136277   5.112   5.680   7.770 -0.9225 -0.2741  0.2211
  164MOL    C9236278   5.103   5.818   7.802 -0.0375  0.0205 -0.6255
  164MOL    C9336279   4.977   5.870   7.826  0.5188  0.0419  0.2258
  164MOL    C9436280   4.862   5.798   7.792  0.2610 -0.6913  0.0761
  164MOL    C9536281   4.872   5.670   7.741  0.9368  0.1961  0.4259
  164MOL    O9636282   4.765   5.593   7.697  0.2051 -0.6652 -0.1700
  164MOL    H9736283   5.011   5.513   7.693  1.7975  1.2521 -3.1252
  164MOL    H9836284   5.211   5.637   7.763 -0.5860  0.9363 -3.2726
  164MOL    H9936285   4.970   5.975   7.851  1.8881  0.2381 -0.2255
  164MOL   H10036286   4.769   5.852   7.790  1.4410  1.3600 -0.6018
  164MOL   C10136287   4.593   5.699   7.395  0.6955 -0.3735  0.2862
  164MOL   C10236288   4.634   5.693   7.529 -0.0692 -0.1918  0.9602
  164MOL   C10336289   4.727   5.595   7.564 -0.7526  0.3644 -0.4730
  164MOL   C10436290   4.775   5.505   7.465 -0.8515 -0.0234  0.7241
  164MOL   C10536291   4.745   5.520   7.332 -0.4443 -0.1825  0.2905
  164MOL   C10636292   4.649   5.614   7.291 -0.2995 -0.2009 -0.0797
  164MOL   O10736293   4.621   5.629   7.157  0.0948 -0.1073 -0.7317
  164MOL   H10836294   4.519   5.773   7.368  1.1950  0.3263  0.8462
  164MOL   H10936295   4.574   5.749   7.600 -0.7877 -0.4594  0.5680
  164MOL   H11036296   4.852   5.434   7.492  0.1081  1.3943  1.7947
  164MOL   H11136297   4.796   5.460   7.258  1.7078 -0.4722  1.9970
  164MOL   C11236298   4.376   5.497   6.913 -0.0597 -1.1539 -0.0358
  164MOL   C11336299   4.495   5.550   6.966 -0.9579 -0.2513 -0.1661
  164MOL   C11436300   4.498   5.583   7.101 -0.2295 -0.2875 -0.8580
  164MOL   C11536301   4.387   5.574   7.189 -0.4435  0.5428 -0.0930
  164MOL   C11636302   4.278   5.513   7.131  0.2000  0.4805 -0.2360
  164MOL   C11736303   4.266   5.479   6.995 -0.4455 -0.3242  0.6903
  164MOL   O11836304   4.152   5.419   6.946 -0.1856  0.6182  0.1089
  164MOL   H11936305   4.379   5.455   6.814  1.4797 -0.5460 -0.2701
  164MOL   H12036306   4.571   5.561   6.890 -1.5401 -0.2956 -0.7540
  164MOL   H12136307   4.382   5.604   7.293  0.1008  0.4922 -0.0494
  164MOL   H12236308   4.191   5.497   7.193 -0.7907  1.0839 -1.4304
  164MOL   C12336309   4.151   5.096   7.130 -0.0755  0.2749  0.4421
  164MOL   C12436310   4.194   5.211   7.067  0.2293  0.3117 -0.6590
  164MOL   C12536311   4.105   5.305   7.013  0.1677  0.0301 -0.1536
  164MOL   C12636312   3.966   5.286   7.035 -0.4431 -0.2368  1.0002
  164MOL   C12736313   3.922   5.174   7.111  0.5555  0.1717 -0.1572
  164MOL   C12836314   4.012   5.077   7.148 -0.3410  0.6206  0.4116
  164MOL   O12936315   3.977   4.966   7.216  0.5289  0.1888  0.0712
  164MOL   H13036316   4.223   5.031   7.177 -0.6839 -0.2760  0.6230
  164MOL   H13136317   4.300   5.225   7.057  0.4019  0.2018  0.9358
  164MOL   H13236318   3.900   5.360   6.994 -0.7144 -0.3686  1.1962
  164MOL   H13336319   3.817   5.149   7.124  0.8018  0.1273  1.8996
  164MOL   C13436320   4.066   4.666   7.019  0.1586 -0.4088  0.0576
  164MOL   C13536321   4.082   4.771   7.106 -0.4284 -0.2311 -0.0557
  164MOL   C13636322   3.970   4.850   7.148 -0.5622  0.3805  0.3198
  164MOL   C13736323   3.845   4.814   7.101  0.2360 -0.1299  0.5104
  164MOL   C13836324   3.828   4.714   7.004  0.3792 -0.1396 -0.5277
  164MOL   C13936325   3.938   4.634   6.962 -0.6102 -0.0087  0.2581
  164MOL   O14036326   3.939   4.532   6.874  0.5491 -0.4175  0.5723
  164MOL   H14136327   4.155   4.618   6.983 -0.7537 -3.6382  1.8686
  164MOL   H14236328   4.181   4.796   7.140 -0.4946 -1.0238  0.7336
  164MOL   H14336329   3.767   4.882   7.133  1.8362  1.2963  1.4108
  164MOL   H14436330   3.732   4.692   6.960 -0.1840 -0.4846  0.8686
  164MOL   C14536331   3.740   4.229   6.832  0.1599 -0.3055  0.3132
  164MOL   C14636332   3.780   4.363   6.812  0.1712 -0.1603  0.4527
  164MOL   C14736333   3.882   4.411   6.899  0.5899 -0.4680  0.0344
  164MOL   C14836334   3.938   4.329   6.999  0.0286 -0.6049 -0.3940
  164MOL   C14936335   3.886   4.194   7.018  0.0413 -0.4408 -0.2869
  164MOL   C15036336   3.785   4.136   6.931  0.1169 -0.2180  0.5325
  164MOL   O15136337   3.743   4.004   6.944 -0.3369  0.1604 -0.2618
  164MOL   H15236338   3.665   4.185   6.768  1.1765 -0.6847 -0.6236
  164MOL   H15336339   3.732   4.419   6.733 -1.3873 -1.3920  0.5087
  164MOL   H15436340   4.011   4.367   7.068  0.6529  0.6969 -1.7578
  164MOL   H15536341   3.929   4.130   7.093  1.1420  0.9911  0.3495
  164MOL   C15636342   3.885   3.761   6.696  0.0586  0.3693  0.0531
  164MOL   C15736343   3.797   3.860   6.758 -0.5274 -0.3527 -0.2706
  164MOL   C15836344   3.823   3.907   6.889  0.8280 -0.3877 -0.4937
  164MOL   C15936345   3.918   3.843   6.964 -0.7466 -0.0499 -0.0073
  164MOL   C16036346   3.994   3.741   6.906 -0.4026  0.1904 -0.0946
  164MOL   C16136347   3.976   3.693   6.776  0.1596  0.7019 -0.3307
  164MOL   O16236348   4.059   3.598   6.727  0.0734 -0.0045  0.3454
  164MOL   H16336349   3.885   3.733   6.592 -1.3347  0.3549  0.0360
  164MOL   H16436350   3.716   3.906   6.704 -0.2124  0.0761 -0.3735
  164MOL   H16536351   3.947   3.867   7.066 -1.3767 -1.6887  0.5777
  164MOL   H16636352   4.073   3.698   6.965 -0.4673 -0.2491 -0.3322
  164MOL   C16736353   3.847   3.294   6.781  0.9073 -0.9252  0.5651
  164MOL   C16836354   3.887   3.427   6.779 -0.5635  0.4084  0.5677
  164MOL   C16936355   4.007   3.468   6.712  0.4183 -0.4747 -0.2938
  164MOL   C17036356   4.074   3.369   6.630  0.3804 -0.8952 -0.2486
  164MOL   C17136357   4.026   3.236   6.629 -0.0110  0.2304 -0.3569
  164MOL   C17236358   3.917   3.196   6.703 -0.0152  0.1699 -0.3545
  164MOL   O17336359   3.866   3.071   6.679  0.2899  0.1200 -0.0211
  164MOL   H17436360   3.763   3.265   6.844  0.0444  0.0319 -0.1411
  164MOL   H17536361   3.836   3.488   6.851 -0.5081  0.3262  0.6778
  164MOL   H17636362   4.163   3.387   6.571  0.1637 -2.4254 -1.0819
  164MOL   H17736363   4.082   3.152   6.591 -0.2897 -1.2854  2.3971
  164MOL   C17836364   3.602   3.054   6.426 -0.5312 -0.1629  0.3896
  164MOL   C17936365   3.672   3.086   6.546  0.3370  0.6020  0.4803
  164MOL   C18036366   3.807   3.047   6.557 -0.3383 -0.1611  0.5277
  164MOL   C18136367   3.875   2.968   6.461 -0.5562 -0.5582 -0.1730
  164MOL   C18236368   3.801   2.931   6.346  1.0630  0.1471  0.5454
  164MOL   C18336369   3.667   2.977   6.325  0.1876  0.2871  0.0240
  164MOL   O18436370   3.604   2.953   6.206  0.6981  0.1027 -0.0205
  164MOL   H18536371   3.505   3.099   6.412 -0.7418 -0.1763  1.7850
  164MOL   H18636372   3.634   3.148   6.625  0.3424  3.2797 -1.5665
  164MOL   H18736373   3.973   2.924   6.469  1.4451  2.7191 -4.8033
  164MOL   H18836374   3.842   2.871   6.265  1.3639  1.8010 -0.5431
  164MOL   C18936375   3.286   3.078   6.082  0.8027  0.0937  0.5119
  164MOL   C19036376   3.386   2.998   6.146 -0.2128  0.6265  0.3029
  164MOL   C19136377   3.512   3.039   6.153  0.3200 -0.6599  0.6274
  164MOL   C19236378   3.549   3.162   6.097  0.6944  0.1628 -0.0396
  164MOL   C19336379   3.453   3.241   6.026  0.1805 -0.4289  0.5028
  164MOL   C19436380   3.318   3.205   6.033  0.5050  0.3789 -0.7483
  164MOL   O19536381   3.225   3.278   5.969 -0.5006 -0.0894  0.0481
  164MOL   H19636382   3.184   3.045   6.086  0.2569  1.6703  0.0944
  164MOL   H19736383   3.356   2.900   6.179  3.1103 -0.7068 -0.4403
  164MOL   H19836384   3.649   3.204   6.099  0.7342  0.0788 -0.2386
  164MOL   H19936385   3.477   3.331   5.971  1.1926 -0.5429  0.7363
  164MOL   C20036386   2.967   3.402   6.199 -0.0202  0.4007 -0.4190
  164MOL   C20136387   3.043   3.311   6.125 -0.2091 -0.2112 -0.2076
  164MOL   C20236388   3.151   3.360   6.046 -0.1707  0.2720  0.0109
  164MOL   C20336389   3.186   3.493   6.051  0.0591  0.2357 -0.1885
  164MOL   C20436390   3.118   3.585   6.134 -0.2959 -0.4003  0.9120
  164MOL   C20536391   3.008   3.535   6.207 -0.0789 -0.5458  0.9022
  164MOL   O20636392   2.929   3.624   6.278  0.4499 -0.0487  0.1159
  164MOL   H20736393   2.889   3.370   6.267  0.6150  3.0865  1.7032
  164MOL   H20836394   3.009   3.209   6.130 -0.7885 -0.0615 -1.0234
  164MOL   H20936395   3.270   3.519   5.989 -0.7094 -0.8200 -1.6881
  164MOL   H21036396   3.144   3.690   6.136  1.1822 -0.7520  0.5668
  164MOL   C21136397   2.660   3.778   6.069 -0.5067  0.1061 -0.7081
  164MOL   C21236398   2.728   3.677   6.138 -0.3310 -0.1142 -0.1315
  164MOL   C21336399   2.841   3.713   6.213  0.4470 -0.0344  0.0581
  164MOL   C21436400   2.878   3.849   6.220  0.1260  0.2554  0.3380
  164MOL   C21536401   2.802   3.948   6.145 -0.8567 -0.2361  0.4735
  164MOL   C21636402   2.703   3.908   6.063 -0.3432  0.5982 -0.5408
  164MOL   O21736403   2.631   3.989   5.981 -0.0027  0.1048  0.3690
  164MOL   H21836404   2.571   3.761   6.011  0.7921  0.0438 -2.7238
  164MOL   H21936405   2.687   3.577   6.133 -0.1215 -0.4857  3.6912
  164MOL   H22036406   2.973   3.857   6.270  0.1338  0.6653  0.2533
  164MOL   H22136407   2.830   4.052   6.145 -0.5621 -0.3147 -0.1385
  164MOL   H22236408   2.563   3.931   5.949 -0.8403  0.2096  1.9102
  165MOL     C136409   3.030   3.630   4.468  1.1774  0.0586 -0.2035
  165MOL     C236410   3.059   3.594   4.603 -0.5071  0.2986 -0.3744
  165MOL     C336411   3.188   3.581   4.647 -0.6340  0.3556  0.2362
  165MOL     C436412   3.291   3.621   4.556  0.4740  0.2392  0.3330
  165MOL     C536413   3.266   3.657   4.421 -0.3943 -0.4555  0.5771
  165MOL     C636414   3.135   3.657   4.377 -0.7213  0.2575  0.3234
  165MOL     O736415   3.100   3.661   4.247  0.6020  0.2522 -0.3128
  165MOL     H836416   2.926   3.628   4.439  1.0313  4.1276 -0.3365
  165MOL     H936417   2.975   3.568   4.666  0.0921  0.1926  0.3928
  165MOL    H1036418   3.393   3.609   4.589  0.3639 -1.6488  0.0390
  165MOL    H1136419   3.343   3.695   4.356 -1.1710  2.3053  1.2028
  165MOL    H1236420   3.203   3.541   4.746  1.5521  2.0330  0.6324
  165MOL    C1336421   3.260   3.947   4.068 -1.2847  0.4264 -0.4360
  165MOL    C1436422   3.179   3.881   4.164 -0.3634  0.6147 -0.6760
  165MOL    C1536423   3.166   3.740   4.159 -0.2874  0.7283 -0.1119
  165MOL    C1636424   3.226   3.674   4.051  0.0009  0.4133 -0.0384
  165MOL    C1736425   3.315   3.731   3.962  0.2230  0.3322  0.3657
  165MOL    C1836426   3.325   3.872   3.969 -0.3183  0.1089  0.2113
  165MOL    O1936427   3.403   3.934   3.869  0.0400 -0.3066 -0.0398
  165MOL    H2036428   3.266   4.055   4.073 -0.1586  0.5686 -3.9619
  165MOL    H2136429   3.116   3.932   4.235 -0.5856  0.0197 -0.4379
  165MOL    H2236430   3.199   3.570   4.041 -0.6208  0.6545 -0.9409
  165MOL    H2336431   3.365   3.664   3.893 -0.9575 -2.8112  2.4396
  165MOL    C2436432   3.207   4.114   3.610  0.1425 -0.2291 -0.5383
  165MOL    C2536433   3.252   4.005   3.688  1.0710  0.1394  0.1610
  165MOL    C2636434   3.337   4.030   3.800  0.2893  0.4585 -0.0356
  165MOL    C2736435   3.375   4.162   3.832 -0.1882 -0.1249 -0.0140
  165MOL    C2836436   3.318   4.269   3.762 -0.1589  0.1655  0.3503
  165MOL    C2936437   3.238   4.250   3.647  0.2873  0.2500 -0.0027
  165MOL    O3036438   3.172   4.361   3.587 -0.1666 -0.6962  0.2442
  165MOL    H3136439   3.139   4.085   3.531  0.5045 -2.2720 -0.1299
  165MOL    H3236440   3.229   3.903   3.663  1.2888  0.5434 -1.8042
  165MOL    H3336441   3.447   4.178   3.911  0.3569 -0.9960 -0.3258
  165MOL    H3436442   3.331   4.371   3.796  0.8544  0.5506 -1.1176
  165MOL    C3536443   2.875   4.414   3.810 -0.7638  0.1728 -0.6301
  165MOL    C3636444   3.000   4.365   3.759  0.5301 -0.1831  0.6848
  165MOL    C3736445   3.063   4.410   3.644 -0.8302 -0.0087  0.4018
  165MOL    C3836446   2.998   4.520   3.576 -0.1546 -0.5096  0.1523
  165MOL    C3936447   2.882   4.583   3.639 -0.2502  0.3744  0.2467
  165MOL    C4036448   2.825   4.527   3.753 -0.1725  0.2954 -0.3159
  165MOL    O4136449   2.713   4.586   3.804 -0.4237 -0.1933 -1.2641
  165MOL    H4236450   2.820   4.373   3.894  1.1425  0.5734  0.8529
  165MOL    H4336451   3.036   4.272   3.801 -0.0313 -0.9309 -0.4627
  165MOL    H4436452   3.054   4.558   3.492 -1.0022 -2.1645 -1.1857
  165MOL    H4536453   2.845   4.675   3.595  0.3799  0.3379 -0.3699
  165MOL    C4636454   2.872   4.717   4.109 -0.1947 -0.3146  0.2998
  165MOL    C4736455   2.842   4.703   3.971 -0.3317  0.2508  0.0509
  165MOL    C4836456   2.729   4.624   3.936 -0.3167 -0.1193  0.0747
  165MOL    C4936457   2.641   4.577   4.033 -0.0577  0.4534  0.5594
  165MOL    C5036458   2.670   4.601   4.170  0.0184  0.0151  0.0931
  165MOL    C5136459   2.787   4.669   4.209 -0.3479  0.2800 -0.3763
  165MOL    O5236460   2.825   4.692   4.337  0.0610  0.1462  0.0018
  165MOL    H5336461   2.970   4.757   4.129  0.0435 -1.7946  2.2657
  165MOL    H5436462   2.905   4.728   3.887  0.3949 -2.1323 -0.1727
  165MOL    H5536463   2.552   4.519   4.017 -1.9918  2.7899  2.4674
  165MOL    H5636464   2.600   4.558   4.240  2.2688 -1.5695  1.4460
  165MOL    C5736465   2.920   4.367   4.455 -0.3980 -0.1974 -0.6369
  165MOL    C5836466   2.918   4.474   4.371  0.1662 -0.1567 -0.2956
  165MOL    C5936467   2.843   4.585   4.412 -1.1351  0.6477 -0.2424
  165MOL    C6036468   2.784   4.576   4.538 -0.0578 -0.2568 -0.1886
  165MOL    C6136469   2.808   4.478   4.634 -0.4654  0.3216 -0.2345
  165MOL    C6236470   2.879   4.373   4.588 -0.5335  0.2365 -0.2404
  165MOL    O6336471   2.915   4.276   4.676  0.3913 -0.1739 -0.1055
  165MOL    H6436472   2.969   4.274   4.430 -0.9093 -0.5765 -0.2391
  165MOL    H6536473   2.961   4.470   4.272  3.3285  0.1470  0.9862
  165MOL    H6636474   2.736   4.663   4.581  1.9717  1.3812 -1.1678
  165MOL    H6736475   2.785   4.500   4.737 -0.1352  1.3179 -0.3749
  165MOL    C6836476   2.630   4.182   4.894 -0.2713  0.1737  0.1594
  165MOL    C6936477   2.747   4.242   4.849  0.0127  0.8864 -0.3343
  165MOL    C7036478   2.807   4.202   4.729  0.3172  0.5623  0.0938
  165MOL    C7136479   2.753   4.106   4.647 -0.1818 -0.4419  0.8449
  165MOL    C7236480   2.624   4.058   4.684  0.2832  0.2799 -0.2565
  165MOL    C7336481   2.563   4.094   4.810 -0.2864 -0.5141  0.3540
  165MOL    O7436482   2.441   4.049   4.838 -0.1938  0.2919 -0.4093
  165MOL    H7536483   2.574   4.212   4.982 -0.3963 -0.3234  0.2472
  165MOL    H7636484   2.796   4.315   4.911  0.8230 -1.1040  1.4160
  165MOL    H7736485   2.796   4.076   4.553 -1.8229 -0.2165  0.0010
  165MOL    H7836486   2.574   3.992   4.615 -1.2236 -1.3922  2.3584
  165MOL    C7936487   2.379   3.846   5.133  0.1032 -0.3117  0.0302
  165MOL    C8036488   2.403   3.955   5.060 -0.8570  0.2741  1.0832
  165MOL    C8136489   2.430   3.942   4.920  0.0775 -0.5274  0.0304
  165MOL    C8236490   2.427   3.815   4.857 -0.3531  1.2354 -0.0731
  165MOL    C8336491   2.393   3.702   4.937 -0.3491 -0.4798 -0.3474
  165MOL    C8436492   2.378   3.718   5.077 -0.5546 -1.0462 -0.2740
  165MOL    O8536493   2.355   3.600   5.150 -0.6823  0.2954  0.1097
  165MOL    H8636494   2.366   3.854   5.240  1.0905  0.3825  0.1110
  165MOL    H8736495   2.413   4.052   5.107 -0.0047  0.0566  1.3548
  165MOL    H8836496   2.457   3.800   4.755  0.9420  0.2217  0.4468
  165MOL    H8936497   2.403   3.603   4.895 -0.2195 -0.4212 -0.4553
  165MOL    C9036498   2.666   3.495   5.331  0.3888  0.0175  0.3571
  165MOL    C9136499   2.562   3.582   5.278 -0.7179  0.0049  0.6106
  165MOL    C9236500   2.459   3.529   5.192 -0.1796 -0.3453  0.2067
  165MOL    C9336501   2.474   3.389   5.168  0.5543 -0.6793  0.2438
  165MOL    C9436502   2.567   3.300   5.223  0.0655 -0.2162  0.1777
  165MOL    C9536503   2.671   3.353   5.307 -0.3529 -0.4510  0.1998
  165MOL    O9636504   2.764   3.276   5.368  0.5485  0.1959  0.5046
  165MOL    H9736505   2.731   3.539   5.405  0.4159  0.2668  0.1835
  165MOL    H9836506   2.564   3.688   5.299  1.6390  0.1298 -0.1290
  165MOL    H9936507   2.392   3.361   5.104  0.4326  2.0977 -0.8835
  165MOL   H10036508   2.576   3.197   5.192 -1.4270  0.1737 -1.6648
  165MOL   C10136509   2.656   3.164   5.699 -0.2881 -0.7502 -0.3400
  165MOL   C10236510   2.666   3.168   5.565  0.1650  0.1415  0.3484
  165MOL   C10336511   2.747   3.269   5.507 -0.4528  0.2862  0.9083
  165MOL   C10436512   2.815   3.364   5.593  0.2765  0.4367  0.1090
  165MOL   C10536513   2.805   3.349   5.731 -0.8657  0.0526 -0.0827
  165MOL   C10636514   2.717   3.260   5.784  0.1351  0.3575  0.7130
  165MOL   O10736515   2.701   3.261   5.921  0.3790  0.6167 -0.4811
  165MOL   H10836516   2.577   3.114   5.753  0.7539 -1.8105  0.2232
  165MOL   H10936517   2.604   3.106   5.502  1.3125 -1.5727  0.8870
  165MOL   H11036518   2.880   3.437   5.548 -0.5136  1.4735  0.6394
  165MOL   H11136519   2.870   3.413   5.789  0.8028  0.2000 -2.0578
  165MOL   C11236520   2.389   3.469   5.985  0.5727 -0.7927 -0.5173
  165MOL   C11336521   2.497   3.403   5.912  0.3938  0.8309  0.0834
  165MOL   C11436522   2.602   3.338   5.984 -0.1841 -0.1407  0.3111
  165MOL   C11536523   2.598   3.342   6.124 -0.4734  0.1788 -0.4819
  165MOL   C11636524   2.493   3.398   6.197 -0.3738  0.6811 -0.4230
  165MOL   C11736525   2.390   3.462   6.129  0.7387 -0.1434 -0.0382
  165MOL   O11836526   2.295   3.529   6.204 -0.2236 -0.5062  0.2418
  165MOL   H11936527   2.322   3.533   5.930  0.5251 -0.0097  0.4351
  165MOL   H12036528   2.490   3.397   5.804  0.8425 -0.2292  0.1106
  165MOL   H12136529   2.684   3.302   6.176 -0.6084  0.2468 -0.2049
  165MOL   H12236530   2.492   3.397   6.305 -0.6341 -1.1121 -0.4376
  165MOL   C12336531   2.446   3.724   6.470  0.0577 -0.0227  0.4760
  165MOL   C12436532   2.379   3.624   6.398 -0.5240 -0.4078  0.1991
  165MOL   C12536533   2.345   3.640   6.264  0.0422  0.4015  0.3567
  165MOL   C12636534   2.364   3.762   6.196 -0.5126 -0.1353  0.4015
  165MOL   C12736535   2.435   3.863   6.266 -0.6525  0.3099  0.0795
  165MOL   C12836536   2.474   3.847   6.403  0.3634  0.2004  0.6922
  165MOL   O12936537   2.541   3.943   6.470 -0.3148  0.2576 -0.3165
  165MOL   H13036538   2.477   3.697   6.570 -2.6782 -0.0209  1.3658
  165MOL   H13136539   2.353   3.534   6.454  0.7942 -0.8613  0.0939
  165MOL   H13236540   2.316   3.773   6.099 -1.2491  0.6981  0.8483
  165MOL   H13336541   2.470   3.953   6.218 -0.3309  0.3616  0.4105
  165MOL   C13436542   2.554   4.304   6.416  0.2530 -0.0220  0.1825
  165MOL   C13536543   2.586   4.167   6.425  0.6430  0.3438 -0.0865
  165MOL   C13636544   2.494   4.071   6.469  0.0169 -0.5596 -0.1731
  165MOL   C13736545   2.366   4.117   6.505 -0.5175  0.6781  0.1645
  165MOL   C13836546   2.330   4.256   6.489 -0.7620  0.2016 -0.3795
  165MOL   C13936547   2.427   4.352   6.452  0.4823  0.4412  0.7386
  165MOL   O14036548   2.385   4.481   6.443  0.3133  0.0133 -0.2103
  165MOL   H14136549   2.641   4.364   6.397  0.2203 -0.2671 -0.7768
  165MOL   H14236550   2.685   4.131   6.405  1.0707  0.8177  1.1931
  165MOL   H14336551   2.288   4.050   6.538 -0.0170 -0.2316 -0.4544
  165MOL   H14436552   2.233   4.292   6.522 -0.8034 -0.2439 -0.0009
  165MOL   C14536553   2.629   4.741   6.564 -0.4677 -0.4157 -0.1390
  165MOL   C14636554   2.550   4.624   6.562  0.0409 -0.1715  0.2613
  165MOL   C14736555   2.471   4.586   6.451 -0.2269 -0.1721  0.2566
  165MOL   C14836556   2.481   4.671   6.338 -0.1183 -0.2582  0.5205
  165MOL   C14936557   2.563   4.785   6.337  0.2393  0.0060  0.3356
  165MOL   C15036558   2.640   4.816   6.445 -0.0461  0.6197 -0.6102
  165MOL   O15136559   2.729   4.921   6.449  0.0688  0.4639  0.2208
  165MOL   H15236560   2.685   4.780   6.648  0.8567 -3.7447  0.6019
  165MOL   H15336561   2.555   4.563   6.651  0.4741 -0.4184  0.0674
  165MOL   H15436562   2.428   4.655   6.245 -0.9979 -0.5801  1.0704
  165MOL   H15536563   2.569   4.838   6.243  2.7694 -0.0397  0.4374
  165MOL   C15636564   2.591   5.215   6.279  0.4774  0.4749  0.0538
  165MOL   C15736565   2.607   5.108   6.371 -0.6604 -0.5001 -0.0820
  165MOL   C15836566   2.713   5.020   6.361 -0.4922 -0.4108 -0.0134
  165MOL   C15936567   2.813   5.039   6.268 -0.3846  0.7099 -0.2058
  165MOL   C16036568   2.803   5.147   6.175 -0.6768  0.3191 -0.1089
  165MOL   C16136569   2.692   5.232   6.177  0.4130 -0.1376  0.3511
  165MOL   O16236570   2.667   5.325   6.080  0.2502 -0.0620 -0.3266
  165MOL   H16336571   2.508   5.284   6.283 -0.0983  0.0497 -3.6348
  165MOL   H16436572   2.535   5.084   6.448 -0.0418  0.7634  0.8997
  165MOL   H16536573   2.896   4.970   6.263 -2.5172 -2.1230  1.9385
  165MOL   H16636574   2.880   5.163   6.102 -1.8904  1.8681 -1.0924
  165MOL   C16736575   2.348   5.397   5.918  0.0076  0.3811 -0.4805
  165MOL   C16836576   2.460   5.411   5.998  0.5152  0.2669  0.3747
  165MOL   C16936577   2.553   5.303   6.001 -0.1536 -0.2908 -0.7626
  165MOL   C17036578   2.533   5.180   5.929  0.0678 -0.4224  0.3294
  165MOL   C17136579   2.414   5.167   5.854  0.2237 -0.4331  0.1530
  165MOL   C17236580   2.323   5.278   5.849 -0.3018  0.0883  0.8024
  165MOL   O17336581   2.217   5.276   5.768 -0.2753 -0.3554 -0.5200
  165MOL   H17436582   2.275   5.476   5.910 -0.8908 -0.3272  0.5393
  165MOL   H17536583   2.481   5.498   6.059  2.0474 -0.4456  0.9130
  165MOL   H17636584   2.602   5.097   5.938 -0.9047 -1.3733 -0.7318
  165MOL   H17736585   2.396   5.072   5.807  2.3796 -0.3736 -0.8635
  165MOL   C17836586   1.882   5.130   5.749 -0.7585  0.5352 -0.2744
  165MOL   C17936587   1.998   5.200   5.718  0.0274 -0.8523  0.0505
  165MOL   C18036588   2.103   5.215   5.810  0.0718  0.4284  0.4418
  165MOL   C18136589   2.084   5.163   5.938  0.4224  0.3328 -0.4801
  165MOL   C18236590   1.973   5.081   5.967 -0.2465 -0.4608 -0.7080
  165MOL   C18336591   1.870   5.065   5.873 -0.8563  0.2278  0.3989
  165MOL   O18436592   1.761   4.983   5.902  0.9480  0.0936 -0.1594
  165MOL   H18536593   1.806   5.123   5.673 -2.5151  1.3427  1.3432
  165MOL   H18636594   2.006   5.256   5.627  0.8842  0.2518  0.7869
  165MOL   H18736595   2.158   5.160   6.017  0.5895 -1.3465 -0.6631
  165MOL   H18836596   1.978   5.030   6.062 -2.9985 -0.8833 -0.7537
  165MOL   C18936597   1.823   4.638   5.829  0.8473  0.0738  0.3888
  165MOL   C19036598   1.828   4.765   5.891  0.0877  0.2229  0.1523
  165MOL   C19136599   1.758   4.872   5.836  0.1866 -0.4773 -0.3299
  165MOL   C19236600   1.682   4.856   5.720  0.0899  0.7951 -0.1683
  165MOL   C19336601   1.677   4.734   5.662 -0.0682 -0.1793 -0.1400
  165MOL   C19436602   1.745   4.619   5.708 -0.4163  0.3398  0.2121
  165MOL   O19536603   1.745   4.497   5.643  0.8627 -0.3786  0.0422
  165MOL   H19636604   1.886   4.559   5.868  1.4024  0.8196  1.0193
  165MOL   H19736605   1.897   4.775   5.974  2.4203  1.7642 -1.9164
  165MOL   H19836606   1.621   4.938   5.685 -1.8179 -0.3878  0.2998
  165MOL   H19936607   1.617   4.722   5.572  1.8872 -0.3614 -1.4489
  165MOL   C20036608   1.987   4.215   5.600  0.0868 -0.6163 -0.3571
  165MOL   C20136609   1.870   4.283   5.630  0.5837 -0.0676 -0.2794
  165MOL   C20236610   1.863   4.424   5.627 -0.4168 -0.7178 -0.0645
  165MOL   C20336611   1.982   4.492   5.605  0.6733 -0.8522  0.3729
  165MOL   C20436612   2.101   4.423   5.573  0.0693 -0.0027 -0.1883
  165MOL   C20536613   2.106   4.284   5.575  0.0992 -0.0606 -0.3158
  165MOL   O20636614   2.229   4.228   5.555 -0.2570  0.3194  0.0639
  165MOL   H20736615   1.983   4.107   5.607  1.6836 -0.5755  1.7151
  165MOL   H20836616   1.776   4.230   5.642  0.4668  0.6175  2.0210
  165MOL   H20936617   1.979   4.598   5.582  3.6471 -0.8257 -0.1050
  165MOL   H21036618   2.193   4.474   5.548 -1.2571  2.3685 -0.3799
  165MOL   C21136619   2.294   3.870   5.561 -0.6923  0.2509  0.2276
  165MOL   C21236620   2.272   3.997   5.512 -0.0699 -0.0580 -0.3564
  165MOL   C21336621   2.250   4.104   5.605  0.5881 -0.5027  1.0838
  165MOL   C21436622   2.243   4.072   5.741 -0.0379 -0.0701 -0.2806
  165MOL   C21536623   2.278   3.940   5.784  0.1337 -0.1409  0.0296
  165MOL   C21636624   2.305   3.836   5.698 -0.6565  0.1544 -0.0052
  165MOL   O21736625   2.327   3.710   5.741  0.1532  0.5191 -0.1487
  165MOL   H21836626   2.318   3.793   5.489 -1.5411 -1.4968  1.7702
  165MOL   H21936627   2.283   4.014   5.406  2.4158  3.0937  0.3265
  165MOL   H22036628   2.227   4.144   5.820  0.0521  0.0383 -0.3597
  165MOL   H22136629   2.268   3.920   5.890 -1.9138  1.1119  0.1010
  165MOL   H22236630   2.322   3.638   5.680 -0.5801  0.0944  0.4089
  166MOL     C136631   7.616   7.114   6.248 -0.0347  0.2608 -0.3404
  166MOL     C236632   7.583   7.214   6.339 -0.0819 -0.1511 -0.6836
  166MOL     C336633   7.589   7.350   6.305  0.2397  0.1892  0.0865
  166MOL     C436634   7.633   7.385   6.173  0.2119  0.4160  0.1448
  166MOL     C536635   7.660   7.279   6.081 -0.3032 -0.4954 -0.0012
  166MOL     C636636   7.651   7.144   6.116  0.6031 -1.4338 -0.3092
  166MOL     O736637   7.675   7.050   6.020 -0.1748  0.1954 -0.3952
  166MOL     H836638   7.616   7.008   6.267  1.5265 -0.0434 -1.8459
  166MOL     H936639   7.560   7.201   6.444  1.5414  0.0659 -0.2732
  166MOL    H1036640   7.648   7.489   6.150  0.2766  0.1941 -0.8401
  166MOL    H1136641   7.692   7.294   5.979 -2.0469 -0.5312 -0.5706
  166MOL    H1236642   7.577   7.418   6.388 -1.7521 -0.6832  0.5301
  166MOL    C1336643   7.871   6.746   6.086 -0.7370  0.2128 -0.5672
  166MOL    C1436644   7.764   6.834   6.047 -0.6862  0.1740 -0.3400
  166MOL    C1536645   7.781   6.968   6.046 -0.0765  0.2382 -0.1007
  166MOL    C1636646   7.911   7.017   6.080 -1.4046 -0.9317  0.2862
  166MOL    C1736647   8.013   6.934   6.130 -0.3509  0.1662 -0.1785
  166MOL    C1836648   7.998   6.791   6.126 -0.2638 -0.3494  0.2966
  166MOL    O1936649   8.092   6.702   6.166 -0.3440  0.1637 -0.1099
  166MOL    H2036650   7.846   6.643   6.104  1.0921 -0.8413 -3.6546
  166MOL    H2136651   7.669   6.788   6.025 -0.7503 -0.3530  0.9691
  166MOL    H2236652   7.927   7.123   6.066 -1.5322 -1.0359 -0.6686
  166MOL    H2336653   8.107   6.984   6.149 -0.1333 -0.1495 -0.4034
  166MOL    C2436654   0.208   6.774   6.151 -0.0706 -0.0252 -0.1462
  166MOL    C2536655   0.080   6.753   6.202  0.6059 -0.1360  0.7051
  166MOL    C2636656   8.222   6.722   6.117 -0.7779  0.3794  0.3327
  166MOL    C2736657   8.242   6.739   5.974 -0.1216  0.3200 -0.9702
  166MOL    C2836658   0.120   6.756   5.922  0.2116  0.3393  0.0318
  166MOL    C2936659   0.230   6.773   6.009  0.0949  0.1948  0.3938
  166MOL    O3036660   0.349   6.806   5.953  0.0730 -0.5179  0.2081
  166MOL    H3136661   0.289   6.778   6.222 -0.4441  2.4739  0.1633
  166MOL    H3236662   0.054   6.757   6.307 -1.8154  0.4684  0.1089
  166MOL    H3336663   8.154   6.730   5.913 -1.6564 -2.5877  1.5243
  166MOL    H3436664   0.124   6.758   5.814  0.2389 -2.8649 -0.0725
  166MOL    C3536665   0.614   6.553   5.981  1.3624 -0.0169 -0.0872
  166MOL    C3636666   0.488   6.608   5.948  0.2888  0.0997 -0.0784
  166MOL    C3736667   0.461   6.738   5.991 -0.1587  0.4801  0.0412
  166MOL    C3836668   0.547   6.798   6.082  1.3822  0.2439  0.5343
  166MOL    C3936669   0.665   6.744   6.121 -1.2330 -0.0223  0.1066
  166MOL    C4036670   0.708   6.621   6.067 -0.1673  0.6584  0.0819
  166MOL    O4136671   0.832   6.573   6.073  0.2671  0.1090  0.0531
  166MOL    H4236672   0.642   6.460   5.934 -0.5696 -0.0529 -1.2057
  166MOL    H4336673   0.414   6.571   5.879  0.4451 -2.1929  0.9304
  166MOL    H4436674   0.519   6.896   6.117 -0.9715 -0.0563 -0.3797
  166MOL    H4536675   0.733   6.804   6.180  0.9488 -0.9120 -1.4520
  166MOL    C4636676   0.897   6.402   6.390  0.9602  0.8905 -0.0825
  166MOL    C4736677   0.832   6.435   6.273 -0.4656 -0.1319  0.2524
  166MOL    C4836678   0.880   6.545   6.198 -0.1439 -0.3686  0.6271
  166MOL    C4936679   0.992   6.618   6.245 -0.5336 -0.5518 -0.3417
  166MOL    C5036680   1.047   6.591   6.372  0.1799 -0.2700 -0.6462
  166MOL    C5136681   1.008   6.477   6.443 -0.3718 -0.1077 -0.3665
  166MOL    O5236682   1.065   6.441   6.564  0.3096 -0.9218 -0.7515
  166MOL    H5336683   0.867   6.319   6.451  0.8342  0.9569 -0.0535
  166MOL    H5436684   0.751   6.375   6.235  0.9702 -0.9658 -1.5815
  166MOL    H5536685   1.030   6.705   6.193  1.1476 -0.5365  0.8737
  166MOL    H5636686   1.124   6.657   6.409  1.4056  0.4498 -4.1936
  166MOL    C5736687   1.407   6.315   6.512 -0.2798  0.0636 -0.0928
  166MOL    C5836688   1.301   6.400   6.511 -0.5702  0.1954  0.3509
  166MOL    C5936689   1.173   6.356   6.559 -1.1633  0.0642  1.0761
  166MOL    C6036690   1.157   6.223   6.593  0.3865  0.2085  0.1807
  166MOL    C6136691   1.263   6.127   6.572  0.3051 -0.6566 -0.5413
  166MOL    C6236692   1.386   6.175   6.535 -0.1754 -0.2598 -0.4281
  166MOL    O6336693   1.502   6.095   6.535  0.3091  0.3167  0.0656
  166MOL    H6436694   1.507   6.349   6.488  0.3278 -0.6871  1.3189
  166MOL    H6536695   1.330   6.497   6.473  0.7007 -1.2637 -2.5870
  166MOL    H6636696   1.060   6.193   6.631 -0.8451  3.5245 -0.1081
  166MOL    H6736697   1.264   6.023   6.600  1.4027 -0.5674 -0.2291
  166MOL    C6836698   1.567   5.962   6.195 -0.2536 -0.6814  0.6719
  166MOL    C6936699   1.498   5.991   6.314  0.1243 -0.0622  0.0661
  166MOL    C7036700   1.562   6.069   6.413  0.3379 -0.7637 -0.1153
  166MOL    C7136701   1.686   6.128   6.386 -0.5919  0.6087 -0.2754
  166MOL    C7236702   1.749   6.108   6.264  0.4714 -0.4361 -0.0495
  166MOL    C7336703   1.685   6.030   6.166  0.1259 -0.3599  0.6002
  166MOL    O7436704   1.746   6.016   6.048 -0.5697  0.0290  0.3681
  166MOL    H7536705   1.523   5.890   6.128 -0.1759 -0.3604  0.2761
  166MOL    H7636706   1.402   5.942   6.324  0.9809 -2.1952 -1.7487
  166MOL    H7736707   1.734   6.186   6.463  1.1123  1.2732 -1.8140
  166MOL    H7836708   1.847   6.150   6.246  0.9811 -1.4750  0.2831
  166MOL    C7936709   2.096   5.940   5.944  0.6811  0.0637 -0.4422
  166MOL    C8036710   1.969   6.005   5.959  0.2852 -0.2632  0.7462
  166MOL    C8136711   1.865   5.945   6.037  0.4404 -0.4289 -0.6154
  166MOL    C8236712   1.882   5.822   6.095  0.4414  0.8351 -0.5424
  166MOL    C8336713   1.997   5.748   6.063  0.1111 -0.2174  0.4858
  166MOL    C8436714   2.106   5.808   5.990  0.1440 -0.8297 -0.1216
  166MOL    O8536715   2.211   5.726   5.957 -0.5929 -0.4185 -0.2737
  166MOL    H8636716   2.177   5.986   5.889 -0.0973  2.0201 -0.0019
  166MOL    H8736717   1.946   6.102   5.917  2.5788  0.2526  0.6238
  166MOL    H8836718   1.809   5.766   6.153  1.5683 -0.7793 -0.6512
  166MOL    H8936719   2.018   5.648   6.100  0.8908 -0.5231 -0.7712
  166MOL    C9036720   2.461   5.836   5.705  0.6053 -0.3884  0.2332
  166MOL    C9136721   2.334   5.810   5.766 -0.1759 -0.9340  0.0297
  166MOL    C9236722   2.330   5.771   5.902  0.1105  0.3694 -0.6734
  166MOL    C9336723   2.449   5.760   5.980  0.0705 -0.5427  0.5448
  166MOL    C9436724   2.570   5.796   5.916  0.2756 -0.0524 -0.9863
  166MOL    C9536725   2.579   5.815   5.777 -0.6653 -0.0420  0.0576
  166MOL    O9636726   2.701   5.842   5.731 -0.2399 -0.1109 -0.2263
  166MOL    H9736727   2.466   5.861   5.600  1.8353 -1.2236  0.0899
  166MOL    H9836728   2.244   5.831   5.711  0.4756 -0.5376 -0.8889
  166MOL    H9936729   2.451   5.735   6.085  0.9408 -3.1379 -0.0409
  166MOL   H10036730   2.659   5.793   5.977  0.1367  0.1600 -0.7760
  166MOL   C10136731   2.959   6.101   5.810  0.2175 -0.2557  0.3622
  166MOL   C10236732   2.899   5.979   5.781  0.1744 -0.7341 -0.0695
  166MOL   C10336733   2.760   5.969   5.759  0.0276 -0.0831 -0.8615
  166MOL   C10436734   2.683   6.087   5.746 -0.1360 -0.2513 -0.6285
  166MOL   C10536735   2.742   6.214   5.783  0.5126  0.0416  0.1791
  166MOL   C10636736   2.878   6.219   5.807 -0.0943 -0.1356  0.5080
  166MOL   O10736737   2.932   6.342   5.835  0.2368  0.3419  0.5260
  166MOL   H10836738   3.067   6.111   5.818  0.4207 -1.3569 -0.8496
  166MOL   H10936739   2.952   5.886   5.797  3.2816  0.9470 -0.1717
  166MOL   H11036740   2.576   6.079   5.736 -0.0754 -1.9588  0.0192
  166MOL   H11136741   2.679   6.300   5.799  1.5039  0.3155  2.8387
  166MOL   C11236742   3.295   6.405   5.880  0.1699 -0.2453  0.0444
  166MOL   C11336743   3.160   6.377   5.909  0.1542  0.4676  0.2158
  166MOL   C11436744   3.066   6.364   5.804 -0.3406 -0.3730 -0.1230
  166MOL   C11536745   3.110   6.403   5.676 -0.0519 -0.1112  0.4700
  166MOL   C11636746   3.237   6.451   5.649 -0.3415  0.2548 -0.0754
  166MOL   C11736747   3.334   6.448   5.751  0.4034 -0.2186 -0.7333
  166MOL   O11836748   3.465   6.488   5.729 -0.4198  0.6040 -0.5639
  166MOL   H11936749   3.374   6.398   5.953  1.8205 -1.5180 -1.8181
  166MOL   H12036750   3.131   6.353   6.011  0.3028  0.8822  0.3585
  166MOL   H12136751   3.043   6.396   5.592  0.5326  1.0973 -0.1116
  166MOL   H12236752   3.276   6.491   5.557  1.2834 -1.7946 -0.3171
  166MOL   C12336753   3.686   6.562   5.456 -0.1379 -0.0121  0.0904
  166MOL   C12436754   3.620   6.577   5.574  0.0039  0.3103 -0.4885
  166MOL   C12536755   3.522   6.480   5.608  0.2637  0.0116  0.5277
  166MOL   C12636756   3.502   6.374   5.521 -0.3399 -0.5981  0.5485
  166MOL   C12736757   3.564   6.362   5.394 -0.0158 -0.3914 -0.5836
  166MOL   C12836758   3.657   6.458   5.358  0.0515 -0.3344  0.0292
  166MOL   O12936759   3.718   6.464   5.232 -0.0801 -0.4928 -0.2792
  166MOL   H13036760   3.762   6.630   5.422 -3.0957  3.3170 -0.1782
  166MOL   H13136761   3.656   6.658   5.636  1.2872 -0.5180 -0.1146
  166MOL   H13236762   3.433   6.296   5.548 -1.8877  0.8981  0.9769
  166MOL   H13336763   3.553   6.286   5.317  1.9042 -2.6263  1.2536
  166MOL   C13436764   3.439   6.583   5.017  0.1769  0.3719  0.7064
  166MOL   C13536765   3.512   6.562   5.137 -0.1125  0.1146  0.0197
  166MOL   C13636766   3.639   6.507   5.124 -0.2319 -1.2860 -0.4555
  166MOL   C13736767   3.703   6.499   4.997  0.7586  0.1958 -0.3542
  166MOL   C13836768   3.636   6.527   4.880  0.2872 -0.3086  0.1801
  166MOL   C13936769   3.504   6.569   4.892  0.1286 -0.0987  0.3742
  166MOL   O14036770   3.432   6.603   4.781 -0.0694  0.7649 -0.1400
  166MOL   H14136771   3.334   6.603   5.036  0.2292 -0.8458  2.3496
  166MOL   H14236772   3.455   6.574   5.228 -0.6845 -3.8224  0.2475
  166MOL   H14336773   3.795   6.443   5.006  0.1673 -0.5447  1.2785
  166MOL   H14436774   3.678   6.518   4.781 -1.6585  0.6449 -0.7791
  166MOL   C14536775   3.477   6.870   4.535  0.7592  0.3906  0.7792
  166MOL   C14636776   3.470   6.742   4.583 -0.1276  0.0826 -0.4716
  166MOL   C14736777   3.454   6.727   4.721 -0.6855 -0.1292 -0.1121
  166MOL   C14836778   3.435   6.836   4.810 -0.5067 -0.2642  0.2952
  166MOL   C14936779   3.454   6.968   4.756 -0.2279 -0.5972 -0.0028
  166MOL   C15036780   3.456   6.985   4.617 -0.3049  0.3395 -0.1150
  166MOL   O15136781   3.466   7.110   4.568 -0.6103 -0.1321 -0.4519
  166MOL   H15236782   3.494   6.889   4.430  1.9829 -2.4921  0.4134
  166MOL   H15336783   3.484   6.659   4.516  0.4345 -0.0838 -0.1445
  166MOL   H15436784   3.409   6.826   4.914 -1.7761  3.5404  0.4031
  166MOL   H15536785   3.447   7.050   4.826 -0.4157 -0.5561 -0.0702
  166MOL   C15636786   3.256   7.246   4.304 -0.1709  0.0251  0.4643
  166MOL   C15736787   3.367   7.203   4.374 -0.7611  0.1385  0.0120
  166MOL   C15836788   3.355   7.166   4.511 -0.2062  0.6159  0.6706
  166MOL   C15936789   3.235   7.175   4.578  0.5694 -0.8375 -0.0473
  166MOL   C16036790   3.120   7.211   4.504 -0.0296 -0.1847 -0.3056
  166MOL   C16136791   3.135   7.249   4.371  0.2625 -0.0085  0.3097
  166MOL   O16236792   3.031   7.268   4.292  0.3795 -0.3662  0.0181
  166MOL   H16336793   3.260   7.276   4.200 -0.8356  0.1819  0.4793
  166MOL   H16436794   3.461   7.180   4.326 -1.1110 -1.9359  0.2806
  166MOL   H16536795   3.225   7.121   4.670 -0.6336 -1.0109 -0.2639
  166MOL   H16636796   3.022   7.201   4.549  1.7291 -1.2342  3.4631
  166MOL   C16736797   2.695   7.422   4.286 -0.2114 -0.2755  0.9821
  166MOL   C16836798   2.808   7.337   4.260 -0.5154 -0.1642  0.5841
  166MOL   C16936799   2.925   7.347   4.330  0.0661  1.1055  0.6076
  166MOL   C17036800   2.935   7.453   4.418 -0.4035  0.1793  0.2449
  166MOL   C17136801   2.826   7.549   4.443  0.5510 -0.4342 -0.2163
  166MOL   C17236802   2.703   7.528   4.376 -0.0688 -0.0776  0.5092
  166MOL   O17336803   2.594   7.608   4.395  0.1407  0.0253  0.2491
  166MOL   H17436804   2.602   7.417   4.232 -0.4502  2.4231  1.0579
  166MOL   H17536805   2.806   7.260   4.184 -0.3129  1.3579 -1.0105
  166MOL   H17636806   3.026   7.475   4.472  0.0387 -0.4583 -0.2353
  166MOL   H17736807   2.824   7.622   4.522  0.3072  0.0476 -0.6635
  166MOL   C17836808   2.525   7.583   4.754  0.8309 -0.4964 -0.0194
  166MOL   C17936809   2.564   7.544   4.631 -0.8115 -0.3154  0.2727
  166MOL   C18036810   2.540   7.631   4.523  0.8053  0.1766  0.3643
  166MOL   C18136811   2.461   7.747   4.547  0.3022 -0.5672  0.2079
  166MOL   C18236812   2.407   7.774   4.676  0.3737  1.2131 -0.6558
  166MOL   C18336813   2.445   7.696   4.781  0.1803  0.2922 -0.5178
  166MOL   O18436814   2.406   7.715   4.908  1.7392 -0.3284  0.1355
  166MOL   H18536815   2.544   7.509   4.830  1.6308 -0.2633  0.0127
  166MOL   H18636816   2.619   7.451   4.623 -0.2683  0.0569 -0.3112
  166MOL   H18736817   2.440   7.814   4.465 -1.1493 -0.9681  0.2338
  166MOL   H18836818   2.350   7.862   4.702 -0.0614  1.0389 -1.0147
  166MOL   C18936819   2.095   7.517   4.951  0.4907 -0.0051 -0.1701
  166MOL   C19036820   2.196   7.593   4.887 -0.0769  0.2551  0.1836
  166MOL   C19136821   2.305   7.641   4.965 -0.3034 -0.0148  0.6264
  166MOL   C19236822   2.311   7.616   5.104 -0.4591  0.0111 -0.3143
  166MOL   C19336823   2.200   7.549   5.167 -0.0624  0.2140  0.5103
  166MOL   C19436824   2.096   7.504   5.086 -0.2407 -0.0342  0.3352
  166MOL   O19536825   1.993   7.436   5.151 -0.3732  0.0598  0.0989
  166MOL   H19636826   2.011   7.488   4.890  1.2570 -1.6444 -0.4641
  166MOL   H19736827   2.200   7.608   4.780 -0.8902  0.4118  0.1688
  166MOL   H19836828   2.399   7.648   5.157  1.3890  0.8182 -3.6870
  166MOL   H19936829   2.207   7.526   5.272 -2.0659 -0.4055  0.5329
  166MOL   C20036830   1.783   7.686   5.334 -0.6911 -0.3325 -0.0306
  166MOL   C20136831   1.855   7.626   5.229 -0.1692 -0.5609  0.5181
  166MOL   C20236832   1.922   7.501   5.247 -0.5486 -0.5649 -0.3932
  166MOL   C20336833   1.909   7.437   5.372  0.1895 -0.2095 -0.3090
  166MOL   C20436834   1.850   7.499   5.481 -0.4194 -0.8168  0.4338
  166MOL   C20536835   1.780   7.620   5.460  0.2552  0.2983 -0.0264
  166MOL   O20636836   1.703   7.672   5.558  0.2443 -0.0086  0.1031
  166MOL   H20736837   1.731   7.779   5.317  1.3717  0.8580  0.1244
  166MOL   H20836838   1.854   7.677   5.134 -0.4450  3.7765  2.7246
  166MOL   H20936839   1.975   7.353   5.387 -2.1447 -1.7557  1.6710
  166MOL   H21036840   1.855   7.451   5.577 -3.4365 -2.3776 -0.1295
  166MOL   C21136841   1.877   7.897   5.781 -0.6009 -0.0289 -0.4184
  166MOL   C21236842   1.811   7.851   5.667 -0.3418 -0.6189 -0.1288
  166MOL   C21336843   1.772   7.715   5.667  0.1586  0.1176  0.7749
  166MOL   C21436844   1.779   7.636   5.779 -0.5766  0.0961  0.1394
  166MOL   C21536845   1.849   7.684   5.895  0.2447  0.3667 -0.5834
  166MOL   C21636846   1.893   7.816   5.899 -0.0745 -0.4801  0.4485
  166MOL   O21736847   1.949   7.867   6.013 -0.2941 -0.2398  0.6769
  166MOL   H21836848   1.907   8.001   5.780  0.6100 -0.3595  0.3757
  166MOL   H21936849   1.803   7.917   5.582  1.3583 -0.0105  0.1565
  166MOL   H22036850   1.744   7.534   5.775  0.7297 -0.3540 -0.3028
  166MOL   H22136851   1.875   7.621   5.979 -1.4099  2.3200  1.4473
  166MOL   H22236852   1.958   7.792   6.069 -1.2077 -2.7688 -2.4022
  167MOL     C136853   6.549   3.959   7.505 -0.1938  0.0392  1.0266
  167MOL     C236854   6.690   3.980   7.518 -0.2785 -0.1922 -0.1224
  167MOL     C336855   6.765   3.918   7.618 -0.2855  0.1974  0.4767
  167MOL     C436856   6.701   3.838   7.710  0.1397 -0.0129  0.4289
  167MOL     C536857   6.568   3.805   7.694 -0.3032 -0.0801 -0.3984
  167MOL     C636858   6.487   3.868   7.595  0.4366  0.1232  0.6199
  167MOL     O736859   6.354   3.844   7.583  0.3964  0.0434 -0.1782
  167MOL     H836860   6.494   4.008   7.426  0.5175 -0.5272  0.1703
  167MOL     H936861   6.730   4.053   7.450 -1.5525  0.8905  0.2733
  167MOL    H1036862   6.753   3.792   7.792 -0.3683  0.2504  0.9001
  167MOL    H1136863   6.538   3.732   7.768 -1.1564  1.1894  0.5177
  167MOL    H1236864   6.870   3.939   7.629  0.0924 -1.3865  0.0842
  167MOL    C1336865   6.219   3.889   7.922 -0.0728 -0.1512 -0.4991
  167MOL    C1436866   6.297   3.909   7.807  0.1659 -0.3270  0.0091
  167MOL    C1536867   6.277   3.826   7.693 -0.1896  0.3458 -0.6550
  167MOL    C1636868   6.174   3.733   7.694  0.4145 -0.3745  0.7859
  167MOL    C1736869   6.081   3.721   7.802 -0.0807  0.3960  0.2544
  167MOL    C1836870   6.102   3.807   7.910 -0.3744  0.4292  0.4635
  167MOL    O1936871   6.015   3.806   8.013 -0.5277  0.2356 -0.3465
  167MOL    H2036872   6.231   3.939   8.017 -0.2701 -0.9932 -0.0287
  167MOL    H2136873   6.379   3.980   7.809 -0.1609  0.1094 -1.5433
  167MOL    H2236874   6.161   3.685   7.598 -0.7659 -0.3832  0.9422
  167MOL    H2336875   5.988   3.667   7.806 -0.2342  0.6925  0.7326
  167MOL    C2436876   6.109   3.506   8.219  0.0589 -0.2270 -0.4200
  167MOL    C2536877   6.059   3.584   8.109  0.0990  0.1418 -0.1229
  167MOL    C2636878   6.047   3.724   8.123 -0.5356 -0.4806 -0.3901
  167MOL    C2736879   6.078   3.782   8.249  0.2423  0.5557  0.2214
  167MOL    C2836880   6.127   3.702   0.102  0.3601  0.7829  0.6145
  167MOL    C2936881   6.140   3.564   0.090  0.1459 -0.4099  0.4252
  167MOL    O3036882   6.168   3.477   0.199 -0.4534  0.2495 -0.0098
  167MOL    H3136883   6.125   3.400   8.207 -1.4628 -0.9671  3.3127
  167MOL    H3236884   6.055   3.524   8.019 -0.9327  0.7218 -0.4825
  167MOL    H3336885   6.060   3.889   0.005 -0.7465  0.3067  1.3049
  167MOL    H3436886   6.156   3.758   0.190 -0.2970  1.4926  0.3759
  167MOL    C3536887   6.521   3.374   0.140  0.0446  0.4076 -0.5990
  167MOL    C3636888   6.406   3.462   0.150  0.4021 -0.0102 -0.1563
  167MOL    C3736889   6.282   3.404   0.186 -0.1840 -0.0795  0.3310
  167MOL    C3836890   6.271   3.270   0.218 -0.5319  0.5994 -0.4222
  167MOL    C3936891   6.382   3.191   0.204  0.5593 -0.1997 -0.6244
  167MOL    C4036892   6.510   3.236   0.166  1.2439  0.6939  0.2651
  167MOL    O4136893   6.621   3.153   0.155  0.0527 -0.1313  0.5232
  167MOL    H4236894   6.619   3.403   0.104  0.6166 -1.4482 -0.5941
  167MOL    H4336895   6.419   3.567   0.127 -0.7298  0.5046  1.4826
  167MOL    H4436896   6.179   3.220   0.245  0.2510 -0.9726 -0.5627
  167MOL    H4536897   6.369   3.085   0.219  0.4236 -0.2835 -1.3314
  167MOL    C4636898   6.772   2.908   0.377 -0.1536 -0.4401 -0.0460
  167MOL    C4736899   6.722   2.968   0.259  0.1753 -0.1292  0.7226
  167MOL    C4836900   6.680   3.098   0.264 -0.1565  0.0539 -0.0803
  167MOL    C4936901   6.694   3.179   0.379  0.0547 -0.1561  0.8001
  167MOL    C5036902   6.748   3.121   0.494 -0.0278  0.7092 -0.2188
  167MOL    C5136903   6.786   2.986   0.492  0.2341 -0.5923 -0.4068
  167MOL    O5236904   6.831   2.936   0.612 -0.1672 -0.2708  0.3925
  167MOL    H5336905   6.801   2.805   0.369 -1.1103 -0.8864  1.8052
  167MOL    H5436906   6.709   2.907   0.171 -0.1889  2.0694 -0.7697
  167MOL    H5536907   6.654   3.280   0.374 -1.8133 -0.9594 -1.7302
  167MOL    H5636908   6.746   3.188   0.580  1.0171  1.6456 -0.9134
  167MOL    C5736909   7.060   2.646   0.617 -0.3745 -0.2595 -0.7877
  167MOL    C5836910   7.013   2.781   0.625 -0.0933  0.0703  0.1238
  167MOL    C5936911   6.874   2.807   0.618 -0.2714  0.3801  0.1426
  167MOL    C6036912   6.784   2.698   0.624 -0.8147  0.1616 -0.1130
  167MOL    C6136913   6.831   2.565   0.625 -0.0779  0.1194 -0.3686
  167MOL    C6236914   6.970   2.543   0.621 -0.6345 -0.0420  0.0092
  167MOL    O6336915   7.017   2.413   0.632 -0.1720  0.2859 -0.4217
  167MOL    H6436916   7.167   2.630   0.615  0.1505  2.4762  2.1234
  167MOL    H6536917   7.079   2.866   0.626  1.5412 -1.1762  1.0311
  167MOL    H6636918   6.677   2.707   0.638 -0.5173  1.8043  1.1659
  167MOL    H6736919   6.762   2.484   0.638  1.3743 -0.7763  1.9206
  167MOL    C6836920   7.257   2.226   0.414  0.1666  0.2722  0.2911
  167MOL    C6936921   7.192   2.268   0.531  0.6636 -0.6589 -0.1668
  167MOL    C7036922   7.082   2.359   0.522  0.1269 -0.0462 -0.3438
  167MOL    C7136923   7.035   2.397   0.392  0.2491 -0.4481 -0.0094
  167MOL    C7236924   7.088   2.335   0.275  0.3845 -0.0561  0.5289
  167MOL    C7336925   7.204   2.253   0.286 -0.2885  0.4749 -0.2711
  167MOL    O7436926   7.260   2.182   0.181  0.1204 -0.6113 -0.2641
  167MOL    H7536927   7.341   2.158   0.416  0.8658  1.1386  0.3778
  167MOL    H7636928   7.232   2.253   0.630 -1.0497 -1.6102  0.4033
  167MOL    H7736929   6.965   2.476   0.368 -0.8364 -1.6423 -0.8489
  167MOL    H7836930   7.044   2.355   0.179  1.9172  0.2893 -0.1098
  167MOL    C7936931   7.124   2.010   8.143  0.4177  0.3358  0.4882
  167MOL    C8036932   7.209   2.089   8.221  0.6386  0.2273  0.4760
  167MOL    C8136933   7.184   2.103   0.103 -0.2970  0.1491 -0.5714
  167MOL    C8236934   7.078   2.030   0.165 -0.1501  0.2282 -0.1201
  167MOL    C8336935   7.003   1.933   0.088  0.1664  0.1674 -0.1527
  167MOL    C8436936   7.024   1.925   8.202  0.0597 -0.5268  0.2092
  167MOL    O8536937   6.948   1.847   8.118 -0.1976 -0.0570 -0.0871
  167MOL    H8636938   7.136   2.008   8.036 -0.1094  2.8246  0.3493
  167MOL    H8736939   7.276   2.159   8.173  3.0767 -1.1484  1.8010
  167MOL    H8836940   7.061   2.027   0.272 -0.8515 -2.9762 -0.2680
  167MOL    H8936941   6.922   1.878   0.132  0.1038 -1.0437 -1.7450
  167MOL    C9036942   6.674   1.633   8.224  0.1437  0.5972 -0.1967
  167MOL    C9136943   6.747   1.751   8.195  0.7188  0.2695  0.4263
  167MOL    C9236944   6.884   1.738   8.167  0.7009  0.4227 -0.3170
  167MOL    C9336945   6.948   1.609   8.177  0.2612 -0.1759  0.8046
  167MOL    C9436946   6.873   1.498   8.212  0.2940  0.6922  0.2159
  167MOL    C9536947   6.735   1.510   8.231  0.1145 -1.2311 -0.2606
  167MOL    O9636948   6.669   1.392   8.253  0.1567  0.3375  0.1190
  167MOL    H9736949   6.566   1.638   8.228 -0.0302 -0.9460 -2.1188
  167MOL    H9836950   6.697   1.845   8.180 -0.7943 -0.5671  0.0786
  167MOL    H9936951   7.053   1.598   8.155  0.2797  1.5400 -0.0840
  167MOL   H10036952   6.903   1.395   8.223 -2.0285  0.2165  2.5069
  167MOL   C10136953   6.299   1.344   0.017  0.1322 -1.1239  0.3721
  167MOL   C10236954   6.428   1.356   8.217  0.5570 -0.0047 -0.0285
  167MOL   C10336955   6.537   1.390   0.046  0.1914  0.5557  0.7702
  167MOL   C10436956   6.509   1.433   0.179 -0.5942  0.3133 -0.0990
  167MOL   C10536957   6.376   1.432   0.231  1.1543 -0.1770  0.1901
  167MOL   C10636958   6.275   1.381   0.150 -0.5793  0.4269  1.0780
  167MOL   O10736959   6.146   1.358   0.199 -0.4998 -0.1241 -1.0351
  167MOL   H10836960   6.225   1.301   8.204 -2.6308  0.7726  2.0991
  167MOL   H10936961   6.422   1.319   8.116  2.6772 -0.5543  0.0236
  167MOL   H11036962   6.587   1.459   0.248  0.5369 -0.2520 -1.1484
  167MOL   H11136963   6.359   1.462   0.333  1.8169 -0.6771  0.4580
  167MOL   C11236964   6.123   1.290   0.561  0.0582 -0.2374  0.6862
  167MOL   C11336965   6.160   1.282   0.427  0.3432  0.2982  0.0548
  167MOL   C11436966   6.113   1.371   0.331  0.0894 -0.7773  0.1627
  167MOL   C11536967   6.024   1.477   0.366  0.1770 -0.3192  0.4925
  167MOL   C11636968   5.983   1.477   0.500 -0.2507  0.1052  0.3596
  167MOL   C11736969   6.026   1.387   0.597 -0.7187  1.0890 -0.4221
  167MOL   O11836970   5.984   1.407   0.730  0.1996  0.1161  0.1207
  167MOL   H11936971   6.164   1.222   0.633 -0.3135 -1.4414 -0.2287
  167MOL   H12036972   6.234   1.206   0.405  1.1452  1.4640 -1.3705
  167MOL   H12136973   5.984   1.552   0.300 -1.4110 -1.4847  0.1011
  167MOL   H12236974   5.916   1.555   0.533  1.2108  1.0948  1.0199
  167MOL   C12336975   6.178   1.673   0.899 -0.0991  0.2604  0.1675
  167MOL   C12436976   6.147   1.556   0.823 -0.0817 -0.2935  0.2818
  167MOL   C12536977   6.017   1.523   0.791 -0.0200 -0.5156 -0.2381
  167MOL   C12636978   5.916   1.604   0.850  0.3155 -0.1931 -0.2796
  167MOL   C12736979   5.935   1.719   0.926 -0.0124 -0.6300  0.2518
  167MOL   C12836980   6.074   1.756   0.944  0.4535  0.5706  0.0594
  167MOL   O12936981   6.106   1.873   1.007 -0.3044 -0.0227  0.4784
  167MOL   H13036982   6.278   1.709   0.918  0.2106 -0.4681 -0.0700
  167MOL   H13136983   6.225   1.494   0.780  0.0125  0.9393 -1.3753
  167MOL   H13236984   5.811   1.587   0.831 -0.2089 -1.3754  3.3890
  167MOL   H13336985   5.851   1.773   0.966  0.1898  1.5853 -2.1528
  167MOL   C13436986   6.007   1.863   1.367  0.1301  0.9264 -0.7709
  167MOL   C13536987   6.013   1.886   1.230 -0.1261  0.2408  0.3092
  167MOL   C13636988   6.122   1.862   1.147 -0.5357 -0.0638 -0.0685
  167MOL   C13736989   6.238   1.813   1.206  0.3370  0.7643 -0.3356
  167MOL   C13836990   6.244   1.805   1.349 -0.9871 -0.5919  0.7634
  167MOL   C13936991   6.132   1.825   1.430  0.3096  0.5374  0.3478
  167MOL   O14036992   6.140   1.809   1.565  0.2243  0.5067 -0.3578
  167MOL   H14136993   5.919   1.885   1.425 -0.0927 -3.1436  0.6152
  167MOL   H14236994   5.922   1.909   1.176  0.4545 -0.5021 -1.0159
  167MOL   H14336995   6.321   1.792   1.140  0.0681  0.8766 -0.7048
  167MOL   H14436996   6.338   1.778   1.395 -1.1630 -1.1568  0.7921
  167MOL   C14536997   6.030   2.065   1.801  0.5733  0.4784  0.2644
  167MOL   C14636998   6.034   1.946   1.728  0.3485 -0.1667  0.1245
  167MOL   C14736999   6.138   1.923   1.637 -0.5724  0.2977  0.4082
  167MOL   C14837000   6.237   2.020   1.617 -0.7418 -0.3684  0.0575
  167MOL   C14937001   6.234   2.140   1.692 -0.4271 -0.2179  0.2291
  167MOL   C15037002   6.128   2.162   1.784 -0.1808  0.5034  0.3612
  167MOL   O15137003   6.115   2.276   1.864 -0.4395  0.6314 -0.0991
  167MOL   H15237004   5.942   2.090   1.858 -1.8432 -0.6477 -2.8364
  167MOL   H15337005   5.963   1.867   1.746 -0.7750  1.4644  2.9660
  167MOL   H15437006   6.316   1.988   1.550  0.6908  0.4192  1.3354
  167MOL   H15537007   6.315   2.209   1.675  0.2960 -1.4072 -1.2627
  167MOL   C15637008   6.054   2.535   1.605 -0.4914  0.1357  0.4359
  167MOL   C15737009   6.056   2.411   1.674 -0.0464 -0.2201  0.6018
  167MOL   C15837010   6.120   2.398   1.801  0.2194  0.1565 -0.4133
  167MOL   C15937011   6.169   2.517   1.867 -0.4313 -0.0770  0.1998
  167MOL   C16037012   6.163   2.638   1.800  0.7436  0.1971 -0.4165
  167MOL   C16137013   6.117   2.643   1.665 -0.1380 -0.0434  0.4633
  167MOL   O16237014   6.109   2.764   1.606 -0.3516 -0.0700  0.7597
  167MOL   H16337015   5.998   2.540   1.513  1.0619  0.8079 -0.4857
  167MOL   H16437016   6.006   2.326   1.630  0.4737  0.8084 -2.0398
  167MOL   H16537017   6.210   2.515   1.967 -0.2621  2.9822  0.2377
  167MOL   H16637018   6.206   2.723   1.850 -1.1901 -0.0993  1.8262
  167MOL   C16737019   6.399   2.794   1.382  0.7458  0.4748  0.0778
  167MOL   C16837020   6.280   2.742   1.436 -0.7751  0.2729 -0.7418
  167MOL   C16937021   6.223   2.800   1.550 -0.0427 -0.0166 -0.2738
  167MOL   C17037022   6.283   2.916   1.602  0.6857  0.4026 -0.6104
  167MOL   C17137023   6.410   2.964   1.560  0.5757 -0.3503  0.0898
  167MOL   C17237024   6.470   2.897   1.446 -0.5843  0.7337 -0.8878
  167MOL   O17337025   6.594   2.934   1.397  0.5906 -0.3497  0.2218
  167MOL   H17437026   6.441   2.748   1.294  1.5316 -0.8583  1.1245
  167MOL   H17537027   6.227   2.661   1.389 -0.4052  0.0434 -0.7681
  167MOL   H17637028   6.243   2.967   1.688  1.1247 -1.3133  0.6473
  167MOL   H17737029   6.454   3.048   1.610 -1.5575  1.1998 -0.5538
  167MOL   C17837030   6.915   2.864   1.560  0.2358  0.5187 -0.1871
  167MOL   C17937031   6.811   2.927   1.495  0.6486 -0.6489  0.0419
  167MOL   C18037032   6.699   2.862   1.439 -0.3766  0.1163  0.3406
  167MOL   C18137033   6.702   2.719   1.444  0.4115  0.2981  0.1833
  167MOL   C18237034   6.808   2.651   1.503 -0.4145  0.2495  0.6431
  167MOL   C18337035   6.913   2.722   1.564  0.3383  0.0089  0.6597
  167MOL   O18437036   7.010   2.661   1.634 -0.4134  0.4251 -0.2386
  167MOL   H18537037   6.987   2.925   1.613 -0.5414  1.5554 -0.3095
  167MOL   H18637038   6.800   3.034   1.498 -0.0001 -0.6767 -1.2833
  167MOL   H18737039   6.621   2.660   1.404  0.2129 -0.2454  1.3744
  167MOL   H18837040   6.810   2.544   1.518  2.0405  0.1299 -0.2560
  167MOL   C18937041   7.255   2.519   1.399  0.3719 -0.3627  0.1699
  167MOL   C19037042   7.130   2.554   1.451  0.2403  0.3409  0.6005
  167MOL   C19137043   7.128   2.624   1.577 -0.1774 -0.2999 -0.0666
  167MOL   C19237044   7.246   2.655   1.638 -0.1283 -0.2850 -0.2166
  167MOL   C19337045   7.368   2.622   1.587 -0.0431  0.0168  0.2404
  167MOL   C19437046   7.374   2.554   1.464 -0.4201  0.4601 -0.2964
  167MOL   O19537047   7.497   2.524   1.407 -0.0588 -0.1681  0.3801
  167MOL   H19637048   7.268   2.466   1.306 -1.3667 -1.5625  0.5766
  167MOL   H19737049   7.035   2.544   1.401 -0.1632  4.1823  0.4468
  167MOL   H19837050   7.234   2.714   1.728 -1.5356 -0.7684 -0.0645
  167MOL   H19937051   7.461   2.657   1.630  0.0047  0.5873 -0.3186
  167MOL   C20037052   7.532   2.148   1.374  0.1398  0.3387 -0.0419
  167MOL   C20137053   7.504   2.284   1.350 -0.1001  0.3360  0.2739
  167MOL   C20237054   7.537   2.394   1.438  0.2585  0.1565  0.3628
  167MOL   C20337055   7.609   2.363   1.554  0.1360  0.4231 -0.1587
  167MOL   C20437056   7.646   2.226   1.573 -0.0006  0.1004  0.0085
  167MOL   C20537057   7.614   2.123   1.484  0.2389  0.0969 -0.3639
  167MOL   O20637058   7.657   1.999   1.501 -0.4803  0.3436  0.7609
  167MOL   H20737059   7.511   2.074   1.299 -2.0566 -0.6230  1.4730
  167MOL   H20837060   7.452   2.307   1.258 -0.5123 -2.0641 -0.1291
  167MOL   H20937061   7.655   2.431   1.624  1.0965 -2.0060  1.5966
  167MOL   H21037062   7.711   2.195   1.654  0.8980  2.1005  0.0831
  167MOL   C21137063   8.015   1.973   1.411 -0.0089  0.3804 -0.4615
  167MOL   C21237064   7.873   1.996   1.394 -0.8957  0.4062 -0.1520
  167MOL   C21337065   7.791   1.979   1.510 -0.9989 -0.1539 -0.6787
  167MOL   C21437066   7.852   1.944   1.629  0.2112  0.4824 -1.2260
  167MOL   C21537067   7.992   1.925   1.647 -1.0742 -0.1279  0.3728
  167MOL   C21637068   8.073   1.931   1.533  0.0380  0.9199 -0.4266
  167MOL   O21737069   8.212   1.912   1.550 -0.1725 -0.4954  0.0616
  167MOL   H21837070   8.072   1.980   1.319 -0.1124 -0.2624 -0.5751
  167MOL   H21937071   7.818   2.014   1.303  0.3241  3.2217 -0.3858
  167MOL   H22037072   7.785   1.935   1.714 -0.2080  0.1789 -1.5896
  167MOL   H22137073   8.049   1.902   1.736 -2.3896 -0.4106  1.1592
  167MOL   H22237074   8.226   1.860   1.628  1.3358 -1.0152 -0.5323
  168MOL     C137075   2.400   0.603   2.616  0.0659  0.0063 -0.3947
  168MOL     C237076   2.331   0.499   2.543  0.1705 -0.4220 -0.2994
  168MOL     C337077   2.211   0.535   2.476  0.1030  0.2086 -0.0624
  168MOL     C437078   2.160   0.666   2.492  0.3146  0.1209  0.0884
  168MOL     C537079   2.230   0.766   2.562 -0.1921 -0.8812 -0.3093
  168MOL     C637080   2.350   0.735   2.631 -0.2921 -0.4355  0.2302
  168MOL     O737081   2.408   0.836   2.706 -0.3238  0.2702  0.5935
  168MOL     H837082   2.491   0.580   2.670 -0.1838  1.1665  0.5411
  168MOL     H937083   2.371   0.401   2.525 -1.0827 -0.6284 -2.1386
  168MOL    H1037084   2.064   0.686   2.446 -0.8090 -0.9265  1.8960
  168MOL    H1137085   2.184   0.863   2.570 -0.2353 -1.0427  1.5599
  168MOL    H1237086   2.157   0.467   2.412 -0.7398  2.6116 -1.9785
  168MOL    C1337087   2.299   1.005   3.011  0.4168  0.5170  0.4349
  168MOL    C1437088   2.348   0.985   2.882 -0.7615 -0.0534 -0.3096
  168MOL    C1537089   2.356   0.853   2.831 -1.0011 -0.0087  0.3718
  168MOL    C1637090   2.325   0.739   2.913 -0.6114  0.4449 -0.4948
  168MOL    C1737091   2.262   0.762   3.040 -0.8491 -0.3459 -0.3260
  168MOL    C1837092   2.252   0.892   3.088 -0.2177 -0.7172  0.4357
  168MOL    O1937093   2.202   0.912   3.212 -0.4458 -0.6200  0.7414
  168MOL    H2037094   2.295   1.105   3.053  0.0331  0.8734 -0.4457
  168MOL    H2137095   2.392   1.060   2.817 -2.6978  1.0101 -0.4129
  168MOL    H2237096   2.340   0.636   2.883  0.7376  0.1174  1.2436
  168MOL    H2337097   2.234   0.674   3.097  0.0930  0.1485  0.9190
  168MOL    C2437098   1.839   0.859   3.208 -0.0247 -0.4668 -1.0355
  168MOL    C2537099   1.966   0.912   3.178  0.6876 -0.4879 -0.7782
  168MOL    C2637100   2.080   0.869   3.246 -0.5280 -0.8564 -0.0945
  168MOL    C2737101   2.064   0.774   3.345 -0.5943  0.0117 -0.3677
  168MOL    C2837102   1.935   0.724   3.387  0.2063  0.0607  0.4769
  168MOL    C2937103   1.819   0.763   3.314 -0.4959  0.7223  0.1366
  168MOL    O3037104   1.701   0.706   3.355  0.5580 -0.4468  0.2859
  168MOL    H3137105   1.749   0.880   3.153  0.0631 -0.5124 -1.1982
  168MOL    H3237106   1.979   0.987   3.101  1.1995  0.5804  0.3269
  168MOL    H3337107   2.147   0.731   3.400 -0.8413 -0.2463 -0.1905
  168MOL    H3437108   1.934   0.653   3.468  0.0357 -0.8284 -0.2939
  168MOL    C3537109   1.563   0.539   3.063 -0.0818  0.0994  0.8867
  168MOL    C3637110   1.655   0.587   3.155  0.0224  0.0083  0.8449
  168MOL    C3737111   1.608   0.677   3.253  0.3639  0.7639  0.1598
  168MOL    C3837112   1.473   0.725   3.247  0.5184  0.8919  0.5757
  168MOL    C3937113   1.386   0.690   3.146  0.3266 -0.3647 -0.2729
  168MOL    C4037114   1.430   0.597   3.047 -0.1831 -0.4202  0.1028
  168MOL    O4137115   1.356   0.554   2.944  1.3631  0.4181  0.1709
  168MOL    H4237116   1.601   0.466   2.992 -0.1756 -0.0533  0.9926
  168MOL    H4337117   1.756   0.550   3.161 -1.0927 -3.1238  1.4294
  168MOL    H4437118   1.439   0.793   3.324 -1.3899 -1.0854  1.5557
  168MOL    H4537119   1.286   0.731   3.144  0.2844 -0.4894 -0.7193
  168MOL    C4637120   1.038   0.715   2.869 -0.1024 -0.2889  0.1262
  168MOL    C4737121   1.170   0.695   2.886  0.0234 -0.0170 -0.1649
  168MOL    C4837122   1.221   0.580   2.944  0.3938  0.8055 -0.2475
  168MOL    C4937123   1.129   0.484   2.991  0.3935  0.5297  0.6722
  168MOL    C5037124   0.992   0.499   2.964  0.3242 -0.2651 -0.6171
  168MOL    C5137125   0.946   0.615   2.903  0.5125  0.3824 -0.5895
  168MOL    O5237126   0.815   0.624   2.866  0.7749  0.2280  0.3097
  168MOL    H5337127   1.008   0.807   2.821 -0.5537 -1.7183 -2.4084
  168MOL    H5437128   1.235   0.779   2.867 -0.3215  0.1875 -0.4477
  168MOL    H5537129   1.167   0.392   3.034 -1.3818  0.6300  2.5139
  168MOL    H5637130   0.919   0.427   2.999  1.3393 -0.4470  1.1728
  168MOL    C5737131   0.683   0.942   2.980  0.1886 -0.0453  0.5332
  168MOL    C5837132   0.756   0.824   2.976  0.0160 -0.6390  0.2946
  168MOL    C5937133   0.748   0.742   2.865  0.5447  0.4519  0.4657
  168MOL    C6037134   0.680   0.792   2.753 -0.6020  0.2324  0.8871
  168MOL    C6137135   0.606   0.912   2.753  0.8653  1.1701  0.1134
  168MOL    C6237136   0.599   0.981   2.873 -0.0579  0.1952  0.4340
  168MOL    O6337137   0.532   1.098   2.874 -0.0301 -0.4240 -0.0946
  168MOL    H6437138   0.688   1.006   3.067  0.6380 -2.9223  2.7056
  168MOL    H6537139   0.810   0.794   3.065 -1.0163 -0.9212  0.8250
  168MOL    H6637140   0.690   0.732   2.664 -2.5602  2.5535 -0.9717
  168MOL    H6737141   0.555   0.950   2.666 -1.4612 -1.6804  0.1344
  168MOL    C6837142   0.335   1.122   3.188 -0.9153 -0.2420 -0.2964
  168MOL    C6937143   0.443   1.138   3.100 -0.0433 -0.1470  0.0087
  168MOL    C7037144   0.424   1.112   2.964  0.2686  0.1265  0.5946
  168MOL    C7137145   0.298   1.088   2.915 -0.6504 -0.3811  0.3867
  168MOL    C7237146   0.183   1.084   3.004  0.0536 -0.0539 -0.4307
  168MOL    C7337147   0.206   1.103   3.144  0.4491  0.0212 -0.6180
  168MOL    O7437148   0.097   1.093   3.230 -0.3055 -0.9109  0.0295
  168MOL    H7537149   0.352   1.124   3.295  2.6497  0.0860 -0.8099
  168MOL    H7637150   0.544   1.153   3.135 -0.0270 -0.4087  0.0717
  168MOL    H7737151   0.284   1.072   2.809 -0.8255 -2.2370  0.6704
  168MOL    H7837152   0.083   1.068   2.966 -0.5409 -2.9557  2.1543
  168MOL    C7937153   0.008   0.735   3.191 -0.3297 -0.1576 -0.1433
  168MOL    C8037154   0.082   0.852   3.187 -0.2202 -0.3867  0.6600
  168MOL    C8137155   0.028   0.972   3.243  0.1326 -0.0214 -0.4512
  168MOL    C8237156   8.161   0.972   3.319 -0.0292  0.0943 -1.0586
  168MOL    C8337157   8.107   0.848   3.337  0.8379 -0.0973  0.1942
  168MOL    C8437158   8.155   0.728   3.280  0.0696 -0.2449 -0.3512
  168MOL    O8537159   8.082   0.613   3.292  0.2874  0.2956  0.6968
  168MOL    H8637160   0.040   0.646   3.140  2.6318  0.9904 -0.3785
  168MOL    H8737161   0.176   0.851   3.135  0.2615  2.3355  1.4228
  168MOL    H8837162   8.119   1.061   3.362  0.1923  0.5510 -1.7803
  168MOL    H8937163   8.013   0.849   3.391  0.2792  1.5426 -0.7853
  168MOL    C9037164   8.081   0.485   3.639  0.1985 -0.2464 -0.8130
  168MOL    C9137165   8.077   0.572   3.527 -0.5419 -0.0235  0.5139
  168MOL    C9237166   8.108   0.532   3.397 -0.6679 -0.3099 -0.1758
  168MOL    C9337167   8.170   0.407   3.377  1.1440 -0.4563 -0.4400
  168MOL    C9437168   8.174   0.324   3.495 -0.1979 -0.1188 -0.5112
  168MOL    C9537169   8.136   0.358   3.621 -1.0910 -0.1107 -1.1058
  168MOL    O9637170   8.162   0.262   3.714 -0.7288 -0.4050  0.4416
  168MOL    H9737171   8.044   0.519   3.735  1.3764 -1.6671  0.1545
  168MOL    H9837172   8.051   0.676   3.541  0.6606 -0.0466  3.3838
  168MOL    H9937173   8.208   0.372   3.282  1.3731  0.5488 -0.7256
  168MOL   H10037174   8.221   0.228   3.479 -2.2387 -1.4670  1.2737
  168MOL   C10137175   8.170   0.425   4.050  0.7597 -0.0847  0.4243
  168MOL   C10237176   8.189   0.407   3.909  0.7453  0.0884 -0.8732
  168MOL   C10337177   8.137   0.285   3.851 -0.0487 -0.2352  0.4296
  168MOL   C10437178   8.086   0.187   3.934 -0.1461  0.1880  0.1857
  168MOL   C10537179   8.080   0.199   4.073 -0.6152 -0.4269 -0.6505
  168MOL   C10637180   8.121   0.318   4.132 -0.2136 -0.2730  0.2328
  168MOL   O10737181   8.112   0.347   4.265 -0.5938 -0.1003  0.2712
  168MOL   H10837182   8.194   0.519   4.098 -0.8574  0.6916 -0.2789
  168MOL   H10937183   8.229   0.488   3.850  0.3844 -0.1592 -1.4595
  168MOL   H11037184   8.047   0.095   3.894 -1.3848 -0.0010  1.7529
  168MOL   H11137185   8.026   0.115   4.113 -0.6778 -0.9978 -1.9258
  168MOL   C11237186   0.116   0.372   4.532 -0.4380  0.5336 -0.0040
  168MOL   C11337187   0.003   0.400   4.453  0.3124 -0.0655  0.0071
  168MOL   C11437188   8.222   0.317   4.341 -0.1986 -0.0558  0.1922
  168MOL   C11537189   0.050   0.208   4.310 -0.4146  0.2573  0.3531
  168MOL   C11637190   0.166   0.181   4.383 -0.4702 -0.7416  0.3499
  168MOL   C11737191   0.193   0.256   4.503 -0.5914 -0.8007 -0.6932
  168MOL   O11837192   0.307   0.229   4.582  0.3773 -0.1050  0.3484
  168MOL   H11937193   0.133   0.443   4.611  1.2679  1.8402 -1.5126
  168MOL   H12037194   8.186   0.478   4.477  0.6198  0.2907 -0.2475
  168MOL   H12137195   0.032   0.144   4.225 -2.5300 -1.8618  2.3466
  168MOL   H12237196   0.224   0.092   4.364 -0.1615 -0.9262  2.0144
  168MOL   C12337197   0.469   8.164   4.663 -0.7619 -0.3404 -0.5999
  168MOL   C12437198   0.451   0.042   4.628  0.3977 -0.1094  0.8919
  168MOL   C12537199   0.321   0.099   4.626  0.3123  0.2255 -0.1391
  168MOL   C12637200   0.210   0.027   4.673  0.1463  0.9947 -0.2945
  168MOL   C12737201   0.228   8.147   4.721 -0.7299  0.7608 -0.3180
  168MOL   C12837202   0.359   8.087   4.707 -0.2658  0.3837 -0.5919
  168MOL   O12937203   0.382   7.957   4.745 -0.5249 -0.0439  0.2523
  168MOL   H13037204   0.568   8.122   4.669 -0.4171  0.7208  1.5545
  168MOL   H13137205   0.539   0.091   4.590 -0.0140  0.4629  0.6629
  168MOL   H13237206   0.111   0.070   4.671 -0.6606 -0.8002 -1.0063
  168MOL   H13337207   0.142   8.093   4.758  1.2349 -1.8011  0.6441
  168MOL   C13437208   0.420   7.871   5.113  0.8697 -0.7665 -0.1228
  168MOL   C13537209   0.451   7.918   4.984 -0.7472 -0.0556  0.4607
  168MOL   C13637210   0.356   7.920   4.877  0.6631 -0.1802  0.1177
  168MOL   C13737211   0.220   7.875   4.905  0.3617 -0.2287  0.4050
  168MOL   C13837212   0.192   7.831   5.038  0.7502 -0.2439  0.3002
  168MOL   C13937213   0.287   7.828   5.139 -0.8439 -0.3049  0.1531
  168MOL   O14037214   0.255   7.765   5.253  0.5722  0.0389  0.3629
  168MOL   H14137215   0.494   7.860   5.191  0.0061 -0.5319  0.7377
  168MOL   H14237216   0.549   7.961   4.969 -0.2264 -2.2025 -2.6995
  168MOL   H14337217   0.144   7.872   4.829  2.3136 -0.1277 -1.6232
  168MOL   H14437218   0.095   7.796   5.070 -0.4417  1.0388 -1.7719
  168MOL   C14537219   0.156   8.003   5.503 -0.1999 -0.1261  0.2485
  168MOL   C14637220   0.179   7.951   5.382 -0.2541 -0.3478 -0.5895
  168MOL   C14737221   0.263   7.836   5.370 -0.2746  0.3488  0.6056
  168MOL   C14837222   0.340   7.794   5.475  0.1836 -0.5927 -1.1101
  168MOL   C14937223   0.332   7.867   5.596  0.0521  0.4856  0.8490
  168MOL   C15037224   0.232   7.961   5.612 -0.2421  0.4616 -0.5864
  168MOL   O15137225   0.210   8.021   5.735 -0.3405  0.3398  0.1023
  168MOL   H15237226   0.084   8.083   5.490  1.9836  1.7515 -0.6275
  168MOL   H15337227   0.119   7.988   5.300  0.1951 -0.1801 -0.8406
  168MOL   H15437228   0.413   7.716   5.461 -0.3733 -1.1041 -1.1751
  168MOL   H15537229   0.408   7.838   5.666  1.0244 -0.0518 -0.4067
  168MOL   C15637230   8.171   8.250   5.730  0.3300  0.1202  0.3710
  168MOL   C15737231   8.242   8.129   5.749 -0.4479  1.0289 -0.1659
  168MOL   C15837232   0.134   8.134   5.744  0.0349 -0.1275  0.6605
  168MOL   C15937233   0.200   0.005   5.751 -0.1905  0.4452  0.4751
  168MOL   C16037234   0.128   0.125   5.738  0.3892  0.6200 -0.3416
  168MOL   C16137235   8.239   0.119   5.727  0.3091 -0.4166  0.3073
  168MOL   O16237236   8.170   0.239   5.714  0.0234 -0.2437  0.6527
  168MOL   H16337237   8.064   8.241   5.724  0.5473 -1.7292 -1.0534
  168MOL   H16437238   8.186   8.039   5.769 -0.9999  1.0600 -1.5363
  168MOL   H16537239   0.307   0.015   5.758 -0.0497 -0.7275  0.1893
  168MOL   H16637240   0.178   0.220   5.740  0.2075  0.7865 -2.7592
  168MOL   C16737241   7.882   0.314   5.484  0.9410  0.3307 -0.8273
  168MOL   C16837242   7.952   0.276   5.602  0.4471 -0.4082 -0.0590
  168MOL   C16937243   8.093   0.266   5.600  0.0474  0.3715  0.0607
  168MOL   C17037244   8.166   0.287   5.485 -0.5915 -0.4275 -0.3290
  168MOL   C17137245   8.095   0.328   5.371  0.2376  0.8717 -0.7107
  168MOL   C17237246   7.954   0.348   5.369 -0.5410 -0.3349  0.8472
  168MOL   O17337247   7.904   0.417   5.262  0.3204 -0.0275  0.1765
  168MOL   H17437248   7.777   0.337   5.491  0.9015  0.1046 -0.6865
  168MOL   H17537249   7.910   0.259   5.700  0.3410  1.6100  0.2566
  168MOL   H17637250   0.020   0.292   5.493 -0.5360  0.5612 -1.4444
  168MOL   H17737251   8.154   0.366   5.289  2.3035  0.2088  0.4150
  168MOL   C17837252   7.560   0.352   5.150  1.3584  0.1563 -0.0711
  168MOL   C17937253   7.667   0.412   5.224  0.5415  0.2778  0.6897
  168MOL   C18037254   7.794   0.363   5.204  0.4739 -0.6549  0.4644
  168MOL   C18137255   7.822   0.248   5.121  1.3044  0.9412  0.1544
  168MOL   C18237256   7.713   0.177   5.064  0.4111 -1.0897  0.0185
  168MOL   C18337257   7.583   0.234   5.071  0.0212  0.0838 -0.3403
  168MOL   O18437258   7.485   0.173   4.996  0.0998 -0.4351 -0.7168
  168MOL   H18537259   7.459   0.388   5.158  1.2479 -0.1045 -0.2705
  168MOL   H18637260   7.659   0.490   5.299 -1.2288 -0.6440  1.4927
  168MOL   H18737261   7.920   0.204   5.115  0.1819 -1.5723 -0.5748
  168MOL   H18837262   7.730   0.080   5.018 -1.8403 -1.8059  0.6646
  168MOL   C18937263   7.129   0.267   4.994 -0.5475  0.3665 -0.6465
  168MOL   C19037264   7.248   0.201   5.021 -0.0768  0.2185 -0.1037
  168MOL   C19137265   7.370   0.236   4.959 -1.0888 -0.7761  0.2215
  168MOL   C19237266   7.367   0.344   4.870  0.5812 -0.9256 -0.2632
  168MOL   C19337267   7.253   0.415   4.848 -0.1349  0.2435 -1.0985
  168MOL   C19437268   7.134   0.375   4.903  0.5428 -1.1870  0.3687
  168MOL   O19537269   7.013   0.437   4.884  0.5839 -0.1952 -0.1158
  168MOL   H19637270   7.040   0.239   5.049  0.1566 -2.4844 -0.8401
  168MOL   H19737271   7.263   0.119   5.090  2.1740 -0.3399 -1.2016
  168MOL   H19837272   7.454   0.377   4.815  0.0085  0.6857 -0.2249
  168MOL   H19937273   7.252   0.506   4.788  3.0522  0.3759 -1.0571
  168MOL   C20037274   6.932   0.773   4.758 -0.5615  0.1143  0.2920
  168MOL   C20137275   6.966   0.668   4.839 -0.1008 -0.6834 -0.9671
  168MOL   C20237276   6.983   0.537   4.796  0.8588  0.1914 -0.2270
  168MOL   C20337277   6.974   0.517   4.657 -0.3379  0.0421  0.0551
  168MOL   C20437278   6.973   0.629   4.569 -0.0781  0.3848  0.2791
  168MOL   C20537279   6.941   0.756   4.616 -0.4694 -0.2937  0.0222
  168MOL   O20637280   6.912   0.862   4.532  0.7129 -0.0450 -0.1357
  168MOL   H20737281   6.907   0.874   4.789 -0.2043  0.3277 -0.1134
  168MOL   H20837282   6.971   0.682   4.946 -1.6629  1.2443 -1.0999
  168MOL   H20937283   7.008   0.419   4.629  0.7483  0.1374  0.9903
  168MOL   H21037284   6.978   0.606   4.464 -0.0925 -0.0657  0.3759
  168MOL   C21137285   7.239   1.010   4.435  0.1474 -0.0666 -1.1296
  168MOL   C21237286   7.142   0.921   4.475  0.5332  0.0849  0.2985
  168MOL   C21337287   7.011   0.961   4.513  0.9498  0.2288  0.6223
  168MOL   C21437288   6.976   1.097   4.512 -0.1561  0.4619  0.6834
  168MOL   C21537289   7.073   1.190   4.469  0.0756 -0.0940 -0.4827
  168MOL   C21637290   7.202   1.148   4.429 -0.5043 -0.4125  1.4807
  168MOL   O21737291   7.291   1.253   4.391  0.6142 -0.1658  0.0978
  168MOL   H21837292   7.341   0.979   4.419  0.6652 -1.6543  4.0801
  168MOL   H21937293   7.173   0.818   4.484 -2.0231 -0.6278  1.2532
  168MOL   H22037294   6.882   1.133   4.550  0.0591  2.1279 -0.3315
  168MOL   H22137295   7.058   1.294   4.493  0.4679 -0.5530  1.8664
  168MOL   H22237296   7.360   1.226   4.333 -0.1758  0.3206 -1.0732
  169MOL     C137297   1.039   6.871   6.634  0.6864 -0.2248  0.0735
  169MOL     C237298   1.159   6.869   6.702 -0.3044 -0.3533  0.0112
  169MOL     C337299   1.262   6.963   6.664  0.2317  0.1147 -0.2324
  169MOL     C437300   1.240   7.050   6.554 -0.3794  0.2309 -0.6914
  169MOL     C537301   1.126   7.033   6.476  0.2419  0.3675  0.8743
  169MOL     C637302   1.029   6.940   6.512 -0.1311 -0.0900 -0.8656
  169MOL     O737303   0.920   6.924   6.429  0.1564  0.2040 -0.1521
  169MOL     H837304   0.961   6.799   6.651 -0.8209  1.4231  0.2861
  169MOL     H937305   1.170   6.812   6.793  1.1114  0.7522  0.5543
  169MOL    H1037306   1.323   7.116   6.529 -0.7805  0.2300 -2.0815
  169MOL    H1137307   1.111   7.094   6.388  1.5167  0.7696  0.9227
  169MOL    H1237308   1.353   6.962   6.722 -0.7195 -0.8280  1.3016
  169MOL    C1337309   0.667   7.171   6.534 -0.2558 -0.5576  0.1078
  169MOL    C1437310   0.774   7.081   6.543 -0.3332  0.4055 -0.5677
  169MOL    C1537311   0.827   7.027   6.426 -0.2656  0.0158 -0.6502
  169MOL    C1637312   0.776   7.065   6.305  0.3967 -0.3466  0.5161
  169MOL    C1737313   0.665   7.153   6.293 -0.6090 -0.3721 -0.1892
  169MOL    C1837314   0.601   7.201   6.412  0.1115 -0.1953 -0.2037
  169MOL    O1937315   0.490   7.281   6.418 -0.0663 -0.0696 -0.0318
  169MOL    H2037316   0.621   7.193   6.630 -0.3552 -0.0498 -0.0559
  169MOL    H2137317   0.804   7.048   6.641  0.5511  1.3476 -0.5060
  169MOL    H2237318   0.825   7.023   6.218 -1.6958 -1.1042 -0.3297
  169MOL    H2337319   0.636   7.188   6.195 -1.3893  1.2389  0.6042
  169MOL    C2437320   0.464   7.528   6.689 -0.4938  0.4298  0.2613
  169MOL    C2537321   0.451   7.410   6.610  0.3405 -0.7673  0.6329
  169MOL    C2637322   0.506   7.403   6.479 -0.5374 -0.0527 -0.8859
  169MOL    C2737323   0.582   7.512   6.422  0.0786 -0.3808  0.2889
  169MOL    C2837324   0.608   7.620   6.513  0.6035  0.3445  0.5542
  169MOL    C2937325   0.549   7.626   6.646  0.3091 -1.5725 -0.2450
  169MOL    O3037326   0.578   7.726   6.731  0.0448 -0.7089 -0.5847
  169MOL    H3137327   0.419   7.526   6.787 -0.9907 -2.6362  0.0202
  169MOL    H3237328   0.383   7.336   6.648 -0.7189 -0.8794 -1.4356
  169MOL    H3337329   0.627   7.505   6.324  0.1703 -0.6960  0.3527
  169MOL    H3437330   0.683   7.692   6.483  0.1710  1.4445  2.0844
  169MOL    C3537331   0.930   7.669   6.835 -0.7188  0.3396 -0.0890
  169MOL    C3637332   0.800   7.642   6.783 -0.8403  0.0630 -0.2515
  169MOL    C3737333   0.712   7.746   6.762 -0.1641 -0.2875 -0.0576
  169MOL    C3837334   0.748   7.877   6.788  0.1805 -0.4287 -0.3680
  169MOL    C3937335   0.873   7.910   6.838 -0.8315  0.2514 -0.0873
  169MOL    C4037336   0.966   7.804   6.856 -0.1892  0.1926  0.4503
  169MOL    O4137337   1.089   7.827   6.915  0.0900 -0.1355 -0.0765
  169MOL    H4237338   0.987   7.584   6.869  0.2792  1.1538  0.2903
  169MOL    H4337339   0.767   7.540   6.767 -0.7153 -0.0151 -0.0056
  169MOL    H4437340   0.673   7.954   6.774 -0.0347 -0.0870  2.4192
  169MOL    H4537341   0.908   8.009   6.865 -1.6240  0.5530 -0.1380
  169MOL    C4637342   1.335   7.767   6.645 -0.0423 -0.0009  0.3264
  169MOL    C4737343   1.216   7.765   6.711  0.3622 -0.2621  0.0317
  169MOL    C4837344   1.203   7.821   6.837  0.6229  0.5335  0.2303
  169MOL    C4937345   1.322   7.855   6.903 -0.3045  0.3632  0.5923
  169MOL    C5037346   1.445   7.841   6.843  0.4685  0.0532  0.2550
  169MOL    C5137347   1.454   7.811   6.708  0.6297 -0.8485  0.2666
  169MOL    O5237348   1.568   7.818   6.641  0.3414  0.0835  0.0111
  169MOL    H5337349   1.325   7.742   6.541 -1.6394 -0.8205  0.6484
  169MOL    H5437350   1.135   7.723   6.654 -0.5790 -1.5522  2.2670
  169MOL    H5537351   1.311   7.897   7.002  0.3909 -0.1535  0.8926
  169MOL    H5637352   1.529   7.885   6.896 -0.1421  0.3477  0.9880
  169MOL    C5737353   1.576   8.050   6.340 -0.3627 -0.1537 -0.6668
  169MOL    C5837354   1.554   7.931   6.421  0.4908 -0.2673 -0.2438
  169MOL    C5937355   1.596   7.925   6.562  0.0301  0.0801 -0.2584
  169MOL    C6037356   1.670   8.032   6.614 -0.2069  0.1008 -0.4434
  169MOL    C6137357   1.684   8.151   6.537  0.6143  0.0376 -0.4279
  169MOL    C6237358   1.644   8.157   6.400 -0.1197 -0.0346  0.4509
  169MOL    O6337359   1.683   0.016   6.339  0.1135  0.0233  0.5745
  169MOL    H6437360   1.543   8.043   6.238 -0.1010 -0.0142 -0.7609
  169MOL    H6537361   1.505   7.846   6.375  1.7651 -0.3258 -1.5295
  169MOL    H6637362   1.702   8.028   6.717  0.1437  3.0516 -0.3739
  169MOL    H6737363   1.737   8.228   6.591 -1.1924  1.4770 -0.6490
  169MOL    C6837364   1.794   8.183   5.994  0.1779  0.0317  0.6243
  169MOL    C6937365   1.761   8.160   6.131  0.1076 -0.1091  0.3025
  169MOL    C7037366   1.704   0.019   6.204 -0.4830 -1.0227  0.3948
  169MOL    C7137367   1.665   0.138   6.136 -0.1170  0.3371 -0.0482
  169MOL    C7237368   1.701   0.153   6.000 -0.1522  0.4126 -0.0842
  169MOL    C7337369   1.764   0.050   5.929  0.2231 -1.0752  0.0872
  169MOL    O7437370   1.815   0.065   5.808 -0.0061  0.3110  0.7479
  169MOL    H7537371   1.850   8.110   5.938  3.5253  0.5271  3.1471
  169MOL    H7637372   1.795   8.073   6.185  0.9421 -0.2625 -0.4701
  169MOL    H7737373   1.619   0.217   6.195 -1.1481  0.0683 -0.4963
  169MOL    H7837374   1.675   0.248   5.956  0.9831  0.2359 -1.1592
  169MOL    C7937375   1.947   0.394   5.733  0.4488 -0.0211 -0.2793
  169MOL    C8037376   1.857   0.286   5.739  0.8265 -0.0878  0.1361
  169MOL    C8137377   1.905   0.164   5.779 -0.3787 -1.0301  0.3545
  169MOL    C8237378   2.041   0.140   5.794 -0.0510  0.2746  0.5933
  169MOL    C8337379   2.127   0.244   5.782  0.7461 -0.4452  0.2236
  169MOL    C8437380   2.084   0.380   5.752  0.3590 -0.1262  0.6367
  169MOL    O8537381   2.170   0.484   5.740  0.1449 -0.1813 -0.4439
  169MOL    H8637382   1.910   0.491   5.702 -1.1745 -0.4747  0.2130
  169MOL    H8737383   1.750   0.293   5.722  0.4370  1.5104  2.9020
  169MOL    H8837384   2.081   0.050   5.838 -3.1243 -1.3187  0.2359
  169MOL    H8937385   2.233   0.233   5.802  0.9416 -0.8854 -0.9724
  169MOL    C9037386   2.402   0.438   5.455  0.0627  0.0288  0.3841
  169MOL    C9137387   2.286   0.446   5.533 -0.4654  0.9149 -0.4478
  169MOL    C9237388   2.292   0.471   5.671 -0.4084  0.4078  0.9639
  169MOL    C9337389   2.415   0.478   5.736 -0.2303  0.0096 -0.1833
  169MOL    C9437390   2.527   0.474   5.664 -0.4142  0.3987  0.2402
  169MOL    C9537391   2.520   0.442   5.526  0.0211  0.2030 -0.2732
  169MOL    O9637392   2.631   0.419   5.449  0.2981 -0.6985 -0.8981
  169MOL    H9737393   2.398   0.420   5.348  0.9552 -1.2737  0.5710
  169MOL    H9837394   2.188   0.448   5.488 -0.2479 -2.0442 -1.1694
  169MOL    H9937395   2.423   0.499   5.842 -0.4988  1.2030 -0.3965
  169MOL   H10037396   2.624   0.478   5.710 -1.3180 -2.3792  2.4811
  169MOL   C10137397   2.925   0.221   5.550  0.0173  0.3985  0.2020
  169MOL   C10237398   2.849   0.327   5.517  0.1472 -0.1271  0.6860
  169MOL   C10337399   2.710   0.310   5.481 -0.2642 -0.3394 -0.6084
  169MOL   C10437400   2.653   0.180   5.481 -0.3460  0.3929 -0.2503
  169MOL   C10537401   2.731   0.072   5.531  0.3088 -0.2253  0.1118
  169MOL   C10637402   2.866   0.097   5.568  0.1515 -0.4923 -0.3287
  169MOL   O10737403   2.948   8.245   5.609 -0.2637 -0.2634 -0.3483
  169MOL   H10837404   3.020   0.229   5.599 -0.1007 -1.9179  0.8635
  169MOL   H10937405   2.901   0.421   5.515 -2.2845  1.2502 -0.3109
  169MOL   H11037406   2.548   0.167   5.460 -0.5389 -1.8374  1.9267
  169MOL   H11137407   2.682   8.230   5.544 -1.2022  0.5644  0.3378
  169MOL   C11237408   2.850   8.168   5.951  0.6123  0.2199  0.1140
  169MOL   C11337409   2.843   8.230   5.832  0.2085  0.0970  0.4506
  169MOL   C11437410   2.944   8.197   5.739 -0.2377 -0.2667  0.3058
  169MOL   C11537411   3.045   8.102   5.772 -0.1119 -0.0375  0.7310
  169MOL   C11637412   3.049   8.031   5.895 -0.4566 -0.5917 -1.0086
  169MOL   C11737413   2.945   8.067   5.985 -0.0725  0.2030  0.0774
  169MOL   O11837414   2.945   8.008   6.104  0.5814  0.0594  0.0662
  169MOL   H11937415   2.772   8.197   6.019 -0.7835 -0.7403 -1.0494
  169MOL   H12037416   2.761   0.043   5.812  1.8876  2.5998  1.7338
  169MOL   H12137417   3.116   8.081   5.694 -0.4726  0.8302  0.1566
  169MOL   H12237418   3.125   7.961   5.927 -0.1879  0.7283  1.3216
  169MOL   C12337419   2.649   7.787   6.078  0.0637  0.4110 -0.2791
  169MOL   C12437420   2.763   7.867   6.038  0.2516  0.6229  0.1440
  169MOL   C12537421   2.853   7.915   6.136 -0.4970  0.5275  0.3503
  169MOL   C12637422   2.838   7.871   6.269 -0.3090 -0.1946 -0.6357
  169MOL   C12737423   2.749   7.772   6.306  0.3765  0.1883  0.6732
  169MOL   C12837424   2.652   7.735   6.212 -0.7763 -0.2274  0.1157
  169MOL   O12937425   2.555   7.655   6.256  0.0990  0.0918  0.0785
  169MOL   H13037426   2.570   7.766   6.007  0.7276  2.0326 -1.5306
  169MOL   H13137427   2.775   7.904   5.938 -1.6429 -0.8754 -0.6860
  169MOL   H13237428   2.893   7.923   6.347 -0.2173  0.0608 -0.8663
  169MOL   H13337429   2.739   7.741   6.409  2.4054 -0.8903  0.5661
  169MOL   C13437430   2.590   7.335   6.426  0.0644 -0.6779 -0.1212
  169MOL   C13537431   2.555   7.473   6.401 -0.8610  0.3645 -0.1792
  169MOL   C13637432   2.588   7.525   6.273 -0.2488  0.8735  0.1443
  169MOL   C13737433   2.651   7.447   6.177  0.0301  0.0063 -0.0872
  169MOL   C13837434   2.683   7.317   6.204  0.2541 -0.3694  0.2853
  169MOL   C13937435   2.652   7.258   6.328 -0.2844  0.2072  0.0933
  169MOL   O14037436   2.679   7.125   6.352 -0.1401 -0.0864 -0.4862
  169MOL   H14137437   2.564   7.286   6.519  1.8997 -2.5554 -0.5861
  169MOL   H14237438   2.506   7.532   6.477 -0.5483  2.9787 -1.9518
  169MOL   H14337439   2.672   7.482   6.077  0.0573 -1.8967 -0.7591
  169MOL   H14437440   2.736   7.253   6.135  2.6600 -1.1696  2.7767
  169MOL   C14537441   3.044   7.133   6.345 -0.5974 -0.3134 -0.2797
  169MOL   C14637442   2.915   7.152   6.383  0.6849 -0.1632 -0.5484
  169MOL   C14737443   2.809   7.081   6.325 -0.4010  0.2076  0.7213
  169MOL   C14837444   2.831   6.981   6.233  0.7263 -0.2057 -0.5550
  169MOL   C14937445   2.967   6.956   6.194  0.5537  0.2824 -0.3936
  169MOL   C15037446   3.072   7.034   6.251  0.5572  0.1286  0.1671
  169MOL   O15137447   3.203   6.996   6.219  0.0356 -0.0060 -0.1544
  169MOL   H15237448   3.123   7.187   6.394  0.0863 -1.7106  0.1847
  169MOL   H15337449   2.881   7.241   6.434  0.3837  0.4083 -1.7152
  169MOL   H15437450   2.749   6.920   6.200 -0.8917  1.5003  0.2320
  169MOL   H15537451   2.991   6.872   6.131 -2.3791 -0.9076 -0.0024
  169MOL   C15637452   3.385   7.224   5.984 -0.2905 -0.1809  0.3390
  169MOL   C15737453   3.287   7.126   6.027 -0.3494 -0.4561  0.3150
  169MOL   C15837454   3.287   7.094   6.167 -0.4007  0.0036  0.0303
  169MOL   C15937455   3.367   7.165   6.256  0.2778  0.5733  0.0576
  169MOL   C16037456   3.452   7.268   6.222 -1.1601 -0.2916 -0.7275
  169MOL   C16137457   3.468   7.292   6.080  0.4394  0.0617  0.4556
  169MOL   O16237458   3.563   7.381   6.037 -0.8872  0.2614 -0.0502
  169MOL   H16337459   3.402   7.241   5.878  2.0111 -1.7194  0.4233
  169MOL   H16437460   3.239   7.068   5.949 -0.8038 -0.0645  0.3050
  169MOL   H16537461   3.337   7.155   6.360 -1.1800 -0.5386 -0.4509
  169MOL   H16637462   3.514   7.306   6.302 -1.8052  2.0273 -1.2842
  169MOL   C16737463   3.603   7.741   6.094 -1.1026 -0.2169 -0.6356
  169MOL   C16837464   3.632   7.600   6.089 -0.3265  0.5304  0.2432
  169MOL   C16937465   3.534   7.513   6.035  0.6227  0.0469  0.2261
  169MOL   C17037466   3.406   7.567   5.997  0.1427  0.2568  0.5444
  169MOL   C17137467   3.381   7.707   6.002 -0.2807 -0.4931 -0.2644
  169MOL   C17237468   3.481   7.795   6.055 -0.4726  0.5394  0.2702
  169MOL   O17337469   3.458   7.927   6.057  0.3569  0.1703 -0.1587
  169MOL   H17437470   3.683   7.804   6.130 -0.6166 -1.3626  0.3226
  169MOL   H17537471   3.729   7.566   6.121 -0.5237 -1.0584 -0.7657
  169MOL   H17637472   3.335   7.498   5.954  0.2727  0.1861  0.4423
  169MOL   H17737473   3.293   7.752   5.959 -1.5207 -1.0524  1.6025
  169MOL   C17837474   3.228   8.045   6.324 -0.0113  0.0498 -0.2185
  169MOL   C17937475   3.270   7.998   6.205  0.1030  0.2024 -0.6118
  169MOL   C18037476   3.407   7.991   6.170 -0.1845  0.7015  0.0070
  169MOL   C18137477   3.502   8.042   6.269  0.2829 -0.2990  0.2242
  169MOL   C18237478   3.461   8.096   6.393 -0.9241  0.7541 -0.5327
  169MOL   C18337479   3.319   8.097   6.420 -0.7586 -0.6273 -0.6193
  169MOL   O18437480   3.274   8.138   6.542  0.4931 -0.0838 -0.6406
  169MOL   H18537481   3.123   8.036   6.350  0.1054 -1.2190 -0.1442
  169MOL   H18637482   3.199   7.946   6.141 -0.4563 -0.5662  0.6225
  169MOL   H18737483   3.605   8.019   6.247  0.2592  0.1913 -0.4234
  169MOL   H18837484   3.533   8.123   6.469  0.4174 -1.0568 -1.1338
  169MOL   C18937485   3.383   7.991   6.855 -0.0044  0.5085  0.5800
  169MOL   C19037486   3.357   8.086   6.757 -0.6466 -0.6418 -0.4270
  169MOL   C19137487   3.301   8.047   6.640  0.3537 -0.0501  0.6651
  169MOL   C19237488   3.261   7.915   6.615  0.8260  0.3232  0.0644
  169MOL   C19337489   3.290   7.817   6.710 -0.2956 -0.5321  0.1400
  169MOL   C19437490   3.351   7.854   6.831 -0.8428  0.4181 -0.6295
  169MOL   O19537491   3.366   7.762   6.935  0.7573 -0.3170  0.1005
  169MOL   H19637492   3.438   8.012   6.945  0.6999 -2.5383  0.9378
  169MOL   H19737493   3.384   8.188   6.781  0.9037 -1.1347 -0.0617
  169MOL   H19837494   3.217   7.882   6.522  0.7457  1.0963 -0.1786
  169MOL   H19937495   3.252   7.717   6.695  1.7685 -1.1932 -0.7856
  169MOL   C20037496   3.093   7.524   7.004  0.3891  0.3160 -0.5314
  169MOL   C20137497   3.208   7.584   6.948 -0.1684  0.0597 -0.0093
  169MOL   C20237498   3.255   7.708   6.996 -0.0295  0.5419  0.0853
  169MOL   C20337499   3.193   7.775   7.102  0.3615 -0.1856  0.9176
  169MOL   C20437500   3.085   7.711   7.166  0.0254 -0.3015 -0.4317
  169MOL   C20537501   3.029   7.586   7.117  0.0868 -0.1574  0.4328
  169MOL   O20637502   2.923   7.531   7.185  0.1233 -0.0483 -0.3272
  169MOL   H20737503   3.051   7.430   6.971  1.0879 -0.7468  1.5411
  169MOL   H20837504   3.257   7.535   6.865 -0.9329  1.2417 -1.1827
  169MOL   H20937505   3.231   7.870   7.136 -0.8958  1.0583 -1.0460
  169MOL   H21037506   3.041   7.733   7.262 -0.4527  1.1940 -0.9780
  169MOL   C21137507   3.055   7.247   7.369  0.1061  0.2236  0.0728
  169MOL   C21237508   3.039   7.342   7.264  0.1755  0.5087 -0.2526
  169MOL   C21337509   2.953   7.448   7.286  0.1653  0.8810 -0.2262
  169MOL   C21437510   2.900   7.464   7.415 -0.7477  0.1658  0.0825
  169MOL   C21537511   2.926   7.382   7.527  0.0477 -0.2343  0.1172
  169MOL   C21637512   3.006   7.271   7.498  0.2892 -0.1646 -0.7698
  169MOL   O21737513   3.039   7.183   7.600 -0.2305  0.0952 -0.0168
  169MOL   H21837514   3.120   7.162   7.358  2.3542  2.2592 -3.3043
  169MOL   H21937515   3.089   7.336   7.168 -0.2004 -0.5752 -0.3948
  169MOL   H22037516   2.833   7.545   7.441  0.3833  1.1289  0.0647
  169MOL   H22137517   2.881   7.412   7.620  0.2974 -0.9784  0.4782
  169MOL   H22237518   3.067   7.101   7.560  2.5260  1.1225 -0.2568
  170MOL     C137519   5.403   0.975   7.044 -0.1705 -0.5045 -0.0544
  170MOL     C237520   5.475   0.926   7.156 -1.0106 -0.1237  0.1787
  170MOL     C337521   5.559   0.814   7.138  0.2682 -0.7554  0.9126
  170MOL     C437522   5.574   0.757   7.005  0.9840  0.0490  0.3328
  170MOL     C537523   5.496   0.804   6.896 -0.0204  0.7552 -0.1852
  170MOL     C637524   5.412   0.914   6.914  0.3673  0.3834 -0.3143
  170MOL     O737525   5.340   0.964   6.810 -0.8502 -0.4115 -0.1414
  170MOL     H837526   5.339   1.061   7.052 -0.1743 -0.4029 -1.0223
  170MOL     H937527   5.455   0.979   7.248  1.3652  0.0566  0.6224
  170MOL    H1037528   5.630   0.666   6.986  1.7732  0.7940 -0.9303
  170MOL    H1137529   5.501   0.742   6.807  0.7262 -1.4992  1.3813
  170MOL    H1237530   5.602   0.767   7.226  0.7639 -0.0080  1.0759
  170MOL    C1337531   5.019   0.890   6.631  0.2904  0.1844 -0.7090
  170MOL    C1437532   5.156   0.907   6.664 -0.4329  0.3703  0.0143
  170MOL    C1537533   5.209   0.923   6.797  0.2971 -0.1232  0.1577
  170MOL    C1637534   5.114   0.918   6.897 -0.7059  0.5519  0.7656
  170MOL    C1737535   4.979   0.893   6.870 -0.8779 -0.7313 -1.0441
  170MOL    C1837536   4.935   0.883   6.738  0.1989  0.8311  0.1752
  170MOL    O1937537   4.803   0.851   6.705  0.2378 -0.2009  0.5002
  170MOL    H2037538   4.988   0.904   6.529  0.5234  1.4681 -0.6098
  170MOL    H2137539   5.224   0.929   6.583  0.1851 -1.1028  0.1074
  170MOL    H2237540   5.151   0.930   6.998  3.2220 -1.5727 -0.2937
  170MOL    H2337541   4.909   0.885   6.953  0.9235  0.7313  0.6734
  170MOL    C2437542   4.594   1.158   6.721 -0.0483  0.3722  0.4310
  170MOL    C2537543   4.691   1.068   6.677 -0.4855 -0.0244 -0.4566
  170MOL    C2637544   4.706   0.940   6.742 -0.4839 -0.3542  0.9070
  170MOL    C2737545   4.605   0.899   6.829 -0.3921  0.7191  0.5802
  170MOL    C2837546   4.511   0.989   6.880 -0.2292  0.5252  0.3836
  170MOL    C2937547   4.507   1.120   6.828 -0.4139  0.0452  0.4982
  170MOL    O3037548   4.417   1.203   6.880  0.9474 -0.3913  0.4378
  170MOL    H3137549   4.579   1.253   6.672 -0.0840  0.5519  0.7895
  170MOL    H3237550   4.760   1.092   6.597 -0.2490  0.1487 -0.2023
  170MOL    H3337551   4.604   0.796   6.863 -1.4670  0.9012  1.1269
  170MOL    H3437552   4.436   0.959   6.952 -1.0999  1.3867 -0.1535
  170MOL    C3537553   4.546   1.397   7.163  0.0209 -0.1554 -0.6297
  170MOL    C3637554   4.500   1.283   7.091 -0.3731  0.2616  0.2374
  170MOL    C3737555   4.468   1.309   6.952 -0.1652  0.7798 -0.5436
  170MOL    C3837556   4.484   1.436   6.896 -0.2338  0.2380  0.1233
  170MOL    C3937557   4.534   1.542   6.970 -0.5373 -0.1967  0.0538
  170MOL    C4037558   4.567   1.524   7.102 -0.3769  0.6212  0.2588
  170MOL    O4137559   4.614   1.633   7.179 -0.8653 -0.0810 -0.0801
  170MOL    H4237560   4.574   1.383   7.266 -2.3940 -1.2495 -0.0738
  170MOL    H4337561   4.492   1.186   7.137  1.1202 -0.1779 -0.3767
  170MOL    H4437562   4.457   1.455   6.793  3.2738  1.5405 -0.6124
  170MOL    H4537563   4.564   1.635   6.923  2.3821 -0.7907  0.6444
  170MOL    C4637564   4.926   1.766   7.293  0.5010  0.0580  0.7129
  170MOL    C4737565   4.792   1.727   7.291  0.4174 -0.7454  0.2111
  170MOL    C4837566   4.750   1.654   7.183 -0.0834 -0.2541  0.0840
  170MOL    C4937567   4.840   1.604   7.086 -0.3509  0.0086 -0.1364
  170MOL    C5037568   4.981   1.630   7.097  0.2284  0.7446  0.0601
  170MOL    C5137569   5.020   1.718   7.203  0.2129 -0.1170 -0.1862
  170MOL    O5237570   5.151   1.753   7.221 -0.3418 -0.8657  0.2543
  170MOL    H5337571   4.953   1.833   7.373 -2.0463  1.1276  0.7300
  170MOL    H5437572   4.719   1.760   7.363  0.8720 -1.2994  0.9280
  170MOL    H5537573   4.801   1.553   6.999 -0.7770 -0.6005  0.4037
  170MOL    H5637574   5.043   1.582   7.023 -0.3284 -1.5366  1.0270
  170MOL    C5737575   5.331   1.465   7.341 -0.1016  0.0831 -0.2213
  170MOL    C5837576   5.241   1.568   7.337 -0.0080 -0.7541 -0.0437
  170MOL    C5937577   5.240   1.652   7.224 -0.8812 -0.4461 -0.3871
  170MOL    C6037578   5.320   1.620   7.113 -0.1523  0.0003 -0.3279
  170MOL    C6137579   5.404   1.506   7.115 -0.4117  0.5090 -0.1009
  170MOL    C6237580   5.419   1.429   7.236 -0.1107 -0.4524 -0.1409
  170MOL    O6337581   5.501   1.320   7.238  0.0015  0.4218 -0.2272
  170MOL    H6437582   5.332   1.393   7.421 -0.2047 -0.2482 -0.5184
  170MOL    H6537583   5.160   1.574   7.408  0.6396  0.5018  0.6071
  170MOL    H6637584   5.303   1.672   7.020 -1.7816  2.2219  1.1617
  170MOL    H6737585   5.466   1.471   7.033 -0.5749  1.5059 -0.6662
  170MOL    C6837586   5.852   1.419   7.174 -0.2297  0.0793  0.2069
  170MOL    C6937587   5.721   1.418   7.230  0.4071 -0.0700  0.2129
  170MOL    C7037588   5.624   1.329   7.181 -0.1945 -0.1738 -0.3275
  170MOL    C7137589   5.655   1.245   7.074 -0.4072 -0.3919 -0.5570
  170MOL    C7237590   5.779   1.248   7.016  0.2185  0.0507 -0.2735
  170MOL    C7337591   5.880   1.335   7.066  0.0192 -0.1329 -0.6915
  170MOL    O7437592   6.006   1.332   7.010 -0.4559 -0.3288 -0.0253
  170MOL    H7537593   5.922   1.491   7.215  0.2533 -0.8400  1.0414
  170MOL    H7637594   5.686   1.481   7.310 -0.8139  0.3174 -0.6267
  170MOL    H7737595   5.575   1.187   7.031  1.2707 -2.3571 -1.1408
  170MOL    H7837596   5.797   1.190   6.927 -1.9573 -2.7577  1.0682
  170MOL    C7937597   6.229   1.630   7.019  0.0901 -0.4622 -0.0129
  170MOL    C8037598   6.160   1.515   7.057 -0.3606  0.3321  0.4905
  170MOL    C8137599   6.060   1.453   6.978  0.2097  0.5555  0.0847
  170MOL    C8237600   6.015   1.521   6.859 -0.2072  0.1677  0.0285
  170MOL    C8337601   6.073   1.640   6.823  0.5766 -0.1460 -0.3736
  170MOL    C8437602   6.175   1.697   6.907 -0.1258 -0.5706 -0.3356
  170MOL    O8537603   6.227   1.820   6.882 -0.5434  0.1743  0.1897
  170MOL    H8637604   6.314   1.676   7.067  0.3526 -1.6315  0.6532
  170MOL    H8737605   6.184   1.456   7.144 -2.1379 -1.6097 -0.2748
  170MOL    H8837606   5.935   1.473   6.804  0.3322  1.3190 -1.8103
  170MOL    H8937607   6.044   1.674   6.724  2.3099  2.4184 -0.0513
  170MOL    C9037608   6.430   1.816   6.581 -0.3179 -0.9953 -0.5865
  170MOL    C9137609   6.385   1.784   6.708 -0.2483 -0.0201 -0.3312
  170MOL    C9237610   6.268   1.841   6.753  0.5896 -0.6759 -0.0759
  170MOL    C9337611   6.186   1.928   6.674 -0.2583 -0.0938  0.6257
  170MOL    C9437612   6.228   1.956   6.544 -0.4317  0.0496 -0.1659
  170MOL    C9537613   6.347   1.897   6.499  0.0336 -0.1326  0.2073
  170MOL    O9637614   6.394   1.917   6.370  0.2170  0.0190 -0.1356
  170MOL    H9737615   6.522   1.772   6.546  0.8273  2.5110 -2.1585
  170MOL    H9837616   6.441   1.709   6.762 -0.4386 -1.2050 -1.7489
  170MOL    H9937617   6.095   1.967   6.716 -1.3654 -3.2044  1.2313
  170MOL   H10037618   6.167   2.021   6.483  0.5117  1.2036  0.0930
  170MOL   C10137619   6.342   2.227   6.175 -0.2467 -1.0806  0.3639
  170MOL   C10237620   6.333   2.094   6.212 -0.1755  0.6381 -0.4931
  170MOL   C10337621   6.401   2.048   6.327  0.2276  0.4717  0.5797
  170MOL   C10437622   6.476   2.136   6.405  0.6600 -1.0984  0.0961
  170MOL   C10537623   6.485   2.270   6.368 -0.8394  0.1986  0.5083
  170MOL   C10637624   6.414   2.318   6.251  1.3513 -0.4707  0.3735
  170MOL   O10737625   6.428   2.453   6.216  0.4904  0.5760 -0.1399
  170MOL   H10837626   6.295   2.255   6.082  1.3763 -0.1653 -0.2137
  170MOL   H10937627   6.282   2.025   6.145  0.4765 -0.2060 -0.1318
  170MOL   H11037628   6.520   2.103   6.498  1.9797 -0.0794 -0.1571
  170MOL   H11137629   6.550   2.334   6.424  0.4479  0.0269 -0.7514
  170MOL   C11237630   6.113   2.626   6.190 -0.5584  0.0545 -0.6813
  170MOL   C11337631   6.220   2.546   6.153  0.8019  0.1547 -0.6458
  170MOL   C11437632   6.326   2.534   6.243 -0.9322 -0.0284  0.4062
  170MOL   C11537633   6.333   2.601   6.359 -0.1430 -0.6337 -0.2134
  170MOL   C11637634   6.221   2.678   6.399  0.1691 -0.5258  0.5004
  170MOL   C11737635   6.115   2.703   6.306  0.0144  0.7131 -0.3543
  170MOL   O11837636   6.004   2.785   6.329 -0.1030 -0.1722  0.2391
  170MOL   H11937637   6.043   2.654   6.113 -2.1368  2.4858  1.5547
  170MOL   H12037638   6.211   2.487   6.063 -1.6003 -0.7510  0.1517
  170MOL   H12137639   6.421   2.591   6.421 -0.4015  0.0260  0.2760
  170MOL   H12237640   6.218   2.726   6.496  2.5324  2.0086 -0.6096
  170MOL   C12337641   6.113   3.092   6.162 -0.3310 -0.6855 -0.6761
  170MOL   C12437642   6.105   2.954   6.199 -0.0623  0.4552 -0.1813
  170MOL   C12537643   6.004   2.912   6.280 -0.4463 -0.0949  0.0042
  170MOL   C12637644   5.904   3.000   6.317  0.7914  1.2461 -0.0977
  170MOL   C12737645   5.905   3.134   6.275 -0.3700  0.3682  0.7139
  170MOL   C12837646   6.013   3.182   6.198  0.5639 -1.0900  0.5266
  170MOL   O12937647   6.028   3.315   6.164 -0.2923  0.4251  0.1354
  170MOL   H13037648   6.192   3.136   6.102 -1.4947 -0.5976 -2.1823
  170MOL   H13137649   6.176   2.891   6.148 -1.8460  1.0134 -3.5365
  170MOL   H13237650   5.825   2.965   6.382  1.2030 -1.3078 -0.9189
  170MOL   H13337651   5.828   3.198   6.315 -0.6185  0.4364  0.1188
  170MOL   C13437652   5.759   3.528   6.274  0.2893 -0.2503  0.0679
  170MOL   C13537653   5.823   3.430   6.201  0.6348 -0.0545 -0.0334
  170MOL   C13637654   5.956   3.412   6.239 -0.2660 -0.5077 -0.4248
  170MOL   C13737655   6.023   3.483   6.348  0.1947 -0.2094 -0.1391
  170MOL   C13837656   5.958   3.597   6.398  0.0256  0.2686  0.1727
  170MOL   C13937657   5.821   3.616   6.367  0.2470 -0.1347 -1.0816
  170MOL   O14037658   5.743   3.712   6.426  0.7942  0.3160 -0.1863
  170MOL   H14137659   5.653   3.537   6.253  0.1384 -0.4122  0.7381
  170MOL   H14237660   5.767   3.366   6.135 -1.8686  0.6241  1.3631
  170MOL   H14337661   6.130   3.484   6.367  0.2415  2.7397 -0.3691
  170MOL   H14437662   6.010   3.663   6.465  1.7730 -0.0236 -0.8413
  170MOL   C14537663   5.823   3.896   6.730 -0.0055  0.1252  0.0701
  170MOL   C14637664   5.775   3.799   6.645  0.0769 -0.4252  0.3967
  170MOL   C14737665   5.805   3.809   6.506  0.3549 -0.2648 -0.5282
  170MOL   C14837666   5.883   3.912   6.453 -1.6173 -0.5059  0.2779
  170MOL   C14937667   5.930   4.014   6.540  1.4107  0.0452 -0.3381
  170MOL   C15037668   5.896   4.009   6.679  0.1140  0.4230  0.0808
  170MOL   O15137669   5.939   4.101   6.771  0.6420  0.4538 -0.0653
  170MOL   H15237670   5.810   3.872   6.835 -0.6950 -2.4449 -0.5599
  170MOL   H15337671   5.705   3.722   6.673 -2.2749  0.8359 -1.7700
  170MOL   H15437672   5.895   3.924   6.346 -1.3808  1.1892  0.4795
  170MOL   H15537673   5.976   4.104   6.503 -0.5979  1.0922 -0.3701
  170MOL   C15637674   6.276   4.258   6.795 -0.0863 -0.4818  0.1609
  170MOL   C15737675   6.133   4.246   6.776  0.3330 -0.6091  0.4415
  170MOL   C15837676   6.070   4.123   6.801 -0.5621 -0.3499  0.5389
  170MOL   C15937677   6.144   4.018   6.843 -1.1976  0.1246 -0.3341
  170MOL   C16037678   6.279   4.027   6.881  0.2563  0.0784 -0.2260
  170MOL   C16137679   6.348   4.149   6.861  0.1460 -0.4075  0.2378
  170MOL   O16237680   6.484   4.159   6.885  0.1737 -0.2389 -0.1492
  170MOL   H16337681   6.321   4.354   6.776 -1.8057 -0.0662 -2.0272
  170MOL   H16437682   6.080   4.330   6.732  1.3472  0.1575  0.6631
  170MOL   H16537683   6.093   3.927   6.872 -0.4147  0.4587  2.2332
  170MOL   H16637684   6.331   3.952   6.939  1.0403 -0.6517 -1.8718
  170MOL   C16737685   6.690   4.351   7.106 -0.2882 -0.2043 -0.9695
  170MOL   C16837686   6.628   4.314   6.987  0.2113  0.5902  0.0475
  170MOL   C16937687   6.525   4.220   7.004 -0.1856  0.1749  0.2833
  170MOL   C17037688   6.467   4.185   7.126  0.0734  0.2218  0.1970
  170MOL   C17137689   6.521   4.239   7.240  0.7178 -0.6311 -0.5146
  170MOL   C17237690   6.631   4.330   7.232 -0.1206 -0.8013 -0.0324
  170MOL   O17337691   6.689   4.391   7.343  0.3326 -0.6610  0.5087
  170MOL   H17437692   6.772   4.420   7.096 -0.1163 -0.3817 -0.8006
  170MOL   H17537693   6.665   4.327   6.887 -3.0288  0.5256 -1.2061
  170MOL   H17637694   6.384   4.117   7.123  1.1037 -1.0877  1.0038
  170MOL   H17737695   6.477   4.223   7.337  2.5424  1.9980  0.7965
  170MOL   C17837696   6.503   4.707   7.414 -0.1988 -0.2500  0.4160
  170MOL   C17937697   6.544   4.593   7.341  0.2993 -0.7006 -0.8654
  170MOL   C18037698   6.622   4.495   7.410  0.2024  0.4949  0.1529
  170MOL   C18137699   6.629   4.499   7.552 -0.2145 -0.2248 -0.0198
  170MOL   C18237700   6.575   4.608   7.625  0.5653  0.0886  0.4513
  170MOL   C18337701   6.513   4.713   7.554 -0.0907  0.1000  0.0715
  170MOL   O18437702   6.459   4.812   7.632 -0.4695  0.5810  0.5417
  170MOL   H18537703   6.449   4.782   7.358  1.6922  1.0259  0.2470
  170MOL   H18637704   6.539   4.592   7.233 -0.2162  0.5280 -0.8692
  170MOL   H18737705   6.671   4.414   7.603  1.1250 -0.1278 -0.9367
  170MOL   H18837706   6.581   4.610   7.732  0.4872  1.1037  0.4412
  170MOL   C18937707   6.139   4.987   7.630 -0.7701 -0.3060  0.0765
  170MOL   C19037708   6.276   4.963   7.613 -0.1644  0.1131 -0.4097
  170MOL   C19137709   6.327   4.832   7.628  0.4604  0.8425 -0.1923
  170MOL   C19237710   6.239   4.726   7.644  0.5673  0.4704  0.1015
  170MOL   C19337711   6.107   4.757   7.678  0.0369  0.3273  0.1339
  170MOL   C19437712   6.053   4.885   7.663 -0.2428  0.8471  0.2409
  170MOL   O19537713   5.926   4.916   7.694  0.2423  0.3111  0.2161
  170MOL   H19637714   6.095   5.084   7.614 -0.9907 -0.7110 -1.9505
  170MOL   H19737715   6.333   5.051   7.587 -0.9392  0.8614  0.3946
  170MOL   H19837716   6.281   4.628   7.657 -0.2856 -0.3785 -3.1472
  170MOL   H19937717   6.036   4.682   7.709  0.2842  1.1762  2.8994
  170MOL   C20037718   5.743   4.814   7.379 -0.3217 -0.1823 -0.4437
  170MOL   C20137719   5.842   4.844   7.475  0.0115  0.2022  0.2152
  170MOL   C20237720   5.826   4.868   7.612  0.1831  0.4585 -0.1779
  170MOL   C20337721   5.696   4.848   7.655  0.6889 -0.0833  0.5029
  170MOL   C20437722   5.585   4.818   7.567 -0.0632  0.3801 -0.3306
  170MOL   C20537723   5.611   4.800   7.428  0.2337  0.3591 -0.1306
  170MOL   O20637724   5.514   4.767   7.343  0.5685  0.5884  0.2887
  170MOL   H20737725   5.774   4.795   7.278  0.2556 -0.5373 -0.2036
  170MOL   H20837726   5.944   4.864   7.446  0.0833  0.7878  0.8571
  170MOL   H20937727   5.672   4.857   7.760 -2.1815 -0.4129 -0.0830
  170MOL   H21037728   5.486   4.805   7.608 -0.3016 -1.0893 -1.3196
  170MOL   C21137729   5.286   4.484   7.407 -0.4387  1.1788  0.1027
  170MOL   C21237730   5.330   4.614   7.394 -0.2526 -0.0069 -0.1974
  170MOL   C21337731   5.458   4.639   7.337 -0.1927  0.3292 -0.3134
  170MOL   C21437732   5.532   4.534   7.283  0.5028 -0.8457  0.1173
  170MOL   C21537733   5.484   4.402   7.297 -0.1662 -0.7338 -0.6897
  170MOL   C21637734   5.360   4.376   7.361 -0.0231  0.0306  0.0986
  170MOL   O21737735   5.320   4.243   7.379  0.2986 -0.0373 -0.4815
  170MOL   H21837736   5.190   4.463   7.454  0.5003  1.2906  2.1419
  170MOL   H21937737   5.263   4.690   7.431 -1.7908 -0.3212 -2.2762
  170MOL   H22037738   5.631   4.559   7.249  0.0768 -2.3478 -2.3478
  170MOL   H22137739   5.555   4.323   7.276  1.6931  0.8791 -0.6547
  170MOL   H22237740   5.396   4.187   7.378  0.2162 -0.1470 -0.5000
  171MOL     C137741   4.913   4.796   0.996  0.2812  0.0103 -0.6446
  171MOL     C237742   5.031   4.849   0.940  0.1321 -0.1345  0.7698
  171MOL     C337743   5.157   4.844   1.015 -0.2008  0.7920 -1.4411
  171MOL     C437744   5.150   4.793   1.150  0.0643 -0.3978 -0.3725
  171MOL     C537745   5.033   4.736   1.201 -0.6334  0.3548  0.5839
  171MOL     C637746   4.912   4.744   1.125 -0.4863  0.8253  0.1255
  171MOL     O737747   4.801   4.687   1.175  0.0040  0.1394  0.5459
  171MOL     H837748   4.813   4.790   0.954 -0.7329 -0.8507  1.7929
  171MOL     H937749   5.025   4.895   0.843 -0.7743 -2.2438 -0.1944
  171MOL    H1037750   5.243   4.794   1.206  0.6277  0.4896 -1.3306
  171MOL    H1137751   5.025   4.690   1.298  2.2567 -2.4640 -0.4411
  171MOL    H1237752   5.246   4.879   0.964  0.2148  1.8416 -0.0223
  171MOL    C1337753   4.618   4.768   1.485 -0.3970  0.5462 -0.6168
  171MOL    C1437754   4.693   4.701   1.388 -0.1921  0.3777  0.2380
  171MOL    C1537755   4.732   4.769   1.271 -0.0866  1.0826  0.3113
  171MOL    C1637756   4.713   4.906   1.255  0.6165  0.1332  0.4334
  171MOL    C1737757   4.641   4.972   1.359 -0.4845  0.3236  0.8047
  171MOL    C1837758   4.594   4.905   1.470  0.2057  0.1102  0.5688
  171MOL    O1937759   4.516   4.969   1.564  0.2320 -0.2014 -0.3049
  171MOL    H2037760   4.577   4.715   1.570 -0.6258  1.8527  0.0983
  171MOL    H2137761   4.712   4.595   1.394 -0.2440  0.2395 -1.5649
  171MOL    H2237762   4.761   4.959   1.174 -1.2084  3.4074  1.4084
  171MOL    H2337763   4.628   5.079   1.350 -0.0801  0.2126 -1.5580
  171MOL    C2437764   4.145   4.956   1.505  0.8574 -0.2412  0.4397
  171MOL    C2537765   4.280   4.911   1.520 -0.3118 -0.7656 -0.8585
  171MOL    C2637766   4.384   5.005   1.527 -0.0559 -0.4898 -0.9148
  171MOL    C2737767   4.352   5.142   1.513  0.0771  0.0573  0.9346
  171MOL    C2837768   4.222   5.186   1.495 -0.4936 -0.5244  0.3315
  171MOL    C2937769   4.119   5.089   1.505  0.1944  0.5366 -0.4331
  171MOL    O3037770   3.988   5.135   1.500 -0.5880 -0.6117  0.2457
  171MOL    H3137771   4.077   4.873   1.508  0.4532  0.0798  0.2260
  171MOL    H3237772   4.301   4.806   1.533 -1.1813 -0.5846  2.2396
  171MOL    H3337773   4.435   5.210   1.528  0.3837 -0.4005  1.3563
  171MOL    H3437774   4.205   5.292   1.485 -0.3600 -0.0952  4.1636
  171MOL    C3537775   3.828   5.244   1.802  0.3204 -0.1159  0.3028
  171MOL    C3637776   3.885   5.164   1.707 -0.3261 -0.1509  0.4522
  171MOL    C3737777   3.947   5.219   1.597 -0.2711 -0.4481  0.6273
  171MOL    C3837778   3.967   5.359   1.589 -0.7405  0.5316 -0.2674
  171MOL    C3937779   3.907   5.441   1.686  0.0502  0.1002 -0.1817
  171MOL    C4037780   3.835   5.386   1.798  0.5641 -0.2553 -0.2218
  171MOL    O4137781   3.785   5.465   1.897  0.4138  0.5629  0.6105
  171MOL    H4237782   3.781   5.197   1.887 -0.3791 -1.8063 -0.9891
  171MOL    H4337783   3.871   5.057   1.711 -0.7829 -0.2535 -2.9681
  171MOL    H4437784   4.019   5.405   1.507  2.4572  0.6616  1.7448
  171MOL    H4537785   3.918   5.548   1.684  1.7998 -0.0849 -2.4803
  171MOL    C4637786   4.083   5.520   2.126  0.1088 -0.1263  0.3001
  171MOL    C4737787   4.004   5.467   2.023  0.4608  0.6526  0.8457
  171MOL    C4837788   3.871   5.517   1.991  0.0418 -0.0512 -0.4541
  171MOL    C4937789   3.817   5.605   2.084  0.3050 -0.5178 -0.2398
  171MOL    C5037790   3.890   5.659   2.191 -0.3495  0.3509  0.2019
  171MOL    C5137791   4.022   5.619   2.210 -0.5661  0.2140  0.0527
  171MOL    O5237792   4.097   5.666   2.316 -0.1257 -0.1392  0.7629
  171MOL    H5337793   4.185   5.494   2.150  1.2455  3.2936 -0.5935
  171MOL    H5437794   4.041   5.378   1.973 -0.3187 -0.0235  1.4566
  171MOL    H5537795   3.712   5.630   2.074  0.0866  0.9145  4.3088
  171MOL    H5637796   3.848   5.739   2.250 -0.0578 -1.8828  3.5566
  171MOL    C5737797   4.336   5.932   2.248 -0.4597  0.4422  0.1167
  171MOL    C5837798   4.282   5.808   2.259 -0.1143 -0.1330 -0.2610
  171MOL    C5937799   4.149   5.793   2.300  0.3991 -0.1787 -0.0717
  171MOL    C6037800   4.059   5.907   2.312 -0.1563  0.0254 -0.0414
  171MOL    C6137801   4.109   6.032   2.272  0.5513 -0.4578  1.1558
  171MOL    C6237802   4.249   6.041   2.240  0.0070 -0.5010 -0.2871
  171MOL    O6337803   4.296   6.162   2.203  0.6815 -0.2981 -0.1633
  171MOL    H6437804   4.442   5.940   2.230 -0.6131 -1.6740 -1.8397
  171MOL    H6537805   4.338   5.716   2.265 -0.2567 -0.1142  1.5877
  171MOL    H6637806   3.960   5.904   2.356  0.2565 -3.1450  0.8496
  171MOL    H6737807   4.051   6.123   2.265 -0.4647 -1.2103 -0.4318
  171MOL    C6837808   4.480   6.367   2.439  0.3158  0.5289  0.0442
  171MOL    C6937809   4.454   6.262   2.347  0.1804 -0.1344 -0.3025
  171MOL    C7037810   4.329   6.254   2.293 -0.2386 -0.4584 -0.1561
  171MOL    C7137811   4.233   6.350   2.317  0.0762 -0.3588 -0.4603
  171MOL    C7237812   4.254   6.450   2.409 -0.5784 -0.0603  0.0582
  171MOL    C7337813   4.383   6.464   2.467 -0.2591 -0.5421 -0.6745
  171MOL    O7437814   4.413   6.568   2.562  0.7641 -0.2263  0.5696
  171MOL    H7537815   4.580   6.364   2.479 -0.4952  0.9078  2.1522
  171MOL    H7637816   4.533   6.194   2.318  0.6829 -0.1977  1.2121
  171MOL    H7737817   4.136   6.344   2.270 -0.4837 -0.9137  0.7368
  171MOL    H7837818   4.171   6.517   2.424 -0.4210  0.0015  0.6527
  171MOL    C7937819   4.680   6.788   2.679 -0.1865  0.1902  0.7637
  171MOL    C8037820   4.561   6.712   2.676 -0.5313 -0.6213  0.4560
  171MOL    C8137821   4.534   6.632   2.561  0.3299  0.1449  0.0956
  171MOL    C8237822   4.622   6.632   2.449 -0.7087 -0.5239  0.7818
  171MOL    C8337823   4.736   6.717   2.453  0.5636  0.1403  0.2710
  171MOL    C8437824   4.764   6.797   2.567 -0.1631  1.0795 -0.5945
  171MOL    O8537825   4.880   6.872   2.565  0.2833 -0.5957 -0.3419
  171MOL    H8637826   4.713   6.845   2.765  1.4901  2.2402 -1.1598
  171MOL    H8737827   4.504   6.730   2.765 -1.0104  1.0095 -0.1610
  171MOL    H8837828   4.599   6.574   2.361 -1.4450  1.4066 -0.3382
  171MOL    H8937829   4.798   6.721   2.364 -0.6669 -2.0975 -0.7538
  171MOL    C9037830   4.810   7.187   2.370  0.4247  0.9633  0.3673
  171MOL    C9137831   4.840   7.052   2.407  0.1060  0.6293 -0.0174
  171MOL    C9237832   4.863   7.010   2.542  0.4871 -0.0552  0.3644
  171MOL    C9337833   4.875   7.112   2.637  0.1826  0.6056  0.2109
  171MOL    C9437834   4.845   7.247   2.606 -1.0380 -0.2486  0.5271
  171MOL    C9537835   4.808   7.286   2.474  0.4322 -0.3518 -0.0284
  171MOL    O9637836   4.762   7.419   2.450  0.5412 -0.1660 -0.0579
  171MOL    H9737837   4.776   7.201   2.269  1.0847 -1.5028 -0.2180
  171MOL    H9837838   4.829   6.974   2.333 -0.7828  1.8165 -1.1700
  171MOL    H9937839   4.905   7.087   2.737  2.8082 -0.0469 -0.6902
  171MOL   H10037840   4.833   7.319   2.686 -1.0729  1.7633 -1.2573
  171MOL   C10137841   4.489   7.507   2.222 -0.0122  0.2030  0.2037
  171MOL   C10237842   4.610   7.507   2.280 -0.3481 -0.3334 -0.0809
  171MOL   C10337843   4.637   7.423   2.394  0.2807 -0.3400 -1.0511
  171MOL   C10437844   4.523   7.353   2.456  0.0188 -0.0964 -0.0283
  171MOL   C10537845   4.398   7.358   2.392  0.1435  0.3959 -0.7021
  171MOL   C10637846   4.381   7.441   2.280  0.2417 -0.3731  0.5023
  171MOL   O10737847   4.256   7.467   2.234  0.2946  0.2182 -0.2580
  171MOL   H10837848   4.475   7.573   2.138  0.1101  0.2953  0.2562
  171MOL   H10937849   4.693   7.563   2.240 -0.1545  0.0257  0.8103
  171MOL   H11037850   4.537   7.287   2.540  2.0798  0.9125  0.4494
  171MOL   H11137851   4.314   7.310   2.440  1.2811  0.4510  1.4197
  171MOL   C11237852   4.050   7.773   2.200  0.0718 -0.3234 -0.1361
  171MOL   C11337853   4.126   7.666   2.164  1.2168  0.3146  0.1873
  171MOL   C11437854   4.180   7.578   2.264 -0.7365 -0.4592 -0.1354
  171MOL   C11537855   4.159   7.615   2.399  0.4966  0.1250 -0.2784
  171MOL   C11637856   4.085   7.729   2.437  0.0278  0.4157 -0.4018
  171MOL   C11737857   4.033   7.807   2.332  0.8849 -0.1181  0.3892
  171MOL   O11837858   3.957   7.915   2.364  0.2457 -0.2400 -0.6226
  171MOL   H11937859   4.000   7.837   2.129  0.8194 -0.7332 -1.0273
  171MOL   H12037860   4.141   7.640   2.060 -1.0635  0.2147 -0.1469
  171MOL   H12137861   4.203   7.553   2.476 -0.0937 -0.5053 -0.4570
  171MOL   H12237862   4.067   7.773   2.534 -0.9056  2.2049 -1.3654
  171MOL   C12337863   4.010   8.155   2.648 -0.0762 -0.4932  0.0664
  171MOL   C12437864   3.960   8.051   2.569  0.2249 -0.0737  0.1166
  171MOL   C12537865   4.018   8.014   2.442  0.6348 -0.1970 -0.1917
  171MOL   C12637866   4.115   8.097   2.390  0.1519 -0.2581  0.1542
  171MOL   C12737867   4.164   8.209   2.461 -0.3008  0.2463 -0.4228
  171MOL   C12837868   4.113   8.238   2.596  0.3386  0.0510  0.3776
  171MOL   O12937869   4.176   0.080   2.673 -0.5945  0.5210  0.2956
  171MOL   H13037870   3.981   8.166   2.752  0.5945  1.0929  0.0967
  171MOL   H13137871   3.885   7.988   2.615 -2.1346  1.7442 -1.1492
  171MOL   H13237872   4.145   8.067   2.290 -3.2367 -0.6884 -0.8174
  171MOL   H13337873   4.249   0.009   2.420  0.2367 -0.1308  0.1861
  171MOL   C13437874   4.070   0.425   2.598 -0.3762  0.1787  0.6861
  171MOL   C13537875   4.056   0.289   2.626  0.5063  0.3024 -0.2171
  171MOL   C13637876   4.172   0.210   2.630  0.0414  0.6283  0.0463
  171MOL   C13737877   4.299   0.265   2.603 -0.0666 -0.0761  0.0777
  171MOL   C13837878   4.311   0.399   2.560 -0.3844  0.6552 -0.0539
  171MOL   C13937879   4.194   0.479   2.550 -0.0021  0.0378 -0.0867
  171MOL   O14037880   4.208   0.612   2.517  0.1454  0.1990 -0.0017
  171MOL   H14137881   3.982   0.488   2.603 -0.0470  0.6710  0.3472
  171MOL   H14237882   3.962   0.238   2.640  1.9402 -2.0975  1.0716
  171MOL   H14337883   4.392   0.211   2.610 -0.2807 -1.0876 -3.4781
  171MOL   H14437884   4.407   0.436   2.526 -0.1206 -0.3573 -0.4440
  171MOL   C14537885   4.523   0.770   2.422 -0.8497  0.2529 -0.0168
  171MOL   C14637886   4.419   0.714   2.500 -0.6610 -0.4565 -0.0176
  171MOL   C14737887   4.308   0.657   2.438 -0.1614  0.2111  0.4845
  171MOL   C14837888   4.305   0.644   2.295  0.3053  0.4782  0.7022
  171MOL   C14937889   4.411   0.691   2.217  0.7514 -0.3032 -0.0963
  171MOL   C15037890   4.515   0.758   2.280  0.4884  0.0444  0.4716
  171MOL   O15137891   4.601   0.826   2.201  0.2172 -0.5890  0.3832
  171MOL   H15237892   4.599   0.833   2.466  0.4054 -0.3782 -1.2313
  171MOL   H15337893   4.423   0.719   2.608 -2.2647 -3.0148  0.1983
  171MOL   H15437894   4.227   0.590   2.242  0.8159 -1.1358  1.5809
  171MOL   H15537895   4.412   0.668   2.111 -0.3676 -5.1193  0.8502
  171MOL   C15637896   4.915   0.955   2.345  0.1871 -0.6857 -0.3423
  171MOL   C15737897   4.782   0.949   2.303  0.3515  0.1810  0.3038
  171MOL   C15837898   4.733   0.835   2.234  0.4139  0.0037 -0.5621
  171MOL   C15937899   4.816   0.732   2.208 -0.1046 -0.1891 -0.3841
  171MOL   C16037900   4.947   0.733   2.253 -0.8600  0.1791  0.2474
  171MOL   C16137901   5.003   0.850   2.314  0.3540 -0.0937 -0.2279
  171MOL   O16237902   5.137   0.841   2.338  0.1085 -0.0456  0.8216
  171MOL   H16337903   4.936   1.048   2.395 -0.2593 -0.6958 -0.1341
  171MOL   H16437904   4.728   1.037   2.335 -1.7720 -0.7567 -0.6226
  171MOL   H16537905   4.769   0.644   2.167 -0.4918  0.1599 -0.6896
  171MOL   H16637906   5.005   0.644   2.236  0.4797  0.9040  0.8923
  171MOL   C16737907   5.353   1.121   2.417 -0.6886  0.0753  0.0933
  171MOL   C16837908   5.275   1.005   2.433 -0.2327  0.1764  0.4170
  171MOL   C16937909   5.212   0.953   2.318  0.3926  0.5354 -0.2628
  171MOL   C17037910   5.232   1.016   2.193 -0.7229 -0.0719 -0.3433
  171MOL   C17137911   5.317   1.126   2.181  0.8214  0.8294 -0.1355
  171MOL   C17237912   5.372   1.188   2.294  0.5776  0.1787 -0.8929
  171MOL   O17337913   5.442   1.305   2.276 -0.0245  0.6487  0.4045
  171MOL   H17437914   5.407   1.159   2.503  0.8324 -0.6637 -0.5044
  171MOL   H17537915   5.257   0.964   2.532 -0.6544  0.1829  0.3447
  171MOL   H17637916   5.187   0.960   2.113 -0.5182  0.2536 -0.6864
  171MOL   H17737917   5.327   1.175   2.085 -1.7550 -0.0431 -0.8923
  171MOL   C17837918   5.388   1.606   2.499 -0.3125 -0.3437  0.5970
  171MOL   C17937919   5.373   1.513   2.390 -0.0512  0.1296  0.0755
  171MOL   C18037920   5.451   1.394   2.375  0.2904 -0.1353  0.2354
  171MOL   C18137921   5.553   1.381   2.469 -0.3332  0.2416  0.5369
  171MOL   C18237922   5.580   1.469   2.573  0.1451  0.3967  0.1331
  171MOL   C18337923   5.496   1.584   2.590  0.0432  0.0468 -0.5659
  171MOL   O18437924   5.526   1.676   2.690 -0.6470  0.0359  0.2142
  171MOL   H18537925   5.322   1.691   2.503 -0.6786 -0.7438  3.7390
  171MOL   H18637926   5.289   1.525   2.324 -1.3365 -1.3460  1.3741
  171MOL   H18737927   5.619   1.298   2.449 -0.2323  0.2934  0.6564
  171MOL   H18837928   5.671   1.449   2.629  0.8929  0.6207 -0.9830
  171MOL   C18937929   5.693   1.974   2.552  0.0825 -0.9647 -0.2011
  171MOL   C19037930   5.598   1.870   2.565 -0.7298  0.0690 -0.2923
  171MOL   C19137931   5.622   1.773   2.672 -0.3990  0.0577  0.1692
  171MOL   C19237932   5.732   1.777   2.751 -0.2827  0.0259 -0.0949
  171MOL   C19337933   5.828   1.878   2.730  0.2114  0.2843  0.2287
  171MOL   C19437934   5.802   1.977   2.638 -0.5532  0.4469 -0.0923
  171MOL   O19537935   5.902   2.078   2.619  0.1244 -0.5611  0.0814
  171MOL   H19637936   5.696   2.041   2.467  2.1616 -0.4630  0.2472
  171MOL   H19737937   5.523   1.856   2.489 -0.5808  0.4516 -0.5126
  171MOL   H19837938   5.739   1.704   2.830  0.4938  1.2671  1.0016
  171MOL   H19937939   5.920   1.881   2.787  1.7921  0.0420 -2.2404
  171MOL   C20037940   5.726   2.400   2.653 -0.6325  0.7516 -0.1993
  171MOL   C20137941   5.766   2.264   2.674  0.6285  0.3828 -0.7806
  171MOL   C20237942   5.860   2.205   2.591 -0.0209 -0.3810  0.8045
  171MOL   C20337943   5.912   2.274   2.483 -0.1082 -0.3502  0.7540
  171MOL   C20437944   5.873   2.408   2.461  0.8322 -0.2040  0.2147
  171MOL   C20537945   5.779   2.474   2.544 -0.6497  0.3261 -0.2735
  171MOL   O20637946   5.742   2.608   2.528  0.6251  0.1963 -0.5068
  171MOL   H20737947   5.660   2.454   2.718 -1.6267  0.0445 -0.6210
  171MOL   H20837948   5.720   2.208   2.754  1.6423  0.6073 -0.0346
  171MOL   H20937949   5.997   2.246   2.422 -0.3971  0.2549  0.0738
  171MOL   H21037950   5.921   2.456   2.377  3.5599  0.0178  1.8573
  171MOL   C21137951   6.025   2.798   2.649 -0.8748 -0.6457 -0.3083
  171MOL   C21237952   5.920   2.706   2.645 -0.3217 -0.3038 -0.9342
  171MOL   C21337953   5.836   2.705   2.535 -0.6944 -0.4085  0.9910
  171MOL   C21437954   5.854   2.796   2.428 -0.6491  0.8867  0.7087
  171MOL   C21537955   5.948   2.893   2.440 -0.5835  0.3550 -0.0990
  171MOL   C21637956   6.040   2.893   2.545 -0.2401  0.5547 -0.4370
  171MOL   O21737957   6.141   2.981   2.547  0.4302  0.7378 -0.8519
  171MOL   H21837958   6.093   2.792   2.732  0.2600  1.9139 -0.9859
  171MOL   H21937959   5.905   2.641   2.730 -2.4914  1.2076 -0.1072
  171MOL   H22037960   5.781   2.787   2.349  0.6700 -0.1600 -0.4311
  171MOL   H22137961   5.953   2.972   2.366 -0.5200  0.8893  0.4659
  171MOL   H22237962   6.209   2.959   2.607 -1.1837  0.2410  0.8414
  172MOL     C137963   7.487   4.453   2.739  0.1678 -0.3470 -0.3319
  172MOL     C237964   7.425   4.552   2.817 -0.5925  0.8841 -0.7225
  172MOL     C337965   7.321   4.517   2.904 -0.3224 -0.9900  0.1909
  172MOL     C437966   7.277   4.379   2.919  0.0324  0.0402 -0.0131
  172MOL     C537967   7.332   4.283   2.829 -0.3559 -0.4212  0.6941
  172MOL     C637968   7.446   4.318   2.749  0.2881  0.4782  0.2680
  172MOL     O737969   7.513   4.232   2.673  0.2745 -0.0971 -0.3317
  172MOL     H837970   7.572   4.474   2.675 -0.5684 -1.5111 -1.7212
  172MOL     H937971   7.447   4.657   2.805 -0.5279  0.9802  0.1870
  172MOL    H1037972   7.212   4.342   2.996 -0.0695 -1.1111 -0.6314
  172MOL    H1137973   7.307   4.178   2.832  0.6318 -0.6266  1.7632
  172MOL    H1237974   7.287   4.583   2.982  1.7899 -0.6056  0.8303
  172MOL    C1337975   7.786   4.115   2.893 -0.5255 -0.1524  0.1473
  172MOL    C1437976   7.689   4.200   2.835  0.1628 -0.4472  0.6031
  172MOL    C1537977   7.603   4.150   2.735 -0.3471  0.0392 -0.7043
  172MOL    C1637978   7.606   4.011   2.693  0.6017 -0.0816  0.2351
  172MOL    C1737979   7.683   3.923   2.761 -0.0465  0.6671  0.1894
  172MOL    C1837980   7.764   3.972   2.870 -0.6206 -0.4192 -0.1146
  172MOL    O1937981   7.835   3.878   2.932 -0.1315 -0.4992 -0.1173
  172MOL    H2037982   7.854   4.154   2.967 -0.5035 -1.1152  0.6483
  172MOL    H2137983   7.682   4.305   2.860 -2.9291 -0.4806  0.1340
  172MOL    H2237984   7.532   3.970   2.626 -1.0647  1.0094  1.3873
  172MOL    H2337985   7.675   3.819   2.736 -0.9811  0.7929 -0.0796
  172MOL    C2437986   8.007   3.988   3.244  0.2259 -0.7211 -0.7039
  172MOL    C2537987   7.904   3.953   3.153  0.0193  0.5189 -0.2298
  172MOL    C2637988   7.932   3.913   3.021 -0.0130 -0.2568  0.3544
  172MOL    C2737989   8.067   3.925   2.981  0.0632  0.0399  0.6599
  172MOL    C2837990   8.172   3.971   3.065  0.9317 -0.3412 -0.2069
  172MOL    C2937991   8.143   3.999   3.199 -0.2698  0.9417 -0.0369
  172MOL    O3037992   8.232   4.053   3.285  0.2449  0.3491  0.4757
  172MOL    H3137993   7.989   4.024   3.344  2.3754 -1.0933 -0.1536
  172MOL    H3237994   7.801   3.950   3.187  0.5357  0.9290  1.4473
  172MOL    H3337995   8.095   3.900   2.879  3.3729 -0.5419  1.6413
  172MOL    H3437996   0.018   3.974   3.025  2.2966  1.1508  3.0820
  172MOL    C3537997   0.343   4.040   3.276  0.2186  0.0046  0.6611
  172MOL    C3637998   0.204   4.026   3.313 -0.3114  0.7253  0.7101
  172MOL    C3737999   0.103   4.087   3.250  0.4459 -0.4549  0.1593
  172MOL    C3838000   0.136   4.190   3.155  0.4490  0.4564  0.3822
  172MOL    C3938001   0.267   4.228   3.137  0.2191  0.7217  0.1167
  172MOL    C4038002   0.368   4.145   3.183 -0.1749  0.1874 -0.1126
  172MOL    O4138003   0.497   4.162   3.134  0.3355 -0.1946 -0.1282
  172MOL    H4238004   0.419   3.973   3.312 -0.4462 -0.8153  0.5815
  172MOL    H4338005   0.192   3.964   3.401  2.0944  0.1189  0.6553
  172MOL    H4438006   0.060   4.252   3.110  0.7938  1.1057  0.6882
  172MOL    H4538007   0.292   4.298   3.059  0.7511  0.6002  0.1803
  172MOL    C4638008   0.672   4.301   3.425 -0.5350  0.3227 -0.3337
  172MOL    C4738009   0.565   4.280   3.334  0.1634  0.2141 -0.0902
  172MOL    C4838010   0.590   4.184   3.229 -0.4196  0.6595  0.5370
  172MOL    C4938011   0.720   4.127   3.208 -0.4496 -0.4414  0.2877
  172MOL    C5038012   0.820   4.151   3.301  0.6596  0.2579  0.1874
  172MOL    C5138013   0.797   4.237   3.411  0.9161  0.1887  0.4161
  172MOL    O5238014   0.902   4.256   3.495 -0.6840  0.2333 -0.4208
  172MOL    H5338015   0.649   4.351   3.518 -1.5106 -0.6681 -0.0232
  172MOL    H5438016   0.468   4.325   3.352  0.9079  1.2408  1.4481
  172MOL    H5538017   0.733   4.055   3.128  0.8339  1.1131 -0.9363
  172MOL    H5638018   0.916   4.104   3.286  0.3292 -0.4679  0.3067
  172MOL    C5738019   0.836   4.371   3.835  0.1982  0.1946  0.4486
  172MOL    C5838020   0.864   4.380   3.702 -0.2367 -0.2914  0.2014
  172MOL    C5938021   0.869   4.255   3.632 -0.1628 -0.4198  0.1249
  172MOL    C6038022   0.831   4.129   3.691  0.5556  0.4595 -0.3607
  172MOL    C6138023   0.799   4.125   3.826  0.4855  0.0846 -0.5541
  172MOL    C6238024   0.808   4.245   3.901  0.1327 -0.6588 -0.1425
  172MOL    O6338025   0.778   4.248   4.032  0.0550  0.0396 -0.6894
  172MOL    H6438026   0.828   4.458   3.898 -0.0575 -0.3165  1.1368
  172MOL    H6538027   0.868   4.477   3.655 -2.0530  0.3860  1.4095
  172MOL    H6638028   0.829   4.045   3.623  0.9933 -0.0491  0.2511
  172MOL    H6738029   0.771   4.037   3.882 -0.4114  0.0294 -1.0843
  172MOL    C6838030   0.989   4.070   4.271  0.2667  0.1808  0.6114
  172MOL    C6938031   0.882   4.102   4.186 -0.3817  0.4313 -0.4999
  172MOL    C7038032   0.879   4.226   4.124 -0.3477  0.3453  0.4545
  172MOL    C7138033   0.970   4.328   4.160  0.1218 -0.2976  0.1825
  172MOL    C7238034   1.062   4.305   4.259 -0.0112 -0.5880  0.7855
  172MOL    C7338035   1.069   4.177   4.311 -0.7130  0.2613 -0.0474
  172MOL    O7438036   1.153   4.153   4.414  0.0180  0.3167  0.5555
  172MOL    H7538037   0.998   3.968   4.305  0.2710  0.1958  0.6550
  172MOL    H7638038   0.804   4.035   4.153  2.1252 -2.3700 -0.8994
  172MOL    H7738039   0.958   4.430   4.125  2.4963 -0.7746 -2.0902
  172MOL    H7838040   1.130   4.385   4.284  0.2803 -1.0234  1.3661
  172MOL    C7938041   0.963   4.110   4.736 -0.0305  0.1350 -0.1705
  172MOL    C8038042   1.004   4.101   4.599 -0.6867 -0.3939  0.1405
  172MOL    C8138043   1.114   4.177   4.543 -0.3697  0.2327 -0.7295
  172MOL    C8238044   1.169   4.284   4.617  0.0985 -0.1874 -0.4890
  172MOL    C8338045   1.123   4.297   4.751  0.0882  0.3151  0.0925
  172MOL    C8438046   1.030   4.212   4.807  0.2585 -0.9125 -0.6157
  172MOL    O8538047   1.006   4.222   4.947  0.5137  0.2124 -0.0266
  172MOL    H8638048   0.892   4.036   4.770  0.2376  0.4519  1.1134
  172MOL    H8738049   0.950   4.032   4.536 -0.7298 -0.4187  0.2044
  172MOL    H8838050   1.252   4.344   4.582  1.4007 -1.9458 -0.5237
  172MOL    H8938051   1.173   4.374   4.808  2.0627  1.6654 -3.3671
  172MOL    C9038052   1.019   4.505   5.165  0.3952  0.2852 -0.1531
  172MOL    C9138053   1.057   4.390   5.096 -0.6689 -0.2080  0.3378
  172MOL    C9238054   0.973   4.339   4.998  0.3227  0.5229 -0.8290
  172MOL    C9338055   0.867   4.420   4.954  0.0252  0.0217  0.2562
  172MOL    C9438056   0.826   4.532   5.022  0.3590  0.5510  0.1046
  172MOL    C9538057   0.902   4.573   5.134 -0.2643  0.1279  0.0124
  172MOL    O9638058   0.863   4.681   5.205 -0.2428 -0.1394 -0.0691
  172MOL    H9738059   1.074   4.548   5.248  0.9143  1.2183 -0.9737
  172MOL    H9838060   1.144   4.334   5.126 -0.8881 -0.7938 -0.1107
  172MOL    H9938061   0.812   4.388   4.866 -1.6152 -0.1704  1.3221
  172MOL   H10038062   0.744   4.595   4.992 -1.0889 -1.9564 -1.2953
  172MOL   C10138063   1.011   4.967   5.028  0.0656 -0.7063  0.2258
  172MOL   C10238064   0.927   4.863   5.066  0.6114  0.4459 -0.0727
  172MOL   C10338065   0.941   4.790   5.190  0.4540 -0.1963  0.2492
  172MOL   C10438066   1.012   4.847   5.295 -0.4256 -0.2847 -0.1312
  172MOL   C10538067   1.083   4.964   5.263 -0.4416  0.2249 -0.3638
  172MOL   C10638068   1.086   5.020   5.135 -0.6888  0.2099 -0.4521
  172MOL   O10738069   1.156   5.137   5.114  0.4349  0.2251  0.3914
  172MOL   H10838070   1.018   5.016   4.932 -3.8096 -2.5046 -1.1138
  172MOL   H10938071   0.849   4.827   5.000 -0.4658  0.2349  1.2884
  172MOL   H11038072   1.014   4.808   5.395 -1.5005  0.3244  0.1400
  172MOL   H11138073   1.141   5.014   5.339  1.2203 -1.3125 -0.5783
  172MOL   C11238074   1.146   5.501   5.162  0.2515 -0.2299 -0.2242
  172MOL   C11338075   1.191   5.370   5.147  0.0596 -0.8461 -0.2560
  172MOL   C11438076   1.102   5.263   5.119 -0.4943 -0.2579 -0.6801
  172MOL   C11538077   0.963   5.294   5.095 -0.1473  0.2900  0.2886
  172MOL   C11638078   0.925   5.431   5.095 -0.1333 -0.2320 -0.1242
  172MOL   C11738079   1.011   5.534   5.141  0.3576  0.0973 -0.7021
  172MOL   O11838080   0.970   5.665   5.140  0.3764  0.3399 -0.2528
  172MOL   H11938081   1.213   5.579   5.195 -1.6290  0.4254  2.2295
  172MOL   H12038082   1.297   5.357   5.164  0.0778  1.7456  1.9793
  172MOL   H12138083   0.897   5.212   5.070  2.3008 -1.3452 -1.0324
  172MOL   H12238084   0.819   5.445   5.082  0.1856  0.0581 -2.4720
  172MOL   C12338085   0.651   5.816   5.232  0.1969  0.6301 -0.3491
  172MOL   C12438086   0.749   5.753   5.152  0.6366  0.1924  0.4220
  172MOL   C12538087   0.866   5.709   5.216 -0.2925 -0.5155  0.3531
  172MOL   C12638088   0.884   5.721   5.356  0.9027  0.3621 -0.6030
  172MOL   C12738089   0.788   5.786   5.428  0.4721 -0.2898  0.7474
  172MOL   C12838090   0.669   5.833   5.374 -0.5633  0.2016  0.6695
  172MOL   O12938091   0.576   5.885   5.460 -0.2020  0.2320  0.1722
  172MOL   H13038092   0.553   5.839   5.194 -0.4117 -0.7879  0.3502
  172MOL   H13138093   0.741   5.746   5.045  0.5970  0.3064  0.4176
  172MOL   H13238094   0.978   5.692   5.401  0.0461 -0.0450  0.9640
  172MOL   H13338095   0.823   5.809   5.528 -1.0498 -0.4682  1.3334
  172MOL   C13438096   0.329   5.652   5.596  0.2501 -1.1229 -0.5583
  172MOL   C13538097   0.449   5.721   5.573 -0.1143 -0.3300  0.0361
  172MOL   C13638098   0.459   5.817   5.468 -0.1457 -0.0087 -0.4536
  172MOL   C13738099   0.354   5.830   5.374  0.7392  0.0051  0.0787
  172MOL   C13838100   0.238   5.753   5.389  0.1031 -0.2842  0.4554
  172MOL   C13938101   0.227   5.665   5.496 -0.5194 -0.2004 -0.1800
  172MOL   O14038102   0.120   5.582   5.510 -0.6882 -0.1854 -0.2756
  172MOL   H14138103   0.324   5.577   5.673 -1.6643 -0.2222  0.2406
  172MOL   H14238104   0.535   5.706   5.637 -1.4783 -1.3252  1.6921
  172MOL   H14338105   0.357   5.900   5.293 -1.4289  0.1191  0.0844
  172MOL   H14438106   0.158   5.765   5.319  1.9810 -0.1147 -1.7261
  172MOL   C14538107   8.038   5.745   5.482  0.4395  0.0542  0.6906
  172MOL   C14638108   8.150   5.665   5.454 -0.7448  0.4611 -0.0802
  172MOL   C14738109   0.006   5.652   5.547 -0.0831 -0.0919  0.7405
  172MOL   C14838110   8.249   5.717   5.671 -0.2081 -0.2419  0.1306
  172MOL   C14938111   8.140   5.810   5.695  0.1253  0.3712  0.3784
  172MOL   C15038112   8.029   5.824   5.599 -0.2098  0.9391  0.8409
  172MOL   O15138113   7.921   5.905   5.627  0.0204 -0.6436 -0.0161
  172MOL   H15238114   7.952   5.744   5.416  2.1473  3.8384 -1.7616
  172MOL   H15338115   8.160   5.605   5.365  1.3801 -1.7889  1.5810
  172MOL   H15438116   0.074   5.685   5.737 -1.8612 -0.2345  2.1567
  172MOL   H15538117   8.141   5.865   5.788  0.1328 -1.6192  1.5902
  172MOL   C15638118   7.807   5.927   5.980 -0.9124 -0.4420  0.4464
  172MOL   C15738119   7.873   5.958   5.863  0.1887  0.2348  0.7029
  172MOL   C15838120   7.847   5.881   5.746 -0.5561  0.1730  0.2807
  172MOL   C15938121   7.767   5.771   5.759  0.2592  0.9846  0.6017
  172MOL   C16038122   7.694   5.743   5.884  0.1325 -0.3818 -0.1673
  172MOL   C16138123   7.721   5.818   5.994 -0.3367 -0.7296  0.3782
  172MOL   O16238124   7.652   5.801   6.108  0.1751  0.6932  0.2968
  172MOL   H16338125   7.823   5.990   6.067  0.2432  0.0760 -0.1267
  172MOL   H16438126   7.942   6.042   5.861  1.7014 -1.0002  0.0335
  172MOL   H16538127   7.754   5.709   5.671  0.8031  0.1644  1.0960
  172MOL   H16638128   7.621   5.664   5.888  0.5904 -0.8285 -0.5712
  172MOL   C16738129   7.363   5.581   6.137  0.3771  0.3708  0.3727
  172MOL   C16838130   7.439   5.691   6.098  0.5600  0.3610  0.1167
  172MOL   C16938131   7.577   5.692   6.126 -0.0376 -0.1303  0.5802
  172MOL   C17038132   7.638   5.572   6.173  0.2882  0.1988 -0.4126
  172MOL   C17138133   7.563   5.451   6.196 -0.0877 -0.4176  0.0505
  172MOL   C17238134   7.424   5.461   6.170 -0.3568  0.1998 -0.3584
  172MOL   O17338135   7.337   5.358   6.186 -0.3145 -0.4416  0.3147
  172MOL   H17438136   7.255   5.574   6.131  0.6268 -2.7060 -1.0512
  172MOL   H17538137   7.383   5.779   6.070  0.2152  0.3948  0.9101
  172MOL   H17638138   7.743   5.573   6.201  0.3824 -2.7550 -0.4892
  172MOL   H17738139   7.616   5.361   6.223  0.0608 -0.3000  0.1520
  172MOL   C17838140   7.389   5.024   6.057 -0.0061 -0.6703  0.2631
  172MOL   C17938141   7.376   5.127   6.145  0.6280 -0.8077  0.1104
  172MOL   C18038142   7.357   5.257   6.098  0.5039 -0.8008  0.0130
  172MOL   C18138143   7.350   5.283   5.963  0.4039 -0.5772  0.9979
  172MOL   C18238144   7.351   5.177   5.870 -0.0536  0.4039 -0.2691
  172MOL   C18338145   7.383   5.047   5.921 -0.4882  0.0834 -0.0389
  172MOL   O18438146   7.401   4.942   5.833  0.9426  0.2959 -0.3649
  172MOL   H18538147   7.401   4.923   6.094 -0.1074 -1.3335 -1.4814
  172MOL   H18638148   7.379   5.117   6.253 -0.1614 -2.2559  0.0207
  172MOL   H18738149   7.355   5.386   5.932  1.5267 -1.2415 -1.1342
  172MOL   H18838150   7.346   5.203   5.765  1.1560  1.2806 -0.1158
  172MOL   C18938151   7.738   4.945   5.677 -0.0330 -0.0093 -0.1546
  172MOL   C19038152   7.599   4.979   5.710  0.3589 -0.1109  0.0890
  172MOL   C19138153   7.527   4.909   5.806  0.5130  0.4591 -0.2784
  172MOL   C19238154   7.588   4.791   5.859 -0.3973 -0.2167  0.0696
  172MOL   C19338155   7.717   4.752   5.822  0.3851  0.0999  0.2137
  172MOL   C19438156   7.793   4.828   5.725  0.4511  0.7264  1.0336
  172MOL   O19538157   7.923   4.805   5.697 -0.2529  0.4047  0.0154
  172MOL   H19638158   7.789   4.999   5.598  0.3658 -1.4435 -0.9038
  172MOL   H19738159   7.560   5.074   5.676 -0.2994 -0.5855 -0.4849
  172MOL   H19838160   7.528   4.736   5.930  0.3512 -1.7257 -0.4374
  172MOL   H19938161   7.756   4.661   5.868  0.4355  0.7556  1.5024
  172MOL   C20038162   8.138   4.541   5.847 -0.7050  0.8826 -0.1573
  172MOL   C20138163   8.084   4.669   5.816  0.2795  0.4671  0.7894
  172MOL   C20238164   7.980   4.681   5.719 -0.0670 -0.2704 -0.1160
  172MOL   C20338165   7.937   4.568   5.649  0.1133  0.6293 -0.2454
  172MOL   C20438166   7.985   4.439   5.682 -0.3942  0.5016 -0.3803
  172MOL   C20538167   8.087   4.425   5.780  0.4218  0.4922  0.4074
  172MOL   O20638168   8.130   4.299   5.801  0.4988  0.6643  0.0882
  172MOL   H20738169   8.209   4.545   5.928 -1.2493  0.0400  0.3782
  172MOL   H20838170   8.125   4.761   5.856  1.8918  0.8314 -1.6200
  172MOL   H20938171   7.854   4.575   5.581 -0.3510 -4.0422 -0.2842
  172MOL   H21038172   7.938   4.347   5.650 -0.5019  1.1226 -2.1018
  172MOL   C21138173   0.180   4.215   5.607 -0.0345  0.2319  0.8325
  172MOL   C21238174   0.044   4.243   5.632 -0.6797 -0.2488  0.1835
  172MOL   C21338175   0.006   4.273   5.766 -0.0136 -0.6547  0.5791
  172MOL   C21438176   0.097   4.274   5.874  0.1377 -0.1347  0.3966
  172MOL   C21538177   0.225   4.224   5.850 -0.2224  0.7355 -0.0475
  172MOL   C21638178   0.267   4.195   5.717  0.1428 -0.3893 -0.5406
  172MOL   O21738179   0.397   4.163   5.693 -0.2299 -0.2946 -0.1238
  172MOL   H21838180   0.197   4.188   5.504 -0.1025 -0.0325  0.8911
  172MOL   H21938181   8.221   4.238   5.556  0.3341 -0.4111 -0.8571
  172MOL   H22038182   0.073   4.300   5.976  1.5745 -0.6062  0.8550
  172MOL   H22138183   0.298   4.209   5.928  0.4669 -1.1862 -1.0236
  172MOL   H22238184   0.424   4.165   5.603 -0.6030  1.6071 -0.2047
  173MOL     C138185   0.419   2.300   4.282  0.2091 -0.0904  0.0919
  173MOL     C238186   0.506   2.253   4.182 -0.2111  0.0127  0.3828
  173MOL     C338187   0.459   2.153   4.095 -0.3497 -0.0895  0.0136
  173MOL     C438188   0.327   2.108   4.111  0.1335 -0.0940 -0.0066
  173MOL     C538189   0.238   2.159   4.201  0.2799  0.1307 -0.4374
  173MOL     C638190   0.283   2.258   4.290 -0.6112 -0.3454  0.1210
  173MOL     O738191   0.183   2.319   4.361  0.6956 -0.4294  0.4551
  173MOL     H838192   0.459   2.376   4.347 -0.5185  1.2008 -0.9584
  173MOL     H938193   0.612   2.272   4.188 -0.1667 -0.2876  0.6291
  173MOL    H1038194   0.303   2.030   4.040 -0.0551 -1.1459  1.1800
  173MOL    H1138195   0.140   2.113   4.202  0.0010  0.6935  1.9539
  173MOL    H1238196   0.528   2.113   4.023 -0.6937 -0.5783 -0.0466
  173MOL    C1338197   0.224   2.559   4.638  0.4857  0.5440 -0.0996
  173MOL    C1438198   0.186   2.497   4.516  0.0611 -0.1692  0.5391
  173MOL    C1538199   0.207   2.362   4.491  0.0366 -0.4129 -0.1756
  173MOL    C1638200   0.262   2.278   4.588  0.0600 -0.3650 -0.3388
  173MOL    C1738201   0.294   2.331   4.717  0.5976 -0.0783  0.8751
  173MOL    C1838202   0.278   2.472   4.741  0.2451 -0.1720  0.0614
  173MOL    O1938203   0.334   2.533   4.855  0.0683  0.3313  0.2117
  173MOL    H2038204   0.231   2.665   4.652 -0.4022  0.4484  1.1793
  173MOL    H2138205   0.157   2.560   4.433 -2.0686 -0.3103  1.1528
  173MOL    H2238206   0.273   2.171   4.571 -0.8837 -0.4879 -0.1651
  173MOL    H2338207   0.351   2.268   4.783  0.9767  0.2650  0.8736
  173MOL    C2438208   0.238   2.646   5.189  0.2522 -0.6146 -0.3226
  173MOL    C2538209   0.318   2.610   5.082 -0.9783  0.4612  1.2563
  173MOL    C2638210   0.262   2.553   4.965  0.2292 -0.1710 -0.6273
  173MOL    C2738211   0.119   2.544   4.962 -0.1336  1.2041 -0.2893
  173MOL    C2838212   0.038   2.591   5.066 -0.1259 -0.0184  0.1212
  173MOL    C2938213   0.099   2.638   5.184 -0.5216  0.2480  0.2618
  173MOL    O3038214   0.017   2.677   5.292  0.0870 -0.1234  0.5441
  173MOL    H3138215   0.284   2.686   5.279 -0.9391  1.2252 -0.5031
  173MOL    H3238216   0.425   2.624   5.082 -0.3482 -3.2627 -2.2771
  173MOL    H3338217   0.072   2.512   4.870  0.6170  3.0127 -1.3248
  173MOL    H3438218   8.185   2.585   5.052 -0.2407  0.8178  0.5832
  173MOL    C3538219   8.153   2.430   5.538 -0.8630 -0.0486  0.3637
  173MOL    C3638220   8.159   2.509   5.420 -0.3541  0.6633 -0.0008
  173MOL    C3738221   0.016   2.592   5.393  0.6279  0.2338  0.3785
  173MOL    C3838222   0.116   2.598   5.492 -0.4999  0.3747 -0.2399
  173MOL    C3938223   0.114   2.509   5.604  0.0583  0.0660  0.2672
  173MOL    C4038224   0.001   2.427   5.630 -0.7253 -0.3036 -0.0781
  173MOL    O4138225   8.247   2.348   5.745 -0.4191 -0.2858 -0.2512
  173MOL    H4238226   8.062   2.372   5.551  0.0675 -1.9838 -1.4794
  173MOL    H4338227   8.074   2.503   5.353 -0.0476  0.0621 -0.3446
  173MOL    H4438228   0.197   2.666   5.470 -0.5815  1.3869  2.4237
  173MOL    H4538229   0.192   2.495   5.677 -1.1701 -3.1036  1.0309
  173MOL    C4638230   0.114   2.017   5.645 -0.2563  0.2599  0.6415
  173MOL    C4738231   0.097   2.152   5.647  0.5923 -0.2565 -0.3720
  173MOL    C4838232   0.000   2.213   5.729  0.3047  0.0993 -0.1564
  173MOL    C4938233   8.168   2.129   5.799 -0.4795  0.2249 -0.5276
  173MOL    C5038234   8.178   1.984   5.786 -0.1311  0.4403  0.0244
  173MOL    C5138235   0.029   1.927   5.711 -0.3171  0.1689  0.1758
  173MOL    O5238236   0.037   1.787   5.695 -0.1600  0.0010  0.2166
  173MOL    H5338237   0.201   1.987   5.588  0.7430 -0.4155  2.4905
  173MOL    H5438238   0.172   2.209   5.594 -0.3593  1.7160  0.3618
  173MOL    H5538239   8.081   2.174   5.846 -0.1263  0.8024 -0.4229
  173MOL    H5638240   8.103   1.920   5.830 -0.4223  1.1309  0.5508
  173MOL    C5738241   8.062   1.525   5.611  0.1252 -0.0085  0.9339
  173MOL    C5838242   8.166   1.597   5.672  0.0142  0.1958  0.4892
  173MOL    C5938243   8.192   1.725   5.634  0.8048  0.4571  0.6094
  173MOL    C6038244   8.105   1.789   5.545 -0.0408  0.3066  0.0443
  173MOL    C6138245   7.995   1.718   5.488 -0.7959 -1.0084  0.2043
  173MOL    C6238246   7.971   1.589   5.529  0.7872  0.3606  0.4079
  173MOL    O6338247   7.871   1.519   5.473 -0.1233  0.3002  0.1095
  173MOL    H6438248   8.048   1.425   5.649 -0.0123  0.4491  2.1213
  173MOL    H6538249   8.234   1.546   5.739  0.4709 -1.9023 -1.5304
  173MOL    H6638250   8.107   1.892   5.514 -0.6912 -0.2128 -1.8121
  173MOL    H6738251   7.933   1.760   5.410 -1.2256  1.6910  1.9128
  173MOL    C6838252   7.525   1.613   5.559  0.4620  0.0663  0.4708
  173MOL    C6938253   7.655   1.560   5.567 -0.7962  0.6705  0.1463
  173MOL    C7038254   7.749   1.583   5.471 -0.3796  0.1139  0.6589
  173MOL    C7138255   7.715   1.652   5.349  0.5688  0.3433  0.2549
  173MOL    C7238256   7.585   1.700   5.336 -0.2057 -0.3587 -0.4765
  173MOL    C7338257   7.492   1.682   5.440  0.6939 -0.2512  0.0194
  173MOL    O7438258   7.361   1.730   5.429 -0.0795 -0.1722 -0.1614
  173MOL    H7538259   7.447   1.606   5.634  0.1860  1.1342  0.2882
  173MOL    H7638260   7.688   1.495   5.646 -1.0709 -0.4523 -0.6526
  173MOL    H7738261   7.786   1.669   5.269 -0.8118  1.3994 -0.7645
  173MOL    H7838262   7.547   1.765   5.259 -0.0100 -0.4850 -0.6801
  173MOL    C7938263   7.236   1.532   5.149  0.2438  0.8202 -0.0202
  173MOL    C8038264   7.301   1.565   5.269 -0.1205  0.4035  0.0078
  173MOL    C8138265   7.290   1.698   5.319  0.2742 -0.0009  0.5091
  173MOL    C8238266   7.223   1.800   5.248 -0.2321  0.3955  0.5716
  173MOL    C8338267   7.163   1.758   5.125 -0.3706 -0.6038 -1.0216
  173MOL    C8438268   7.167   1.625   5.073 -0.4363  0.4017  0.4502
  173MOL    O8538269   7.091   1.588   4.965 -0.8564 -0.2806 -0.1667
  173MOL    H8638270   7.241   1.425   5.137 -1.1854  0.6163  1.0207
  173MOL    H8738271   7.368   1.498   5.319 -1.4683 -2.4487 -1.8811
  173MOL    H8838272   7.219   1.899   5.289 -0.6092  0.0084  1.4774
  173MOL    H8938273   7.105   1.844   5.095  1.3797  1.7984  2.2114
  173MOL    C9038274   7.187   1.809   4.691 -0.0936 -0.5381  0.2837
  173MOL    C9138275   7.199   1.723   4.797 -0.0862 -0.3099 -0.3419
  173MOL    C9238276   7.085   1.675   4.859 -0.8847 -0.5738 -0.7637
  173MOL    C9338277   6.957   1.716   4.808 -0.5296 -0.1892  0.2718
  173MOL    C9438278   6.946   1.796   4.693  0.4934 -0.3590 -0.6046
  173MOL    C9538279   7.063   1.847   4.637 -0.0412  0.6850  0.5220
  173MOL    O9638280   7.060   1.935   4.530 -0.1626  0.3350 -0.3216
  173MOL    H9738281   7.278   1.846   4.644  1.0185  0.2382  2.9648
  173MOL    H9838282   7.299   1.690   4.824 -0.5932 -1.8976 -0.3589
  173MOL    H9938283   6.870   1.678   4.860 -2.5660  0.6900 -2.3955
  173MOL   H10038284   6.852   1.828   4.652  0.1605 -0.1625  0.3069
  173MOL   C10138285   6.935   2.233   4.695  0.4016 -0.0589 -0.3125
  173MOL   C10238286   7.004   2.110   4.678 -0.4278 -0.1691 -0.8176
  173MOL   C10338287   6.993   2.046   4.554 -0.0074  1.3040  0.1739
  173MOL   C10438288   6.923   2.102   4.447 -0.1868  0.3417  0.7762
  173MOL   C10538289   6.867   2.228   4.466 -0.1832 -0.0964  0.3252
  173MOL   C10638290   6.857   2.287   4.591  1.0821 -0.0390 -0.3130
  173MOL   O10738291   6.792   2.411   4.603  0.0797 -0.7571 -0.0547
  173MOL   H10838292   6.941   2.288   4.788 -1.2231  0.6602 -0.6190
  173MOL   H10938293   7.065   2.066   4.756  1.1406  1.8687 -0.8471
  173MOL   H11038294   6.927   2.059   4.349  1.0751 -1.2760  1.5201
  173MOL   H11138295   6.815   2.276   4.384  0.9262  0.9319  0.2284
  173MOL   C11238296   6.904   2.692   4.812  0.3276  0.0255 -0.1572
  173MOL   C11338297   6.822   2.587   4.767  0.6807  0.2089  0.3508
  173MOL   C11438298   6.868   2.510   4.659  0.2340  0.5966 -0.4015
  173MOL   C11538299   7.000   2.520   4.616 -0.3135  0.9117 -0.0257
  173MOL   C11638300   7.084   2.623   4.669 -0.4877  0.7958  0.2583
  173MOL   C11738301   7.033   2.710   4.760  0.1111  1.0761 -0.3292
  173MOL   O11838302   7.113   2.812   4.807  0.4601 -0.0537 -0.8683
  173MOL   H11938303   6.863   2.749   4.894  0.2020 -0.4173  0.0936
  173MOL   H12038304   6.722   2.572   4.807  1.3141 -0.9057  1.5437
  173MOL   H12138305   7.035   2.453   4.539  2.6503 -0.7285  2.6465
  173MOL   H12238306   7.180   2.628   4.620  0.6292  1.5394  2.4568
  173MOL   C12338307   7.205   3.028   4.530  0.0464  0.3971 -0.1628
  173MOL   C12438308   7.144   2.921   4.594 -0.2904 -0.1405 -0.0703
  173MOL   C12538309   7.154   2.917   4.734  0.4198  0.0642 -0.6673
  173MOL   C12638310   7.210   3.019   4.810  0.0047  0.8144 -0.0565
  173MOL   C12738311   7.268   3.132   4.739 -0.4468  0.1477  0.1614
  173MOL   C12838312   7.276   3.128   4.602 -0.3189  0.2144 -0.0852
  173MOL   O12938313   7.327   3.233   4.532 -0.5576 -0.2008  0.3167
  173MOL   H13038314   7.206   3.022   4.422  0.0851  0.2008 -0.1517
  173MOL   H13138315   7.104   2.841   4.534 -1.2357 -1.7351  2.5665
  173MOL   H13238316   7.206   3.007   4.918 -2.4322  0.6898 -0.1524
  173MOL   H13338317   7.307   3.220   4.789  1.4554  0.1908 -1.3359
  173MOL   C13438318   7.570   3.311   4.271 -0.3918  0.1743 -0.8563
  173MOL   C13538319   7.458   3.320   4.359  0.1012 -0.1375  0.6942
  173MOL   C13638320   7.437   3.220   4.454  0.6012  1.3286 -0.4747
  173MOL   C13738321   7.532   3.119   4.472 -0.0657 -0.2654 -0.2649
  173MOL   C13838322   7.645   3.118   4.390 -0.1001 -0.3656  0.4602
  173MOL   C13938323   7.663   3.213   4.291  0.2277 -0.5191  0.1016
  173MOL   O14038324   7.766   3.195   4.210  0.0593  0.0338  0.3870
  173MOL   H14138325   7.580   3.386   4.194 -1.5594  1.3138  0.0865
  173MOL   H14238326   7.388   3.400   4.344  1.1006  0.5510 -0.3520
  173MOL   H14338327   7.512   3.037   4.540  0.4146 -0.0880  0.0908
  173MOL   H14438328   7.707   3.030   4.402 -0.5111 -0.5673  1.1297
  173MOL   C14538329   8.066   3.334   4.049  0.0432  0.1973 -0.3127
  173MOL   C14638330   7.967   3.248   4.089 -0.3044  0.7771  0.4065
  173MOL   C14738331   7.870   3.289   4.185  0.6732  0.0787  0.3685
  173MOL   C14838332   7.879   3.415   4.236  0.6099 -0.1829 -0.8179
  173MOL   C14938333   7.983   3.505   4.198  0.4916 -0.6774  0.4895
  173MOL   C15038334   8.082   3.460   4.108  0.2333 -0.2674  0.3266
  173MOL   O15138335   8.186   3.538   4.062  0.1937 -0.7193  0.0588
  173MOL   H15238336   8.131   3.315   3.965  1.4871  2.0879  0.3430
  173MOL   H15338337   7.951   3.156   4.034  0.5340  0.4692  0.6749
  173MOL   H15438338   7.803   3.452   4.303 -0.1663  0.0802 -1.8272
  173MOL   H15538339   7.981   3.607   4.232 -1.4648 -0.4286 -0.2850
  173MOL   C15638340   0.112   3.627   4.374  0.5089  0.6128 -1.0492
  173MOL   C15738341   0.060   3.551   4.271  0.4674 -0.2896  0.3082
  173MOL   C15838342   0.003   3.609   4.154 -0.3773  0.2937  0.2670
  173MOL   C15938343   0.028   3.741   4.128  0.6546  0.0882  0.0827
  173MOL   C16038344   0.082   3.818   4.237 -0.9207 -0.7879  0.2343
  173MOL   C16138345   0.134   3.763   4.353 -0.5037 -0.4590  0.3946
  173MOL   O16238346   0.214   3.828   4.446 -0.7738 -0.0149 -0.3607
  173MOL   H16338347   0.147   3.577   4.463  0.4850 -1.0029 -1.9302
  173MOL   H16438348   0.038   3.445   4.279  1.2432 -0.4838  0.0063
  173MOL   H16538349   8.240   3.793   4.043  0.2406  1.5307  1.1327
  173MOL   H16638350   0.087   3.925   4.226  2.0531 -0.8403  0.8180
  173MOL   C16738351   0.289   4.177   4.352 -0.0498  0.7041 -0.0524
  173MOL   C16838352   0.229   4.065   4.415  1.1693  0.2820  0.1391
  173MOL   C16938353   0.287   3.933   4.395  0.2237  0.0306  0.4922
  173MOL   C17038354   0.402   3.921   4.311  0.0083 -0.4920  0.3709
  173MOL   C17138355   0.455   4.034   4.242 -0.0640  0.4863 -0.1063
  173MOL   C17238356   0.403   4.159   4.266  0.1313  0.2286 -0.1307
  173MOL   O17338357   0.465   4.270   4.207  0.6605 -0.3019 -0.4005
  173MOL   H17438358   0.253   4.278   4.352 -3.4050 -0.4264 -1.1376
  173MOL   H17538359   0.137   4.064   4.470 -1.2814  1.4173 -3.7516
  173MOL   H17638360   0.445   3.824   4.290 -0.2592 -1.4950  3.9925
  173MOL   H17738361   0.536   4.021   4.172  0.5196  0.2338  0.6171
  173MOL   C17838362   0.556   4.593   4.347  0.4533 -0.2540 -0.1157
  173MOL   C17938363   0.489   4.494   4.274 -0.2103  0.2435  0.0340
  173MOL   C18038364   0.526   4.356   4.294 -0.5123 -0.6864 -0.3189
  173MOL   C18138365   0.640   4.331   4.368  0.6894  0.0218 -0.5902
  173MOL   C18238366   0.708   4.430   4.434  0.5548  0.1307 -0.1731
  173MOL   C18338367   0.662   4.562   4.425 -0.1348  0.7594  0.4502
  173MOL   O18438368   0.726   4.662   4.486  0.2298  0.5354 -0.3567
  173MOL   H18538369   0.537   4.696   4.320  0.6268 -0.4664 -1.0887
  173MOL   H18638370   0.405   4.522   4.212 -0.8595 -1.8868 -0.0908
  173MOL   H18738371   0.673   4.229   4.381 -0.5042 -0.0172  2.5606
  173MOL   H18838372   0.794   4.397   4.491  0.1784 -0.6995 -0.0726
  173MOL   C18938373   1.087   4.616   4.445 -0.2874 -0.6395  0.1812
  173MOL   C19038374   0.951   4.612   4.415 -0.1280 -0.1658 -0.1314
  173MOL   C19138375   0.861   4.651   4.515  0.3505  0.2238 -0.2511
  173MOL   C19238376   0.907   4.681   4.646 -0.7882  1.2172 -0.2858
  173MOL   C19338377   1.039   4.666   4.681 -0.3131 -0.2343  0.5036
  173MOL   C19438378   1.132   4.626   4.580  0.7066 -0.4110 -0.2303
  173MOL   O19538379   1.266   4.607   4.608 -0.2779 -0.0989 -0.4191
  173MOL   H19638380   1.148   4.601   4.357  1.7050  0.4844  1.3191
  173MOL   H19738381   0.912   4.590   4.317  0.6145 -1.1074 -0.2227
  173MOL   H19838382   0.851   4.716   4.732 -1.1903 -0.4486  0.1614
  173MOL   H19938383   1.066   4.694   4.782  0.8135  0.9872 -0.1043
  173MOL   C20038384   1.560   4.587   4.384 -0.7778 -0.1463  0.4067
  173MOL   C20138385   1.461   4.550   4.481 -0.1573  0.1247 -0.9283
  173MOL   C20238386   1.363   4.646   4.522  0.2810 -0.2460  0.2888
  173MOL   C20338387   1.371   4.779   4.479 -0.3021 -0.4978  0.1251
  173MOL   C20438388   1.474   4.821   4.396 -0.6075 -0.4947  0.2095
  173MOL   C20538389   1.568   4.725   4.339  0.4845  0.5032 -0.8594
  173MOL   O20638390   1.668   4.765   4.258  0.2892  0.1148  0.5656
  173MOL   H20738391   1.649   4.531   4.358 -1.1992 -0.9070  0.5807
  173MOL   H20838392   1.448   4.449   4.517 -0.7485  0.5582  0.0810
  173MOL   H20938393   1.300   4.851   4.518  1.8272  2.2432 -0.8895
  173MOL   H21038394   1.483   4.926   4.374  2.2676 -0.4450  1.3936
  173MOL   C21138395   1.608   4.660   3.913 -0.7013  0.3347 -0.1564
  173MOL   C21238396   1.655   4.661   4.047 -0.3233  0.8266  0.1783
  173MOL   C21338397   1.636   4.772   4.127  0.1035 -0.1961  0.1015
  173MOL   C21438398   1.581   4.889   4.074  0.8407 -0.1257 -0.6763
  173MOL   C21538399   1.535   4.893   3.942  0.2204  0.1339  0.0493
  173MOL   C21638400   1.548   4.776   3.869 -0.0381  0.1973  0.4191
  173MOL   O21738401   1.509   4.791   3.743  0.0068 -0.8159  0.3807
  173MOL   H21838402   1.612   4.570   3.854  1.7271  0.4820 -0.2921
  173MOL   H21938403   1.707   4.571   4.076  0.9882  1.2455 -0.8404
  173MOL   H22038404   1.566   4.975   4.137 -0.3568 -0.3888 -0.6042
  173MOL   H22138405   1.494   4.987   3.909 -1.3534 -0.3314  0.6037
  173MOL   H22238406   1.501   4.706   3.703  1.4663  0.6634 -3.1997
  174MOL     C138407   2.369   2.638   4.546  0.1177  0.2580 -0.0003
  174MOL     C238408   2.442   2.537   4.607  0.5587  0.1268  0.1952
  174MOL     C338409   2.372   2.454   4.695 -0.0303 -0.5266 -0.3086
  174MOL     C438410   2.233   2.479   4.734 -0.1912 -0.3035 -0.1133
  174MOL     C538411   2.163   2.584   4.669 -0.5818  0.1531  0.2954
  174MOL     C638412   2.234   2.660   4.571 -0.1323  0.0821  0.3643
  174MOL     O738413   2.180   2.766   4.502  0.0876 -0.3334  0.0741
  174MOL     H838414   2.425   2.693   4.473  0.8421  0.0702  0.4148
  174MOL     H938415   2.545   2.522   4.579 -0.2985 -1.6221 -2.1363
  174MOL    H1038416   2.190   2.423   4.816  1.3402 -0.6162  0.4926
  174MOL    H1138417   2.060   2.607   4.695 -0.9415 -1.4677  0.3372
  174MOL    H1238418   2.426   2.374   4.742  0.9346  0.7284  0.7472
  174MOL    C1338419   1.856   2.759   4.314  0.2715 -0.6302  0.0527
  174MOL    C1438420   1.995   2.744   4.341 -0.1254 -0.1395  0.1688
  174MOL    C1538421   2.045   2.775   4.470  0.7932  0.0851  0.0239
  174MOL    C1638422   1.954   2.814   4.570 -0.0594 -0.1178 -0.4021
  174MOL    C1738423   1.818   2.828   4.539  0.4124 -0.3541  0.1555
  174MOL    C1838424   1.766   2.807   4.409  0.2409  0.0653  0.2031
  174MOL    O1938425   1.629   2.810   4.390 -0.1224  0.2812 -0.2931
  174MOL    H2038426   1.818   2.741   4.215 -2.3089  2.3279  0.4317
  174MOL    H2138427   2.073   2.711   4.274  0.3029  0.6702  0.2670
  174MOL    H2238428   2.000   2.826   4.667  2.0423 -0.0593 -1.3676
  174MOL    H2338429   1.753   2.857   4.619 -0.6056 -0.8011 -0.4916
  174MOL    C2438430   1.580   3.032   4.090 -1.1610  0.7974  0.4841
  174MOL    C2538431   1.624   2.984   4.218 -0.8681 -0.5155 -0.3137
  174MOL    C2638432   1.581   2.866   4.269 -0.3772  0.5196  0.2420
  174MOL    C2738433   1.489   2.791   4.195  0.3879 -0.2538 -0.5622
  174MOL    C2838434   1.431   2.842   4.076  0.2748  0.4684 -0.1305
  174MOL    C2938435   1.484   2.961   4.020  0.2195  0.3520  0.6775
  174MOL    O3038436   1.436   3.016   3.906  0.3918 -0.5567  0.0406
  174MOL    H3138437   1.610   3.131   4.060  0.9671  0.5864  1.7837
  174MOL    H3238438   1.696   3.044   4.273 -0.6921  0.5863 -1.7049
  174MOL    H3338439   1.444   2.702   4.237  0.1335 -0.7809 -1.9154
  174MOL    H3438440   1.359   2.776   4.029  2.4543 -2.7878  0.9052
  174MOL    C3538441   1.114   3.185   3.969 -0.0744  0.2403  0.3842
  174MOL    C3638442   1.248   3.158   3.974  0.0311 -0.0481  0.3539
  174MOL    C3738443   1.305   3.053   3.899  0.0998  0.3116 -0.5296
  174MOL    C3838444   1.217   2.967   3.823 -0.6136 -0.2589 -0.0402
  174MOL    C3938445   1.080   2.992   3.825 -0.2073  0.5264 -0.1940
  174MOL    C4038446   1.025   3.103   3.895  0.2092 -0.5625 -0.3950
  174MOL    O4138447   0.894   3.136   3.883 -0.3576 -0.0651 -0.8316
  174MOL    H4238448   1.080   3.277   4.013  0.9775  0.8078  0.0150
  174MOL    H4338449   1.305   3.227   4.035  1.1425 -2.3718  1.9999
  174MOL    H4438450   1.266   2.891   3.765  0.9802  0.3673  0.4557
  174MOL    H4538451   1.018   2.930   3.761  1.6947 -0.7864 -0.8338
  174MOL    C4638452   0.791   3.444   3.701  0.1349 -0.5894  0.7044
  174MOL    C4738453   0.813   3.358   3.811 -0.7157 -0.1091 -0.2984
  174MOL    C4838454   0.857   3.226   3.785  0.4639 -0.3188  0.7741
  174MOL    C4938455   0.852   3.176   3.646  0.9610 -0.4058 -0.0832
  174MOL    C5038456   0.808   3.260   3.544 -0.1518  0.0752  0.5541
  174MOL    C5138457   0.780   3.397   3.571  0.1757  0.2016 -0.1320
  174MOL    O5238458   0.752   3.479   3.464 -0.0845  0.6565 -0.0408
  174MOL    H5338459   0.762   3.545   3.729 -4.4383 -1.0293 -1.9352
  174MOL    H5438460   0.804   3.399   3.911  2.4065  1.0265 -0.4434
  174MOL    H5538461   0.862   3.070   3.629 -2.3147 -0.4222 -2.3248
  174MOL    H5638462   0.791   3.222   3.444 -0.2641  1.1427  0.1574
  174MOL    C5738463   1.079   3.611   3.367 -0.2843  0.4391  0.1703
  174MOL    C5838464   0.978   3.520   3.399 -0.7158  0.5974 -0.2990
  174MOL    C5938465   0.853   3.565   3.438  0.0033 -0.6648 -0.9476
  174MOL    C6038466   0.826   3.707   3.449  0.1779 -0.2085  0.6239
  174MOL    C6138467   0.929   3.802   3.419 -0.6853  0.5576 -0.4278
  174MOL    C6238468   1.050   3.753   3.370  0.3084  0.2192 -0.2804
  174MOL    O6338469   1.143   3.843   3.331  0.0896 -0.1264  0.5130
  174MOL    H6438470   1.177   3.580   3.334  0.1981 -0.6867  2.5854
  174MOL    H6538471   0.992   3.413   3.404 -2.6668  0.1668 -2.7267
  174MOL    H6638472   0.725   3.736   3.477  0.5624  2.5449 -0.6127
  174MOL    H6738473   0.913   3.908   3.413  0.2525  0.6673 -1.2192
  174MOL    C6838474   1.158   3.848   2.962 -0.4511 -0.3194  0.1715
  174MOL    C6938475   1.102   3.854   3.090  0.1196 -0.0865 -0.2121
  174MOL    C7038476   1.190   3.842   3.201  0.2769 -0.4078  0.4843
  174MOL    C7138477   1.328   3.823   3.192 -0.2011 -0.6421 -0.2837
  174MOL    C7238478   1.373   3.800   3.059 -0.6774 -0.9985 -0.1330
  174MOL    C7338479   1.291   3.805   2.946  0.1444 -0.1204  0.0526
  174MOL    O7438480   1.341   3.769   2.826 -0.2900 -0.3362 -0.2068
  174MOL    H7538481   1.090   3.870   2.881  1.8494  1.9505 -1.2068
  174MOL    H7638482   0.997   3.877   3.103  0.5611  1.6743  0.3749
  174MOL    H7738483   1.395   3.820   3.276 -1.3687 -0.3913  0.6787
  174MOL    H7838484   1.477   3.772   3.058 -0.1793  0.7237  1.2670
  174MOL    C7938485   1.184   3.469   2.695 -1.4077 -0.6103  0.5938
  174MOL    C8038486   1.250   3.556   2.790 -0.3408  0.1723  0.9002
  174MOL    C8138487   1.265   3.688   2.751  0.0638  0.9313  0.2921
  174MOL    C8238488   1.211   3.741   2.636 -0.2975  0.5929 -0.2661
  174MOL    C8338489   1.147   3.655   2.546  0.1201 -0.0521  0.3011
  174MOL    C8438490   1.130   3.515   2.575  0.7143 -0.1569  0.4215
  174MOL    O8538491   1.070   3.437   2.480 -0.4109 -0.4234 -0.2771
  174MOL    H8638492   1.191   3.363   2.717  1.3939 -1.1003 -2.3396
  174MOL    H8738493   1.287   3.522   2.886  2.2882 -1.3762 -0.5985
  174MOL    H8838494   1.195   3.847   2.623 -1.9387 -0.0545 -4.1673
  174MOL    H8938495   1.115   3.701   2.454 -0.8991 -1.1878  0.0766
  174MOL    C9038496   1.268   3.142   2.384  0.6094  0.5043  0.0218
  174MOL    C9138497   1.217   3.273   2.387  0.2423  0.0874  0.1512
  174MOL    C9238498   1.105   3.301   2.466  0.4142  0.4420  0.2352
  174MOL    C9338499   1.043   3.195   2.541  0.6732  0.0927  0.0616
  174MOL    C9438500   1.086   3.065   2.535 -0.0299  0.4561  0.7249
  174MOL    C9538501   1.200   3.035   2.461 -0.2454  0.4778 -0.2797
  174MOL    O9638502   1.246   2.908   2.462 -0.6672  0.0941 -0.0844
  174MOL    H9738503   1.348   3.112   2.318  0.1265  2.2551 -1.4044
  174MOL    H9838504   1.264   3.359   2.342  2.4771 -0.9433  0.4417
  174MOL    H9938505   0.960   3.213   2.608 -1.1844 -2.7710 -1.3902
  174MOL   H10038506   1.031   2.997   2.598 -0.2287  1.1737  1.3355
  174MOL   C10138507   1.581   2.786   2.375  0.7056  1.0509  0.5336
  174MOL   C10238508   1.441   2.801   2.371 -0.6517  0.1850 -0.3624
  174MOL   C10338509   1.382   2.884   2.468  0.5435  0.3977 -0.1345
  174MOL   C10438510   1.451   2.951   2.561 -0.0654  0.0664  0.2328
  174MOL   C10538511   1.592   2.937   2.564 -0.5577 -0.0475 -0.2821
  174MOL   C10638512   1.651   2.856   2.469 -0.2659  0.0719  0.5383
  174MOL   O10738513   1.788   2.840   2.468  0.3447  0.7091  0.1163
  174MOL   H10838514   1.620   2.715   2.304 -0.2073 -1.5888  2.6139
  174MOL   H10938515   1.379   2.748   2.300  0.0823  0.7558 -1.4331
  174MOL   H11038516   1.398   3.015   2.631  1.0836  1.1989  0.0932
  174MOL   H11138517   1.648   2.985   2.643 -0.4210 -0.6739  0.0143
  174MOL   C11238518   1.958   3.053   2.229  0.0646  0.2380 -0.0150
  174MOL   C11338519   1.878   2.952   2.277 -0.3627 -0.7309 -0.2009
  174MOL   C11438520   1.859   2.941   2.416  0.3548 -0.2722  0.0324
  174MOL   C11538521   1.917   3.036   2.502 -0.3679 -0.2916 -0.2457
  174MOL   C11638522   1.980   3.147   2.448 -0.3986  0.1379 -0.3247
  174MOL   C11738523   2.009   3.156   2.310 -0.3613 -0.1785 -0.4145
  174MOL   O11838524   2.078   3.259   2.252  0.0824 -0.3562 -0.3655
  174MOL   H11938525   1.969   3.056   2.121  0.0057 -0.9104 -0.0572
  174MOL   H12038526   1.837   2.879   2.210 -0.2661 -0.7182 -0.2729
  174MOL   H12138527   1.891   3.025   2.606 -2.1169  0.8154 -0.5622
  174MOL   H12238528   2.030   3.210   2.520  2.4155  0.0582 -2.1350
  174MOL   C12338529   2.242   3.521   2.458 -1.3400 -0.2003  0.0350
  174MOL   C12438530   2.140   3.446   2.391  0.0081  0.8732 -0.3716
  174MOL   C12538531   2.173   3.321   2.327 -0.0853  0.3544  0.3624
  174MOL   C12638532   2.298   3.268   2.342  0.1695  0.0062  0.1098
  174MOL   C12738533   2.395   3.339   2.411  0.4622 -0.3850 -0.5342
  174MOL   C12838534   2.372   3.465   2.471 -0.2154  0.0140  0.2494
  174MOL   O12938535   2.467   3.539   2.541 -0.3238 -0.0475 -0.1772
  174MOL   H13038536   2.221   3.620   2.495 -2.2232  0.2932 -1.7391
  174MOL   H13138537   2.040   3.486   2.386 -0.5078 -0.3048  0.3623
  174MOL   H13238538   2.326   3.179   2.287  0.0574 -0.8747  1.4603
  174MOL   H13338539   2.492   3.293   2.425  0.4785 -0.0349  0.5009
  174MOL   C13438540   2.619   3.883   2.556 -0.3017 -0.4107 -0.0415
  174MOL   C13538541   2.556   3.762   2.593 -0.6948 -0.7407 -0.3220
  174MOL   C13638542   2.500   3.667   2.499  0.1725  0.1488 -0.8071
  174MOL   C13738543   2.515   3.697   2.364  0.2796 -0.3971  0.3698
  174MOL   C13838544   2.567   3.823   2.328  0.8770 -0.2657  0.2630
  174MOL   C13938545   2.620   3.918   2.417  0.1044 -0.1916  0.5332
  174MOL   O14038546   2.676   4.036   2.376  0.6269 -0.4300  0.7119
  174MOL   H14138547   2.640   3.944   2.642 -2.4053  0.1041  0.1298
  174MOL   H14238548   2.552   3.726   2.695  2.2659 -1.0729 -0.2945
  174MOL   H14338549   2.476   3.633   2.286 -2.7736 -1.0691  2.3589
  174MOL   H14438550   2.564   3.848   2.223 -0.0858  1.1217  0.6038
  174MOL   C14538551   2.376   4.245   2.291 -0.6196 -0.3871 -0.6886
  174MOL   C14638552   2.458   4.148   2.354 -0.6508 -0.1305  0.6590
  174MOL   C14738553   2.595   4.133   2.321 -0.3376  0.1819 -0.3710
  174MOL   C14838554   2.650   4.230   2.232  0.2691  0.3947 -0.1680
  174MOL   C14938555   2.571   4.328   2.164 -0.2803  0.2301  0.0394
  174MOL   C15038556   2.433   4.335   2.193  0.3054 -0.0916  0.5863
  174MOL   O15138557   2.364   4.434   2.134 -0.9535  0.2457  0.4213
  174MOL   H15238558   2.273   4.251   2.322  0.2357  2.9856  1.6375
  174MOL   H15338559   2.411   4.083   2.427 -2.2498 -1.0515 -1.1417
  174MOL   H15438560   2.757   4.221   2.229  0.2305 -0.1749  0.0492
  174MOL   H15538561   2.615   4.401   2.098  0.6805 -0.8039 -0.4830
  174MOL   C15638562   2.199   4.282   1.837  0.7812  0.3915  0.0777
  174MOL   C15738563   2.285   4.297   1.948  0.3057  0.2132  0.0478
  174MOL   C15838564   2.281   4.414   2.031 -0.5119  0.2115  0.7100
  174MOL   C15938565   2.172   4.511   2.001 -0.2478  0.4684 -0.1294
  174MOL   C16038566   2.088   4.489   1.891  0.4470  0.5234 -0.6500
  174MOL   C16138567   2.108   4.382   1.801 -0.3352  0.1944 -0.5961
  174MOL   O16238568   2.019   4.367   1.696 -0.1316 -0.0030 -0.1164
  174MOL   H16338569   2.213   4.196   1.773  0.4941 -0.1163  0.6917
  174MOL   H16438570   2.355   4.217   1.965 -2.4320 -2.2792  0.0808
  174MOL   H16538571   2.164   4.593   2.070 -2.3567  0.4373 -0.2943
  174MOL   H16638572   2.001   4.553   1.881  0.3821  0.7971  1.4579
  174MOL   C16738573   2.094   4.093   1.451  0.0587  0.7631  0.4088
  174MOL   C16838574   2.100   4.218   1.519  0.2453 -0.1868 -0.2327
  174MOL   C16938575   2.015   4.244   1.630  0.5914 -0.9393  0.7772
  174MOL   C17038576   1.940   4.141   1.683  0.1734 -0.1723 -0.7094
  174MOL   C17138577   1.938   4.015   1.618  0.1091  0.2579 -0.5913
  174MOL   C17238578   2.008   3.995   1.494  0.1012 -0.0659 -0.5567
  174MOL   O17338579   2.013   3.875   1.427 -0.8984 -0.1330 -0.1516
  174MOL   H17438580   2.138   4.074   1.354 -2.0420 -1.9978 -0.0472
  174MOL   H17538581   2.150   4.300   1.470 -0.9965  0.6262 -0.1832
  174MOL   H17638582   1.897   4.154   1.781 -0.1371 -0.8839 -0.7517
  174MOL   H17738583   1.889   3.928   1.660  2.0045 -0.4757  0.1654
  174MOL   C17838584   1.664   3.800   1.320 -0.1019 -0.6241  0.1615
  174MOL   C17938585   1.773   3.811   1.406 -0.0663  0.8162 -0.1068
  174MOL   C18038586   1.900   3.849   1.350 -1.1746  0.0970 -0.0852
  174MOL   C18138587   1.913   3.862   1.210 -0.8814 -0.0586 -0.4545
  174MOL   C18238588   1.804   3.841   1.126 -0.1910  0.3293 -0.3544
  174MOL   C18338589   1.674   3.827   1.182  0.0989 -0.1399  0.0570
  174MOL   O18438590   1.568   3.847   1.091 -0.4329 -0.1918  0.3393
  174MOL   H18538591   1.562   3.791   1.352  0.2282  1.2978  1.8774
  174MOL   H18638592   1.770   3.796   1.513  3.6536 -2.3424 -0.3224
  174MOL   H18738593   2.010   3.886   1.169  0.4870 -3.1370  0.8846
  174MOL   H18838594   1.819   3.877   1.026 -2.2278 -1.9548 -1.5221
  174MOL   C18938595   1.248   3.659   1.116 -0.2029 -0.0188  0.6931
  174MOL   C19038596   1.348   3.759   1.140 -0.6105  0.8296  0.4936
  174MOL   C19138597   1.477   3.741   1.082 -0.4130 -0.3601 -0.3946
  174MOL   C19238598   1.509   3.620   1.023 -1.0421 -0.0739 -0.8243
  174MOL   C19338599   1.406   3.528   1.004  0.5431  0.5986 -0.4428
  174MOL   C19438600   1.274   3.540   1.045 -0.6381 -0.7514  0.2061
  174MOL   O19538601   1.179   3.447   1.006  0.1152 -0.0668 -0.1107
  174MOL   H19638602   1.149   3.682   1.152  0.1668 -0.0243  1.7485
  174MOL   H19738603   1.331   3.847   1.200 -2.2697  0.7869  0.1355
  174MOL   H19838604   1.603   3.608   0.972 -1.3042 -0.1475 -1.2999
  174MOL   H19938605   1.436   3.438   0.951 -3.2828 -0.0773 -1.6149
  174MOL   C20038606   0.911   3.622   0.815 -0.1727 -0.2806 -0.3090
  174MOL   C20138607   1.036   3.587   0.865 -0.2431  0.0037 -0.4436
  174MOL   C20238608   1.055   3.493   0.966 -0.2182 -0.2686  0.3037
  174MOL   C20338609   0.939   3.433   1.017  0.1011 -0.4286 -0.3269
  174MOL   C20438610   0.814   3.459   0.958  0.2656 -0.0908  0.5755
  174MOL   C20538611   0.795   3.559   0.856 -0.0294  0.2656 -0.1155
  174MOL   O20638612   0.670   3.596   0.826 -0.0455 -0.0306  1.2200
  174MOL   H20738613   0.917   3.691   0.732  0.5236 -3.1429 -2.7351
  174MOL   H20838614   1.128   3.619   0.817  0.0218 -1.6531 -1.0695
  174MOL   H20938615   0.957   3.363   1.098  1.6213  0.8408  0.4650
  174MOL   H21038616   0.722   3.411   0.988  1.1218 -2.2270 -0.1212
  174MOL   C21138617   0.610   3.876   0.589  0.0837  0.2433  0.1242
  174MOL   C21238618   0.642   3.753   0.639  0.6659  0.0406  0.1799
  174MOL   C21338619   0.644   3.723   0.777  0.2857 -0.2514  0.0385
  174MOL   C21438620   0.618   3.827   0.872 -0.4075  0.5858 -0.2245
  174MOL   C21538621   0.589   3.958   0.823  0.2506 -1.4123  0.0152
  174MOL   C21638622   0.578   3.983   0.682 -0.4385  0.1012  0.2264
  174MOL   O21738623   0.537   4.104   0.638 -0.2652  1.1444  0.3175
  174MOL   H21838624   0.601   3.888   0.482  0.6050  1.7534  0.2376
  174MOL   H21938625   0.653   3.664   0.578  1.5903  0.5128 -0.3426
  174MOL   H22038626   0.613   3.807   0.978  0.2526 -0.4630 -0.3904
  174MOL   H22138627   0.560   4.041   0.885  1.1574 -0.8463 -0.2945
  174MOL   H22238628   0.481   4.144   0.704  1.0593  0.1594  2.0746
  175MOL     C138629   6.894   1.299   1.027 -0.4483  0.1662 -1.0480
  175MOL     C238630   6.899   1.426   0.962 -0.1703  0.5683  0.5980
  175MOL     C338631   7.008   1.512   0.984 -0.0559 -0.6421  0.5777
  175MOL     C438632   7.104   1.485   1.089 -0.3778 -0.6793  0.1054
  175MOL     C538633   7.097   1.365   1.153  0.3898  0.2735 -0.1302
  175MOL     C638634   6.994   1.271   1.126 -0.7626  0.1084 -0.3658
  175MOL     O738635   7.003   1.154   1.193 -0.5342  0.2568  0.4022
  175MOL     H838636   6.813   1.230   1.011  2.9003 -3.9400 -0.9926
  175MOL     H938637   6.823   1.466   0.897  0.3370  1.1076  0.3269
  175MOL    H1038638   7.188   1.548   1.116 -0.0057 -0.6512 -1.0499
  175MOL    H1138639   7.178   1.352   1.222  0.4757 -1.4060 -0.5280
  175MOL    H1238640   7.012   1.610   0.938 -0.5177 -0.4614  0.9208
  175MOL    C1338641   6.701   1.001   1.327 -0.3727  0.2356  0.2667
  175MOL    C1438642   6.808   1.022   1.238 -0.4157  0.9466 -0.3243
  175MOL    C1538643   6.900   1.122   1.274  0.0620 -0.0705  0.8647
  175MOL    C1638644   6.883   1.195   1.389 -0.4202  0.2217 -0.2007
  175MOL    C1738645   6.770   1.178   1.476  0.1528 -0.5895  0.3746
  175MOL    C1838646   6.684   1.070   1.450  0.0638 -0.0706 -0.1778
  175MOL    O1938647   6.582   1.041   1.536 -0.5520  0.3762 -0.0044
  175MOL    H2038648   6.624   0.931   1.297 -1.2770  1.1629  0.4035
  175MOL    H2138649   6.816   0.958   1.151  2.6320 -0.9585  1.2924
  175MOL    H2238650   6.956   1.271   1.411  1.2311 -1.2767 -0.4054
  175MOL    H2338651   6.771   1.233   1.570  0.2355 -1.6398  0.9995
  175MOL    C2438652   6.630   1.189   1.864  0.8125  0.3200 -0.6319
  175MOL    C2538653   6.586   1.167   1.734 -0.0901 -0.5155  0.1104
  175MOL    C2638654   6.612   1.050   1.665  0.7039  0.1425  0.1467
  175MOL    C2738655   6.686   0.950   1.724 -0.1784  0.5657 -0.0282
  175MOL    C2838656   6.739   0.970   1.854  0.0970  0.4599  0.2753
  175MOL    C2938657   6.714   1.089   1.928  0.6095  0.2183  0.2256
  175MOL    O3038658   6.759   1.088   2.057  0.0341 -0.0882  0.3684
  175MOL    H3138659   6.605   1.286   1.904  1.5759 -0.4170  1.7034
  175MOL    H3238660   6.544   1.251   1.680 -1.6538 -0.6738  1.0526
  175MOL    H3338661   6.711   0.860   1.668  0.2601 -0.7773  2.2717
  175MOL    H3438662   6.807   0.901   1.902 -2.1828 -1.1266  1.3362
  175MOL    C3538663   7.087   1.206   2.179  0.2785  0.3814  0.6950
  175MOL    C3638664   6.988   1.121   2.132 -0.9415 -0.2096  0.1677
  175MOL    C3738665   6.864   1.170   2.091  0.3988 -0.0894 -0.2611
  175MOL    C3838666   6.836   1.308   2.106  0.1663  0.0418 -0.3366
  175MOL    C3938667   6.936   1.396   2.146 -0.1295 -0.8332  0.6701
  175MOL    C4038668   7.059   1.346   2.179 -0.4355  1.1236 -0.3317
  175MOL    O4138669   7.148   1.443   2.214 -0.1194 -0.1743 -0.2931
  175MOL    H4238670   7.188   1.176   2.203 -0.6000 -1.0612  2.8144
  175MOL    H4338671   7.007   1.016   2.118 -1.6700 -0.1621 -1.2666
  175MOL    H4438672   6.738   1.349   2.087 -0.5457 -1.2870  0.3911
  175MOL    H4538673   6.920   1.502   2.150  0.8423 -0.7276  2.5616
  175MOL    C4638674   7.176   1.479   2.574 -0.0956  0.3264  0.7568
  175MOL    C4738675   7.166   1.414   2.446 -0.3834 -0.1343  0.0527
  175MOL    C4838676   7.140   1.494   2.336  0.4533 -0.3836  0.2253
  175MOL    C4938677   7.097   1.625   2.361 -0.4076  0.4334 -0.0089
  175MOL    C5038678   7.106   1.691   2.481  0.2026  0.2325 -0.6812
  175MOL    C5138679   7.154   1.619   2.588  0.2543 -0.2476 -0.2207
  175MOL    O5238680   7.171   1.678   2.705  0.0252 -0.0834 -0.3190
  175MOL    H5338681   7.207   1.408   2.649 -1.4309 -1.2915 -0.2012
  175MOL    H5438682   7.188   1.309   2.435  2.4584  0.4209  0.1805
  175MOL    H5538683   7.074   1.686   2.275 -0.8689 -0.1506 -0.3034
  175MOL    H5638684   7.070   1.793   2.479 -0.0872  0.1800  1.0711
  175MOL    C5738685   7.406   1.899   2.877  0.2552 -0.4207 -0.0738
  175MOL    C5838686   7.285   1.833   2.836  0.0464 -0.1958 -0.2972
  175MOL    C5938687   7.281   1.762   2.720  0.1218 -0.0744  0.6449
  175MOL    C6038688   7.391   1.767   2.626  0.6557  0.4342 -0.0018
  175MOL    C6138689   7.509   1.841   2.661  0.2596 -0.3634  0.1285
  175MOL    C6238690   7.508   1.914   2.781  1.4014  0.5069 -0.7827
  175MOL    O6338691   7.623   1.974   2.816  0.5856  0.4176 -0.1190
  175MOL    H6438692   7.420   1.948   2.972  1.4791 -1.3251  0.2296
  175MOL    H6538693   7.216   1.833   2.920  0.5105  0.1372  0.0856
  175MOL    H6638694   7.385   1.720   2.529 -2.2766  1.5900 -0.4130
  175MOL    H6738695   7.588   1.856   2.589 -0.4412  2.3978 -0.1069
  175MOL    C6838696   7.533   2.329   2.828  0.8743 -0.1761  0.1803
  175MOL    C6938697   7.533   2.196   2.791 -0.1782 -0.8318  0.6391
  175MOL    C7038698   7.621   2.106   2.854  0.6081 -0.2831 -0.2191
  175MOL    C7138699   7.709   2.144   2.956 -0.1361  0.3661  0.0956
  175MOL    C7238700   7.703   2.273   3.009  0.1468  0.2409  0.2461
  175MOL    C7338701   7.621   2.370   2.939  0.3389 -0.2293 -0.4250
  175MOL    O7438702   7.628   2.501   2.979 -0.0752 -0.8046  0.9217
  175MOL    H7538703   7.464   2.392   2.774  0.2165 -0.2921  0.8797
  175MOL    H7638704   7.475   2.171   2.704  1.3916  3.4640 -1.8028
  175MOL    H7738705   7.775   2.062   2.980  1.9742  1.2517 -2.4229
  175MOL    H7838706   7.765   2.317   3.086  0.4751 -0.3974  0.3488
  175MOL    C7938707   7.916   2.657   3.150 -0.5019  0.4647  0.0628
  175MOL    C8038708   7.791   2.601   3.123  0.3715 -0.2936  0.5630
  175MOL    C8138709   7.753   2.558   2.995 -0.0889  0.2185  0.2222
  175MOL    C8238710   7.845   2.560   2.888  0.0389 -0.4594 -0.2037
  175MOL    C8338711   7.975   2.614   2.912  1.3498  0.3202  0.1467
  175MOL    C8438712   8.006   2.660   3.041  0.1919  0.0301  0.0601
  175MOL    O8538713   8.134   2.705   3.058  0.4869  0.0390 -0.5864
  175MOL    H8638714   7.932   2.678   3.254 -0.9282  0.2196  0.1785
  175MOL    H8738715   7.724   2.598   3.207 -0.1151 -0.2726  0.1777
  175MOL    H8838716   7.815   2.524   2.791 -0.5001 -0.3616 -0.0799
  175MOL    H8938717   8.046   2.632   2.833 -0.4983 -0.1027 -1.6510
  175MOL    C9038718   0.087   2.930   2.844  0.2555  0.1035 -0.0827
  175MOL    C9138719   0.039   2.813   2.911  0.0772  0.1341 -0.2362
  175MOL    C9238720   8.172   2.813   2.986 -0.5916 -0.1538 -0.4632
  175MOL    C9338721   8.109   2.935   3.004 -0.0880  0.0002  0.3111
  175MOL    C9438722   8.149   3.049   2.934  0.2561  0.1037  0.1496
  175MOL    C9538723   0.010   3.048   2.852  0.6932  0.2325 -0.4106
  175MOL    O9638724   0.033   3.151   2.767  0.2884  0.1806  0.5404
  175MOL    H9738725   0.181   2.925   2.791 -0.6067 -0.4365 -1.5873
  175MOL    H9838726   0.088   2.718   2.901 -2.2972 -1.6612  3.9455
  175MOL    H9938727   8.022   2.926   3.068  1.8271 -1.4553  2.7639
  175MOL   H10038728   8.087   3.137   2.938 -0.0238  0.0782 -2.4741
  175MOL   C10138729   0.334   3.346   2.862 -0.0802 -0.9001  0.2764
  175MOL   C10238730   0.203   3.292   2.864  0.0678  0.3231  0.3673
  175MOL   C10338731   0.158   3.204   2.764  0.7273 -0.3954 -0.1075
  175MOL   C10438732   0.246   3.170   2.659  0.4949  0.0877 -1.0542
  175MOL   C10538733   0.378   3.213   2.658 -0.0922 -0.1928 -0.5194
  175MOL   C10638734   0.422   3.302   2.760 -0.3703 -0.2951  0.5601
  175MOL   O10738735   0.549   3.348   2.759 -0.3334  0.1815 -0.3547
  175MOL   H10838736   0.369   3.414   2.938  0.3711 -1.9799  1.0593
  175MOL   H10938737   0.135   3.306   2.947 -0.4177  2.6237 -0.4057
  175MOL   H11038738   0.216   3.115   2.571 -2.1369  1.9793 -1.3959
  175MOL   H11138739   0.438   3.179   2.575 -0.3537 -2.0489  0.0279
  175MOL   C11238740   0.552   3.656   2.558 -0.8424  0.2168 -0.0040
  175MOL   C11338741   0.500   3.534   2.611 -0.8890  0.1943  1.1697
  175MOL   C11438742   0.589   3.449   2.678 -0.1931  0.1832  0.4303
  175MOL   C11538743   0.729   3.472   2.681 -0.3783 -0.7859 -0.4521
  175MOL   C11638744   0.779   3.579   2.611  0.2306 -0.0585  0.0289
  175MOL   C11738745   0.693   3.669   2.545 -0.2021  0.2465 -0.4307
  175MOL   O11838746   0.739   3.775   2.473  0.1708 -0.4876  0.2359
  175MOL   H11938747   0.490   3.736   2.518 -1.1101  0.3185  0.6070
  175MOL   H12038748   0.393   3.519   2.611 -0.7051 -1.2145  1.1702
  175MOL   H12138749   0.781   3.404   2.746 -0.1358 -0.7270 -0.5856
  175MOL   H12238750   0.887   3.589   2.606  0.3328 -1.1949 -0.2017
  175MOL   C12338751   0.692   3.826   2.112 -0.2096  0.3869  0.3941
  175MOL   C12438752   0.680   3.840   2.252 -0.2321  0.2754  0.1936
  175MOL   C12538753   0.751   3.756   2.342  0.0890 -0.0861 -1.1129
  175MOL   C12638754   0.840   3.661   2.290 -0.5445  0.6198  0.6009
  175MOL   C12738755   0.855   3.652   2.147  0.4671  1.0575  0.3304
  175MOL   C12838756   0.790   3.735   2.057 -0.0258  0.0761 -0.3009
  175MOL   O12938757   0.804   3.715   1.920 -0.1525  0.6690  0.6458
  175MOL   H13038758   0.642   3.895   2.046  1.1890  1.0459 -0.0151
  175MOL   H13138759   0.610   3.914   2.289 -1.0229  0.5995 -1.9004
  175MOL   H13238760   0.905   3.602   2.353  0.5558  0.8004 -0.3561
  175MOL   H13338761   0.922   3.577   2.107 -0.0940  1.7016 -1.8849
  175MOL   C13438762   0.776   3.352   1.868 -0.4356 -0.5028  0.2275
  175MOL   C13538763   0.741   3.480   1.908  0.0301  0.1566  0.2128
  175MOL   C13638764   0.824   3.588   1.875  0.2118  0.2983  0.2487
  175MOL   C13738765   0.940   3.566   1.794 -0.6093 -0.0538 -0.1891
  175MOL   C13838766   0.983   3.436   1.758  0.4732 -0.2003 -0.4902
  175MOL   C13938767   0.895   3.331   1.796 -0.2641  0.1869 -0.3171
  175MOL   O14038768   0.939   3.201   1.774 -0.0431 -0.3722  0.4931
  175MOL   H14138769   0.718   3.263   1.887 -1.4694  0.3452  1.0526
  175MOL   H14238770   0.652   3.488   1.970 -0.6110 -2.7385 -0.2617
  175MOL   H14338771   1.006   3.642   1.756 -1.5747  1.4090  0.9929
  175MOL   H14438772   1.062   3.411   1.689  0.5545 -2.3302  0.3336
  175MOL   C14538773   1.282   3.128   1.866 -0.0356  0.4934 -1.0279
  175MOL   C14638774   1.170   3.164   1.789  0.2556 -0.6217 -0.1528
  175MOL   C14738775   1.043   3.157   1.849  0.4926  0.3698  0.3802
  175MOL   C14838776   1.028   3.117   1.988  0.4027  0.0590 -0.1094
  175MOL   C14938777   1.146   3.077   2.057  0.2978  0.1472 -0.2798
  175MOL   C15038778   1.271   3.085   2.000  0.6989  0.2334  0.0169
  175MOL   O15138779   1.380   3.049   2.070  0.5335  0.0263 -0.6770
  175MOL   H15238780   1.375   3.132   1.812 -0.6599 -1.7642 -2.3363
  175MOL   H15338781   1.180   3.200   1.688  0.4072  2.7657  1.0269
  175MOL   H15438782   0.934   3.119   2.043  0.1591 -0.9481 -0.4769
  175MOL   H15538783   1.130   3.064   2.163  0.5939 -1.0722 -0.3793
  175MOL   C15638784   1.717   3.194   2.014  0.6729  0.5009 -0.6922
  175MOL   C15738785   1.604   3.106   2.019  0.0649  0.1403 -0.0571
  175MOL   C15838786   1.484   3.141   2.075 -0.6903  0.4379  0.3210
  175MOL   C15938787   1.464   3.266   2.131  0.1790 -1.2384 -0.5133
  175MOL   C16038788   1.573   3.356   2.120 -0.4143  0.4337  0.2369
  175MOL   C16138789   1.700   3.325   2.064  0.0662  0.0470 -0.5844
  175MOL   O16238790   1.799   3.420   2.039  0.1330 -0.0012  0.3034
  175MOL   H16338791   1.803   3.162   1.958 -1.8388 -4.6882 -1.8957
  175MOL   H16438792   1.607   3.007   1.976  1.4309 -0.0855  0.5363
  175MOL   H16538793   1.372   3.299   2.177  0.0295 -0.8915 -1.0516
  175MOL   H16638794   1.548   3.453   2.161 -1.7541  0.2761 -0.1668
  175MOL   C16738795   1.806   3.488   1.670 -0.1394 -0.1181  0.4449
  175MOL   C16838796   1.763   3.434   1.791 -0.6688 -0.2886  0.1298
  175MOL   C16938797   1.830   3.462   1.912  0.1433 -0.2774  0.3389
  175MOL   C17038798   1.941   3.550   1.906  0.1377 -0.1640 -0.1252
  175MOL   C17138799   1.984   3.595   1.780  0.1028 -0.2447 -0.7742
  175MOL   C17238800   1.916   3.567   1.662  0.0907 -0.1552 -0.4492
  175MOL   O17338801   1.966   3.609   1.543 -0.1643 -0.3750  0.2902
  175MOL   H17438802   1.757   3.461   1.578 -1.2776  0.4703  0.8771
  175MOL   H17538803   1.677   3.370   1.792 -1.3113  0.5717  0.2974
  175MOL   H17638804   1.986   3.579   1.999  0.9921 -3.5481  0.5881
  175MOL   H17738805   2.062   3.669   1.778  0.6011 -0.7179  0.5806
  175MOL   C17838806   2.206   3.350   1.445 -0.3321  0.3291 -0.4286
  175MOL   C17938807   2.132   3.428   1.537 -0.3181  0.2889 -0.3568
  175MOL   C18038808   2.038   3.516   1.473  0.3480 -0.0488  0.0822
  175MOL   C18138809   2.004   3.506   1.337 -0.6267  0.0133 -0.3527
  175MOL   C18238810   2.073   3.426   1.251 -0.5289  0.2596 -0.7872
  175MOL   C18338811   2.180   3.350   1.305  0.1153  0.1265 -0.4126
  175MOL   O18438812   2.253   3.281   1.209 -0.4164 -0.6539 -0.1873
  175MOL   H18538813   2.294   3.299   1.482  1.0494  1.0148 -2.6706
  175MOL   H18638814   2.155   3.414   1.642  2.4959  0.3286 -0.9152
  175MOL   H18738815   1.929   3.573   1.298 -0.4331  1.0066  0.9336
  175MOL   H18838816   2.056   3.424   1.145  1.5723  1.1994 -1.1682
  175MOL   C18938817   2.292   2.941   1.347  0.5121 -0.7304 -0.1810
  175MOL   C19038818   2.233   3.051   1.279 -0.2878  0.0660 -0.1928
  175MOL   C19138819   2.315   3.164   1.257  0.5668 -0.2835 -0.2695
  175MOL   C19238820   2.453   3.164   1.284  0.0464  0.0804  0.1164
  175MOL   C19338821   2.507   3.043   1.342 -0.5361  0.1012 -0.3151
  175MOL   C19438822   2.428   2.936   1.375  0.7777  0.6050  0.0977
  175MOL   O19538823   2.491   2.828   1.434  0.1084 -0.4500 -0.3045
  175MOL   H19638824   2.221   2.863   1.372 -1.2236  0.2527 -1.9011
  175MOL   H19738825   2.128   3.058   1.253 -0.0158  2.2598 -0.8555
  175MOL   H19838826   2.506   3.257   1.268 -0.8374  0.4176 -0.9492
  175MOL   H19938827   2.614   3.034   1.352 -0.5285 -0.8760 -1.0928
  175MOL   C20038828   2.639   2.782   1.762 -0.3153  0.2029 -0.8612
  175MOL   C20138829   2.627   2.819   1.628  0.4999  0.5047 -0.0678
  175MOL   C20238830   2.498   2.814   1.573  0.0272  0.8886  0.1971
  175MOL   C20338831   2.388   2.778   1.651 -0.6915  0.1175 -0.5166
  175MOL   C20438832   2.397   2.746   1.782 -0.4597  0.0787 -0.7190
  175MOL   C20538833   2.524   2.753   1.841  0.1621  0.1518  0.2229
  175MOL   O20638834   2.538   2.718   1.973 -0.2795 -0.3457 -0.2411
  175MOL   H20738835   2.735   2.779   1.810  1.4935 -1.1226 -4.4208
  175MOL   H20838836   2.705   2.846   1.559 -0.1584 -3.0267 -2.3288
  175MOL   H20938837   2.290   2.779   1.606 -1.2180  0.1539  0.6064
  175MOL   H21038838   2.315   2.715   1.845  0.2846  0.6644  0.5658
  175MOL   C21138839   2.288   2.922   2.164 -0.0408 -0.1560 -0.3665
  175MOL   C21238840   2.367   2.874   2.060  0.8364 -0.8635  0.1307
  175MOL   C21338841   2.469   2.777   2.073 -0.1936  0.3764  0.6805
  175MOL   C21438842   2.497   2.733   2.201  0.0378 -0.1325 -0.5504
  175MOL   C21538843   2.436   2.786   2.308  0.7545 -0.5644 -0.1207
  175MOL   C21638844   2.332   2.881   2.293  0.4309  0.7088  0.6201
  175MOL   O21738845   2.271   2.943   2.399 -0.2985 -0.1124  0.5705
  175MOL   H21838846   2.215   3.000   2.145  3.2668  3.1734 -0.0189
  175MOL   H21938847   2.351   2.920   1.964 -3.5604 -0.6909  0.8843
  175MOL   H22038848   2.588   2.675   2.210 -0.3034 -0.6936 -0.7094
  175MOL   H22138849   2.471   2.752   2.404  1.1387  0.2865  0.0428
  175MOL   H22238850   2.209   3.009   2.372 -0.1921 -0.1297  0.2856
  176MOL     C138851   2.027   6.759   0.035 -0.2662 -0.4187  0.0625
  176MOL     C238852   2.126   6.714   8.204  0.3366 -0.1575 -0.4839
  176MOL     C338853   2.084   6.599   8.136 -0.1823 -0.1284 -0.7919
  176MOL     C438854   1.958   6.541   8.139 -0.0474  0.5138 -0.8364
  176MOL     C538855   1.873   6.578   8.244 -0.2836 -0.4448  0.7888
  176MOL     C638856   1.903   6.696   0.059  0.4603 -0.4197 -0.3913
  176MOL     O738857   1.818   6.738   0.150  0.0519  0.1685 -0.2932
  176MOL     H838858   2.050   6.849   0.092  0.4215 -1.9185  2.2070
  176MOL     H938859   2.222   6.761   8.192  0.6519 -0.4669  0.7441
  176MOL    H1038860   1.932   6.455   8.079  0.3724  0.9348 -1.6409
  176MOL    H1138861   1.777   6.533   0.013 -1.6191  1.8148 -0.2229
  176MOL    H1238862   2.159   6.556   8.070 -0.4693  0.1848 -1.3303
  176MOL    C1338863   1.902   6.999   0.386 -0.2984  0.3050 -0.0128
  176MOL    C1438864   1.909   6.878   0.322  0.2024 -0.2227  0.3379
  176MOL    C1538865   1.831   6.858   0.205  0.1820  0.5521  0.0987
  176MOL    C1638866   1.763   6.964   0.145  0.1045 -0.8411  0.3448
  176MOL    C1738867   1.757   7.090   0.207  0.0997 -0.1069  0.2124
  176MOL    C1838868   1.821   7.110   0.335  0.1418  0.0804  0.5928
  176MOL    O1938869   1.816   7.224   0.411 -0.2650  0.4378 -0.7440
  176MOL    H2038870   1.965   7.020   0.471  0.8212  0.4715 -0.8776
  176MOL    H2138871   1.972   6.798   0.358 -0.9348 -0.1955  2.4746
  176MOL    H2238872   1.705   6.950   0.054 -2.8369  0.4493  1.9582
  176MOL    H2338873   1.692   7.164   0.163 -0.9648 -0.3304  1.3972
  176MOL    C2438874   1.458   7.286   0.465  0.4372 -0.3722  0.3429
  176MOL    C2538875   1.585   7.227   0.452 -0.2908 -0.7984 -0.0054
  176MOL    C2638876   1.693   7.290   0.397 -0.1437  0.5269 -0.0511
  176MOL    C2738877   1.671   7.416   0.334  0.0623  0.6876  0.0596
  176MOL    C2838878   1.543   7.477   0.337  0.1491  0.3480  0.1370
  176MOL    C2938879   1.439   7.413   0.405 -0.0117 -0.6855  0.4739
  176MOL    O3038880   1.322   7.478   0.423 -0.1702  0.8288 -0.2720
  176MOL    H3138881   1.378   7.230   0.512  0.4268  0.0303  0.8046
  176MOL    H3238882   1.593   7.131   0.501  1.0224  0.6974  2.8820
  176MOL    H3338883   1.749   7.464   0.278  0.2498  1.3567  0.8951
  176MOL    H3438884   1.539   7.578   0.301  0.0105  0.2278 -0.1820
  176MOL    C3538885   1.258   7.556   0.775 -0.1316  0.2622 -0.9566
  176MOL    C3638886   1.277   7.482   0.656 -0.2068 -0.1288  0.1934
  176MOL    C3738887   1.313   7.551   0.539  0.2588  0.4567 -0.3000
  176MOL    C3838888   1.343   7.689   0.541 -0.4475 -0.2862  0.5588
  176MOL    C3938889   1.327   7.763   0.657 -0.7779 -0.5880 -0.3381
  176MOL    C4038890   1.288   7.697   0.774 -0.3046  0.3266  0.2638
  176MOL    O4138891   1.262   7.780   0.880 -0.5058 -0.1814  0.1699
  176MOL    H4238892   1.218   7.504   0.861  2.9845  0.9677  0.9797
  176MOL    H4338893   1.238   7.381   0.653 -1.7251  0.4641 -0.3506
  176MOL    H4438894   1.381   7.738   0.453  2.2068  1.0583  2.3841
  176MOL    H4538895   1.334   7.870   0.650 -0.6734 -0.5963 -0.3631
  176MOL    C4638896   1.430   7.938   1.166 -0.5138  0.0504  0.1457
  176MOL    C4738897   1.334   7.894   1.078  0.4306 -0.2002 -0.1313
  176MOL    C4838898   1.364   7.832   0.954  0.6462  0.0229  0.1996
  176MOL    C4938899   1.501   7.823   0.917  0.8381  1.2237  0.0142
  176MOL    C5038900   1.596   7.887   0.994  0.2187  0.6754 -0.9680
  176MOL    C5138901   1.560   7.935   1.124  0.7216 -0.0963  0.3635
  176MOL    O5238902   1.649   7.984   1.214  0.4528 -0.4998 -0.1583
  176MOL    H5338903   1.405   7.980   1.263  0.0685 -0.8824  0.7010
  176MOL    H5438904   1.229   7.904   1.100  0.2736  1.0836 -1.3759
  176MOL    H5538905   1.536   7.777   0.826 -1.0427 -1.8093  0.7635
  176MOL    H5638906   1.702   7.889   0.973  0.2497  1.5430 -0.7510
  176MOL    C5738907   1.724   7.717   1.456  0.3081 -0.4882 -0.4647
  176MOL    C5838908   1.655   7.825   1.392 -0.5698 -0.5720 -0.4640
  176MOL    C5938909   1.722   7.890   1.285 -0.6703  0.8135  0.1579
  176MOL    C6038910   1.856   7.851   1.251  0.1551  1.1718  0.0476
  176MOL    C6138911   1.922   7.748   1.322  0.1591 -0.7312 -0.5775
  176MOL    C6238912   1.856   7.685   1.435  0.1947  0.3419  0.5241
  176MOL    O6338913   1.902   7.572   1.497 -0.2768  0.4154  0.3015
  176MOL    H6438914   1.677   7.659   1.534 -0.7063 -1.0152 -1.4520
  176MOL    H6538915   1.552   7.845   1.418 -0.2297 -1.3036  1.5235
  176MOL    H6638916   1.913   7.886   1.167 -0.1497 -0.4972 -0.8789
  176MOL    H6738917   2.010   7.698   1.286  0.0731 -2.1293  1.0678
  176MOL    C6838918   2.207   7.463   1.662  0.4877  0.0953  0.5138
  176MOL    C6938919   2.101   7.463   1.581 -0.8416 -0.8606  0.0839
  176MOL    C7038920   2.024   7.582   1.563  0.6013  1.2864  0.7987
  176MOL    C7138921   2.066   7.697   1.631 -0.6104  0.3936  0.2259
  176MOL    C7238922   2.176   7.695   1.716  0.0749  0.4131 -0.4186
  176MOL    C7338923   2.251   7.578   1.727 -0.0412  0.1572  0.7294
  176MOL    O7438924   2.371   7.573   1.799  0.3083 -0.0610 -0.0639
  176MOL    H7538925   2.256   7.367   1.671 -0.3537 -0.2815  1.0873
  176MOL    H7638926   2.071   7.372   1.532 -0.6643 -0.9428  0.1246
  176MOL    H7738927   2.008   7.788   1.638 -0.2335  0.4303  3.1510
  176MOL    H7838928   2.220   7.779   1.767 -0.0572  1.1741 -1.5440
  176MOL    C7938929   2.480   7.692   2.128 -0.6949  0.5129  0.7066
  176MOL    C8038930   2.488   7.644   1.995  0.2414 -0.6057 -0.5547
  176MOL    C8138931   2.366   7.597   1.934 -0.1144 -1.2828  0.2672
  176MOL    C8238932   2.258   7.560   2.021 -0.0398  0.7415  0.4530
  176MOL    C8338933   2.267   7.593   2.156 -0.6184  0.0171  0.0955
  176MOL    C8438934   2.369   7.666   2.209  0.0897  0.3722 -0.2227
  176MOL    O8538935   2.371   7.715   2.337 -0.2254 -0.0671 -0.2200
  176MOL    H8638936   2.569   7.744   2.162  0.2175 -1.6098  1.6967
  176MOL    H8738937   2.575   7.666   1.934 -0.6737  0.1894 -1.6031
  176MOL    H8838938   2.165   7.522   1.982  0.3945  0.8269 -0.6826
  176MOL    H8938939   2.181   7.569   2.218 -1.6759  0.2017 -1.2757
  176MOL    C9038940   2.183   7.517   2.581 -0.8062  0.2100  0.0388
  176MOL    C9138941   2.271   7.548   2.479 -0.2206 -0.1974  0.7255
  176MOL    C9238942   2.275   7.680   2.427  0.3511 -0.0513  0.5426
  176MOL    C9338943   2.192   7.782   2.481 -0.3399  0.4976  0.5719
  176MOL    C9438944   2.106   7.747   2.590  0.7497  0.4122  0.0344
  176MOL    C9538945   2.103   7.619   2.649 -0.6268 -0.4280  0.5729
  176MOL    O9638946   2.027   7.599   2.762  0.1863  0.4775 -0.0992
  176MOL    H9738947   2.195   7.417   2.619 -0.4064 -1.8934 -5.2903
  176MOL    H9838948   2.335   7.473   2.436 -1.4290 -0.3412 -0.8437
  176MOL    H9938949   2.203   7.879   2.435 -0.9381  0.1387 -0.3318
  176MOL   H10038950   2.052   7.828   2.637 -2.6118 -1.2473 -0.8458
  176MOL   C10138951   2.078   7.276   2.935 -0.4823  0.2416 -0.7189
  176MOL   C10238952   2.013   7.380   2.869 -0.1317  0.8215 -0.1576
  176MOL   C10338953   2.073   7.505   2.860  1.0120  0.0478  0.2332
  176MOL   C10438954   2.191   7.533   2.928  0.4882  0.0578 -0.2832
  176MOL   C10538955   2.242   7.435   3.009 -0.2019  0.5232  0.3399
  176MOL   C10638956   2.197   7.302   3.004  0.3659 -0.4101  0.0008
  176MOL   O10738957   2.280   7.202   3.055  0.0582 -0.2103 -0.1572
  176MOL   H10838958   2.033   7.178   2.937 -2.2558  1.0399 -1.2818
  176MOL   H10938959   1.931   7.351   2.805  0.0039  0.2928 -0.0906
  176MOL   H11038960   2.251   7.623   2.927  2.0105 -0.9296 -2.8698
  176MOL   H11138961   2.333   7.456   3.064  0.2818 -2.4742  0.7926
  176MOL   C11238962   2.160   6.855   3.139 -0.1585  0.0590 -0.5053
  176MOL   C11338963   2.223   6.966   3.073  0.0072 -0.5767 -0.0399
  176MOL   C11438964   2.224   7.097   3.123  0.4378 -0.9062  0.0070
  176MOL   C11538965   2.156   7.118   3.242 -0.1666  0.0557 -0.5320
  176MOL   C11638966   2.105   7.012   3.321 -0.0590  0.3357  1.0631
  176MOL   C11738967   2.100   6.881   3.268  0.0571  0.4418  0.1192
  176MOL   O11838968   2.033   6.783   3.337 -0.3857  0.8030  0.2007
  176MOL   H11938969   2.147   6.763   3.084 -1.0380  0.0297 -0.2671
  176MOL   H12038970   2.266   6.962   2.975  1.8166 -1.3010  0.7569
  176MOL   H12138971   2.155   7.218   3.283  0.0878 -0.3507  0.4818
  176MOL   H12238972   2.044   7.040   3.406  0.9869  0.5470  1.7417
  176MOL   C12338973   2.010   6.414   3.272  0.2093 -0.6165 -0.0065
  176MOL   C12438974   2.049   6.538   3.332  0.7404 -0.1654 -0.1788
  176MOL   C12538975   2.001   6.656   3.280  0.2757 -0.2125  0.0197
  176MOL   C12638976   1.903   6.657   3.174 -0.4452  0.0227  0.0648
  176MOL   C12738977   1.857   6.535   3.122 -0.1758  0.4974  0.7383
  176MOL   C12838978   1.908   6.410   3.170 -0.9505  0.7130 -0.4137
  176MOL   O12938979   1.878   6.290   3.112 -0.2283 -0.3999  0.7278
  176MOL   H13038980   2.058   6.327   3.313 -0.4974 -0.6470  0.7832
  176MOL   H13138981   2.128   6.530   3.405 -0.6708 -0.1662  1.3833
  176MOL   H13238982   1.862   6.752   3.141 -1.6251 -0.0534  1.2794
  176MOL   H13338983   1.789   6.551   3.039  1.7834  0.4054 -0.9283
  176MOL   C13438984   2.035   6.200   2.786  0.4985  0.2233  0.3597
  176MOL   C13538985   2.024   6.236   2.922 -0.6767  0.3251  0.5624
  176MOL   C13638986   1.897   6.268   2.976  0.3912 -0.1160 -0.0219
  176MOL   C13738987   1.789   6.275   2.889  0.4840  0.1485 -0.2481
  176MOL   C13838988   1.800   6.252   2.748 -1.0309 -0.2906 -0.0080
  176MOL   C13938989   1.920   6.204   2.697 -0.5968 -0.2500 -0.4088
  176MOL   O14038990   1.947   6.172   2.562  0.0344 -0.1342 -0.4714
  176MOL   H14138991   2.128   6.153   2.759  0.5883  0.3361  0.4739
  176MOL   H14238992   2.111   6.223   2.986 -0.6781  1.1348  0.7275
  176MOL   H14338993   1.696   6.297   2.939  1.3563  0.6659  1.1821
  176MOL   H14438994   1.716   6.269   2.683 -0.1063  0.8914 -0.9069
  176MOL   C14538995   2.011   5.816   2.509  0.2298  0.1848  0.4153
  176MOL   C14638996   2.035   5.950   2.546  0.1045 -0.2050 -0.4380
  176MOL   C14738997   1.932   6.041   2.530 -0.9476 -0.1228  0.4550
  176MOL   C14838998   1.800   6.007   2.493 -0.5023  0.3341 -0.1986
  176MOL   C14938999   1.779   5.873   2.476  0.6339 -0.0863  0.1501
  176MOL   C15039000   1.882   5.776   2.480  0.2894 -0.3184 -0.0081
  176MOL   O15139001   1.863   5.637   2.464  0.1559  0.8846 -0.0915
  176MOL   H15239002   2.093   5.746   2.517  0.2871  0.1153 -0.7365
  176MOL   H15339003   2.138   5.975   2.567  0.8699 -1.4662 -2.5388
  176MOL   H15439004   1.724   6.083   2.491 -1.5861 -0.7651 -1.4629
  176MOL   H15539005   1.677   5.840   2.464  0.3890  0.4141  0.8806
  176MOL   C15639006   1.824   5.407   2.172  0.1516 -0.9013 -0.5986
  176MOL   C15739007   1.817   5.460   2.306 -0.0937  0.6922  0.4572
  176MOL   C15839008   1.864   5.594   2.331  0.5948 -0.4996  0.0100
  176MOL   C15939009   1.931   5.660   2.223 -0.3208 -0.0796  0.1152
  176MOL   C16039010   1.948   5.603   2.098  0.1083  0.3224 -0.3773
  176MOL   C16139011   1.897   5.476   2.072  0.6085 -0.5149  0.1770
  176MOL   O16239012   1.902   5.421   1.951 -0.2224  0.3751  0.5928
  176MOL   H16339013   1.774   5.315   2.145  0.7984 -0.3710 -3.8139
  176MOL   H16439014   1.759   5.410   2.382 -1.4372  0.1208 -0.9177
  176MOL   H16539015   1.971   5.760   2.233 -0.6225  0.2787 -1.9647
  176MOL   H16639016   2.007   5.646   2.019  1.0812 -1.3093 -0.5739
  176MOL   C16739017   2.241   5.420   1.803 -1.1273 -0.4636 -0.2922
  176MOL   C16839018   2.135   5.394   1.891 -0.3263  0.0339 -0.3746
  176MOL   C16939019   2.002   5.436   1.859 -0.3673  0.2272  0.0697
  176MOL   C17039020   1.982   5.494   1.735  0.9793  0.6434  0.3638
  176MOL   C17139021   2.089   5.507   1.638  0.2786 -0.5301 -0.0425
  176MOL   C17239022   2.219   5.467   1.674 -0.0403 -0.2443  0.4442
  176MOL   O17339023   2.318   5.473   1.576  0.1137  0.0253 -0.2334
  176MOL   H17439024   2.344   5.391   1.819 -0.9285 -0.9633 -2.2816
  176MOL   H17539025   2.168   5.360   1.988 -1.1615 -0.0176 -0.1045
  176MOL   H17639026   1.880   5.520   1.709  1.1042  1.2967  0.5272
  176MOL   H17739027   2.065   5.547   1.540  0.2969  1.4017  0.7308
  176MOL   C17839028   2.252   5.291   1.260  0.7067  0.5340  0.6707
  176MOL   C17939029   2.250   5.392   1.362 -0.2743  0.7840 -0.6963
  176MOL   C18039030   2.329   5.376   1.476 -0.1484 -0.8690  0.6663
  176MOL   C18139031   2.411   5.264   1.487  0.1735 -0.1289  0.9516
  176MOL   C18239032   2.422   5.167   1.389  0.3810 -0.1357  0.3511
  176MOL   C18339033   2.339   5.178   1.274  0.1654  0.2349 -0.6119
  176MOL   O18439034   2.337   5.072   1.176  0.3742  0.3560 -0.0315
  176MOL   H18539035   2.202   5.316   1.167  1.3987  2.3319  0.7565
  176MOL   H18639036   2.190   5.482   1.355 -0.0105  0.9625 -0.6458
  176MOL   H18739037   2.461   5.261   1.583  1.4023  1.6298  0.3865
  176MOL   H18839038   2.468   5.071   1.407 -0.7779 -0.4271  1.9162
  176MOL   C18939039   2.672   5.021   1.036  0.1249  0.8293 -0.5149
  176MOL   C19039040   2.554   5.087   1.083 -0.4775 -0.9920  0.6005
  176MOL   C19139041   2.456   5.017   1.149  0.3757 -0.1116  0.6571
  176MOL   C19239042   2.470   4.876   1.164  0.3828 -1.0030  0.6731
  176MOL   C19339043   2.587   4.807   1.113 -0.1213 -0.1565  0.6076
  176MOL   C19439044   2.692   4.884   1.050 -0.1253 -0.4520 -0.2207
  176MOL   O19539045   2.809   4.825   1.007 -0.1616  0.4013 -0.5773
  176MOL   H19639046   2.756   5.082   1.005  1.9339 -1.6325 -0.5603
  176MOL   H19739047   2.547   5.194   1.083  0.9936 -0.8794  0.3592
  176MOL   H19839048   2.387   4.832   1.216 -0.5688 -0.8810 -0.7403
  176MOL   H19939049   2.594   4.700   1.123 -0.0559 -0.1206  0.9535
  176MOL   C20039050   2.874   4.830   0.640 -0.2462 -0.0219 -0.1537
  176MOL   C20139051   2.798   4.836   0.757  0.0969 -0.9360 -0.1976
  176MOL   C20239052   2.870   4.833   0.885  0.7885 -0.0587 -0.5627
  176MOL   C20339053   3.012   4.837   0.884 -0.1115 -0.4004 -0.1533
  176MOL   C20439054   3.082   4.861   0.760 -0.7237 -0.9437 -0.1894
  176MOL   C20539055   3.013   4.851   0.639 -0.0997  0.9750  0.3885
  176MOL   O20639056   3.061   4.876   0.515 -0.1231 -0.2836 -0.4137
  176MOL   H20739057   2.815   4.835   0.550  0.1308  0.4152 -0.3768
  176MOL   H20839058   2.690   4.836   0.760  0.0994  1.3111  0.5074
  176MOL   H20939059   3.068   4.838   0.976  0.3650 -2.4664 -0.3828
  176MOL   H21039060   3.189   4.872   0.764 -0.6361 -1.8670  0.2271
  176MOL   C21139061   3.348   5.083   0.387 -0.0673 -0.0054  0.1822
  176MOL   C21239062   3.251   4.978   0.398  0.1060 -0.2281 -0.1339
  176MOL   C21339063   3.139   4.987   0.494 -0.4753  0.3217  0.2001
  176MOL   C21439064   3.128   5.102   0.580 -0.0737  0.0438  0.4458
  176MOL   C21539065   3.231   5.202   0.571  0.0878  0.2687  0.1655
  176MOL   C21639066   3.338   5.199   0.473  0.0601  0.5592  0.1229
  176MOL   O21739067   3.412   5.311   0.458 -0.2259  0.1764  0.2248
  176MOL   H21839068   3.435   5.076   0.325 -0.0116 -0.6975  0.3431
  176MOL   H21939069   3.257   4.883   0.348  0.5008  0.4037 -1.3137
  176MOL   H22039070   3.053   5.113   0.656 -0.6172  0.4075 -0.1319
  176MOL   H22139071   3.217   5.282   0.642  0.6384  0.6560 -0.1624
  176MOL   H22239072   3.396   5.392   0.504 -0.3273 -0.0243  0.5447
  177MOL     C139073   3.025   4.876   4.914 -0.3956  0.5325 -0.8791
  177MOL     C239074   2.935   4.807   4.994 -0.5114  0.0040  0.2731
  177MOL     C339075   2.931   4.666   4.985 -0.6167 -0.0908  0.5333
  177MOL     C439076   3.020   4.592   4.907 -0.0035  0.1150  0.6848
  177MOL     C539077   3.109   4.664   4.827  0.4764  0.9092  0.7408
  177MOL     C639078   3.106   4.803   4.814 -0.5286 -0.6045  0.3093
  177MOL     O739079   3.197   4.879   4.737  0.1986  0.0468  0.3920
  177MOL     H839080   3.039   4.982   4.930  0.7224  0.5731 -2.0355
  177MOL     H939081   2.864   4.857   5.058 -0.8944 -0.3042  0.0923
  177MOL    H1039082   3.030   4.487   4.930 -0.3982  0.4768  2.6335
  177MOL    H1139083   3.175   4.607   4.764  0.7800  2.2396 -0.1606
  177MOL    H1239084   2.860   4.604   5.039  0.0008  0.1556  1.6331
  177MOL    C1339085   3.361   4.697   4.450 -0.2783 -0.5886 -0.1592
  177MOL    C1439086   3.348   4.758   4.580 -0.7267  0.0977 -0.6355
  177MOL    C1539087   3.223   4.823   4.611  0.3246  0.6396  0.7877
  177MOL    C1639088   3.123   4.829   4.515  0.5608  0.5072  0.2924
  177MOL    C1739089   3.135   4.776   4.381  0.2345  0.0797 -0.9124
  177MOL    C1839090   3.254   4.711   4.351 -0.2506 -0.2871 -0.5428
  177MOL    O1939091   3.272   4.643   4.236 -0.2418 -0.0507 -0.0212
  177MOL    H2039092   3.455   4.649   4.428 -0.2561  0.4275 -2.4092
  177MOL    H2139093   3.427   4.757   4.653 -1.4705  1.5827  0.2158
  177MOL    H2239094   3.030   4.870   4.552 -0.5470 -0.8167 -0.9819
  177MOL    H2339095   3.047   4.782   4.320  0.5935  0.3355 -1.4072
  177MOL    C2439096   3.347   4.850   3.929  0.5376  0.0056  0.3987
  177MOL    C2539097   3.342   4.813   4.069 -0.3117 -0.7399  0.2323
  177MOL    C2639098   3.267   4.700   4.113  0.1779 -0.7048  0.0499
  177MOL    C2739099   3.189   4.636   4.022  0.1943 -0.1946  0.2182
  177MOL    C2839100   3.160   4.691   3.891 -0.2231 -0.0358 -0.7326
  177MOL    C2939101   3.250   4.793   3.848 -0.1004  0.2169 -0.0471
  177MOL    O3039102   3.242   4.833   3.718 -0.0938 -0.2322 -0.1551
  177MOL    H3139103   3.416   4.922   3.890  0.4550  1.2276  2.4541
  177MOL    H3239104   3.403   4.871   4.136 -0.2178 -1.2062  0.5474
  177MOL    H3339105   3.130   4.549   4.048 -0.2821 -0.3290 -1.2673
  177MOL    H3439106   3.087   4.635   3.834 -0.9037 -0.5357  0.6039
  177MOL    C3539107   3.295   4.660   3.400  0.1854  0.2631 -0.3075
  177MOL    C3639108   3.244   4.750   3.501 -0.6307  0.5949 -0.5338
  177MOL    C3739109   3.309   4.763   3.622 -0.3161 -0.0255  0.3564
  177MOL    C3839110   3.424   4.683   3.650  0.6179  0.3235  0.1298
  177MOL    C3939111   3.468   4.595   3.553 -0.4348 -0.0038 -0.4005
  177MOL    C4039112   3.407   4.581   3.426 -0.6266 -0.0703 -0.7288
  177MOL    O4139113   3.454   4.497   3.321  0.1703  0.1140 -0.6298
  177MOL    H4239114   3.232   4.644   3.314 -1.6012  0.6357  0.8908
  177MOL    H4339115   3.155   4.808   3.483  0.3741  2.8056  1.3890
  177MOL    H4439116   3.484   4.680   3.739  2.2399 -1.8171 -0.9796
  177MOL    H4539117   3.558   4.540   3.577 -0.8785  0.0863  1.5448
  177MOL    C4639118   3.539   4.155   3.411 -0.1426 -0.0435 -0.0050
  177MOL    C4739119   3.466   4.264   3.366 -0.3081 -0.5171 -0.4839
  177MOL    C4839120   3.531   4.389   3.352  0.3937  0.3702  0.6734
  177MOL    C4939121   3.669   4.402   3.372 -0.2545  0.4746  0.5435
  177MOL    C5039122   3.746   4.294   3.414 -0.2115  0.2680  0.2521
  177MOL    C5139123   3.681   4.173   3.442  0.0439  0.4636 -0.5112
  177MOL    O5239124   3.759   4.065   3.489  0.5747 -0.1491 -0.3400
  177MOL    H5339125   3.491   4.061   3.434 -0.4259  0.6543  2.4140
  177MOL    H5439126   3.361   4.242   3.352 -0.0915 -1.4908 -0.6178
  177MOL    H5539127   3.715   4.499   3.363 -0.2296  0.3736 -0.4486
  177MOL    H5639128   3.853   4.305   3.417 -0.1795 -0.2237  1.0723
  177MOL    C5739129   3.606   3.779   3.674 -0.1461  0.4286  0.1787
  177MOL    C5839130   3.654   3.906   3.650  0.4102 -0.1926 -0.0998
  177MOL    C5939131   3.703   3.947   3.523 -0.4064 -0.0904 -1.0975
  177MOL    C6039132   3.722   3.847   3.429  0.0424 -0.0275 -0.1336
  177MOL    C6139133   3.661   3.723   3.454 -0.3022 -0.1719  0.9242
  177MOL    C6239134   3.606   3.682   3.575  0.8935 -0.0011  0.4681
  177MOL    O6339135   3.560   3.557   3.607  0.6913  0.0137 -0.3254
  177MOL    H6439136   3.568   3.760   3.773 -1.1177 -0.0349 -0.2844
  177MOL    H6539137   3.658   3.969   3.737  1.1004  0.7192 -0.7844
  177MOL    H6639138   3.755   3.881   3.332 -0.6594 -0.2032 -0.4351
  177MOL    H6739139   3.663   3.652   3.372  2.3388 -0.9606  1.6265
  177MOL    C6839140   3.196   3.557   3.514  0.7922  0.4023  0.0899
  177MOL    C6939141   3.328   3.603   3.515  0.3442  0.1361 -0.0090
  177MOL    C7039142   3.422   3.536   3.600  0.4851  0.2988  0.9921
  177MOL    C7139143   3.373   3.443   3.693  0.0516 -0.2704  0.3211
  177MOL    C7239144   3.234   3.411   3.706  0.1751  0.2166  0.0707
  177MOL    C7339145   3.145   3.471   3.610  0.4229  0.4421 -0.4583
  177MOL    O7439146   3.014   3.423   3.617  0.4075  0.5640 -0.1486
  177MOL    H7539147   3.133   3.611   3.444 -1.5808 -1.9971  0.2798
  177MOL    H7639148   3.360   3.670   3.437 -0.1003 -0.5396 -0.7705
  177MOL    H7739149   3.434   3.391   3.766 -0.8778  0.0635  1.3491
  177MOL    H7839150   3.205   3.338   3.779 -1.0043 -0.2617 -0.8618
  177MOL    C7939151   2.955   3.203   3.326 -0.1043 -0.2169  0.1751
  177MOL    C8039152   3.020   3.259   3.436 -0.1658 -0.9635 -0.5865
  177MOL    C8139153   2.958   3.364   3.507 -0.5853  0.0630  0.2792
  177MOL    C8239154   2.827   3.397   3.473 -0.1636 -0.1608  0.0603
  177MOL    C8339155   2.774   3.355   3.353  0.9379 -0.5308 -0.1227
  177MOL    C8439156   2.831   3.248   3.280  0.4368 -0.0214  0.2378
  177MOL    O8539157   2.769   3.192   3.166  0.2016  0.1110  0.7160
  177MOL    H8639158   2.998   3.126   3.263 -0.1001  0.6040 -0.8418
  177MOL    H8739159   3.119   3.232   3.469  1.0360  2.3497 -1.3127
  177MOL    H8839160   2.773   3.472   3.529  0.9074  0.4157  0.3225
  177MOL    H8939161   2.680   3.398   3.321  0.7485  0.1447  1.3084
  177MOL    C9039162   2.943   2.970   2.927 -0.6031 -0.7195 -0.4277
  177MOL    C9139163   2.893   3.093   2.989 -0.1633 -0.1887  0.1213
  177MOL    C9239164   2.817   3.080   3.104 -1.2807 -0.4864 -0.5927
  177MOL    C9339165   2.779   2.957   3.151  0.7846 -0.1604 -0.0466
  177MOL    C9439166   2.827   2.837   3.095 -0.3409  1.0783 -0.1820
  177MOL    C9539167   2.908   2.841   2.976  0.3275 -0.4775 -0.4666
  177MOL    O9639168   2.949   2.726   2.915 -0.2543 -0.5329 -0.0758
  177MOL    H9739169   3.014   2.978   2.846  1.1652  0.3375  1.1962
  177MOL    H9839170   2.918   3.190   2.947 -1.0791 -0.1236 -0.2857
  177MOL    H9939171   2.705   2.947   3.230  0.9876 -0.0999  0.1525
  177MOL   H10039172   2.807   2.741   3.140 -1.9435  0.3437 -2.3775
  177MOL   C10139173   2.690   2.608   2.684 -0.3243  0.6903  0.5941
  177MOL   C10239174   2.753   2.641   2.806 -0.0204 -0.1443  0.0990
  177MOL   C10339175   2.883   2.694   2.801  0.4642  0.0388  0.2816
  177MOL   C10439176   2.948   2.708   2.677  0.0671  0.0415 -0.1513
  177MOL   C10539177   2.881   2.680   2.553  0.0253 -0.0694 -1.3944
  177MOL   C10639178   2.752   2.624   2.560 -0.2414  0.6647  0.0995
  177MOL   O10739179   2.680   2.595   2.446  0.0392 -0.5009 -0.7453
  177MOL   H10839180   2.591   2.566   2.684 -0.3133  0.6644  0.5319
  177MOL   H10939181   2.704   2.633   2.902  0.5267 -0.5997  0.3447
  177MOL   H11039182   3.045   2.754   2.683  0.5453 -0.7290 -1.7351
  177MOL   H11139183   2.925   2.687   2.454  2.0134 -2.5029 -0.7134
  177MOL   C11239184   2.699   2.246   2.348 -0.3702 -0.4756  0.2120
  177MOL   C11339185   2.676   2.358   2.427  0.1787  0.3787  0.2190
  177MOL   C11439186   2.712   2.485   2.377 -0.2249 -0.1822  0.5642
  177MOL   C11539187   2.784   2.498   2.259  1.1088 -0.2324 -0.6515
  177MOL   C11639188   2.805   2.382   2.175 -0.6638  0.4713  0.5976
  177MOL   C11739189   2.760   2.257   2.220  0.4311  0.3892  0.4472
  177MOL   O11839190   2.765   2.148   2.135 -0.0422 -0.4146 -0.3342
  177MOL   H11939191   2.664   2.151   2.385  1.8697 -1.7415 -0.8290
  177MOL   H12039192   2.629   2.341   2.522  0.9974  0.3931  0.6359
  177MOL   H12139193   2.813   2.599   2.231 -2.2747  0.1579 -2.9967
  177MOL   H12239194   2.853   2.385   2.079 -0.9280  1.4151  0.4930
  177MOL   C12339195   2.745   1.811   2.284 -0.7069 -0.2083  0.6906
  177MOL   C12439196   2.711   1.933   2.226 -0.6358 -0.3929 -0.2924
  177MOL   C12539197   2.810   2.032   2.195  0.2908 -0.5502  0.3918
  177MOL   C12639198   2.943   2.004   2.221 -0.4082 -0.0965 -0.1890
  177MOL   C12739199   2.980   1.886   2.283 -0.7569  0.1782  0.6112
  177MOL   C12839200   2.881   1.784   2.313 -0.2918 -0.3766  0.3172
  177MOL   O12939201   2.923   1.668   2.361  0.1958  0.2072  0.8394
  177MOL   H13039202   2.666   1.743   2.313 -0.2015 -1.0322  0.1734
  177MOL   H13139203   2.605   1.954   2.221 -0.7280 -0.9911 -0.9247
  177MOL   H13239204   3.019   2.078   2.204 -1.8472  1.9439  1.8815
  177MOL   H13339205   3.084   1.876   2.310 -0.5574  0.4646 -0.0455
  177MOL   C13439206   3.158   1.452   2.178 -0.4459  0.6384  0.9141
  177MOL   C13539207   3.106   1.539   2.271  0.3392 -0.3663 -0.3868
  177MOL   C13639208   2.968   1.568   2.268  0.7925  0.2740 -0.0278
  177MOL   C13739209   2.885   1.495   2.175 -0.1048 -0.2091 -0.3669
  177MOL   C13839210   2.943   1.410   2.082  0.5292  0.2774  0.0574
  177MOL   C13939211   3.079   1.392   2.079  0.0881 -0.3726 -0.0721
  177MOL   O14039212   3.134   1.322   1.972  0.2583  0.5498 -0.3244
  177MOL   H14139213   3.264   1.441   2.159 -0.9813 -1.9186 -1.0028
  177MOL   H14239214   3.176   1.591   2.334  0.2224 -0.7657  0.0816
  177MOL   H14339215   2.778   1.511   2.171 -0.2144 -0.1075  2.0005
  177MOL   H14439216   2.881   1.364   2.006  0.2567  1.9374 -0.7591
  177MOL   C14539217   3.045   1.478   1.654  0.4444 -0.2859  0.3240
  177MOL   C14639218   3.115   1.445   1.770 -0.2751 -0.0086  0.4229
  177MOL   C14739219   3.077   1.337   1.848 -0.2789 -0.2524  0.0974
  177MOL   C14839220   2.982   1.246   1.799 -0.8087  0.1366 -0.0610
  177MOL   C14939221   2.916   1.264   1.676 -0.6759  0.2160  0.0944
  177MOL   C15039222   2.948   1.385   1.605 -0.0698  0.1093  0.1385
  177MOL   O15139223   2.882   1.415   1.491  0.1629 -0.0883 -0.8905
  177MOL   H15239224   3.070   1.560   1.589 -0.3458  1.1022  1.7526
  177MOL   H15339225   3.197   1.511   1.791 -0.1787 -0.0457  0.1562
  177MOL   H15439226   2.942   1.177   1.872 -0.0101  0.0020  0.2537
  177MOL   H15539227   2.853   1.188   1.632 -0.5078 -0.0005  0.2285
  177MOL   C15639228   2.516   1.402   1.546  0.3534 -0.0490  0.6543
  177MOL   C15739229   2.654   1.436   1.566  0.1819 -1.0097  0.3811
  177MOL   C15839230   2.753   1.376   1.485 -0.4300  0.0358  0.3724
  177MOL   C15939231   2.715   1.271   1.395  0.0636  0.1441  0.4857
  177MOL   C16039232   2.578   1.235   1.385  0.0384 -0.1541  0.1739
  177MOL   C16139233   2.475   1.301   1.457  0.0189  1.3576 -0.7000
  177MOL   O16239234   2.346   1.261   1.434  0.3547 -0.5979  0.4589
  177MOL   H16339235   2.447   1.453   1.612  0.7811  2.0043 -0.4176
  177MOL   H16439236   2.684   1.505   1.643 -2.2041  0.2654  0.2072
  177MOL   H16539237   2.790   1.222   1.334  1.0608 -2.1733  3.4822
  177MOL   H16639238   2.548   1.157   1.317  2.6004 -0.8639 -0.1958
  177MOL   C16739239   2.221   1.525   1.209  0.4976 -0.0260  0.0771
  177MOL   C16839240   2.303   1.437   1.268 -0.5150  0.2482  0.0593
  177MOL   C16939241   2.262   1.355   1.379 -0.6345  0.4081 -0.1409
  177MOL   C17039242   2.133   1.366   1.434 -0.0121 -0.4194  0.0058
  177MOL   C17139243   2.050   1.458   1.367 -0.4979  0.1892 -0.4331
  177MOL   C17239244   2.086   1.537   1.255 -0.2857 -0.5367  0.0384
  177MOL   O17339245   2.000   1.632   1.206 -0.0626 -0.1797  0.1233
  177MOL   H17439246   2.265   1.596   1.140 -0.3651  0.7757  0.3334
  177MOL   H17539247   2.407   1.426   1.242 -0.0808 -1.2677  2.2592
  177MOL   H17639248   2.109   1.319   1.528  1.8610  0.2585  0.8469
  177MOL   H17739249   1.948   1.465   1.401 -0.0804 -0.5359  1.0080
  177MOL   C17839250   1.997   1.958   1.385  0.3536  0.8371  0.2442
  177MOL   C17939251   2.033   1.854   1.289  0.1213  0.7892  0.7351
  177MOL   C18039252   1.956   1.735   1.293 -0.0767 -0.4838  0.6156
  177MOL   C18139253   1.843   1.723   1.377 -0.5594  0.1691  0.7386
  177MOL   C18239254   1.809   1.827   1.462 -0.1250  0.0796 -0.2540
  177MOL   C18339255   1.887   1.943   1.473 -0.3684 -0.9451  0.2495
  177MOL   O18439256   1.846   2.044   1.558 -0.1973 -0.2213  0.1359
  177MOL   H18539257   2.050   2.052   1.383 -1.2684  1.8204  1.8964
  177MOL   H18639258   2.111   1.872   1.216 -1.4808  1.7539 -0.7948
  177MOL   H18739259   1.798   1.625   1.379 -0.8072  0.2852  0.7643
  177MOL   H18839260   1.727   1.825   1.532 -0.1658 -0.7924 -0.3306
  177MOL   C18939261   2.070   2.016   1.856  0.2648  0.3126 -0.6217
  177MOL   C19039262   2.027   2.029   1.725 -0.0644 -0.1595  0.3722
  177MOL   C19139263   1.893   2.035   1.687  0.1526 -0.5979  0.4969
  177MOL   C19239264   1.802   2.026   1.789 -0.2260 -1.1957 -0.2085
  177MOL   C19339265   1.836   2.006   1.927 -0.3451  0.9087  0.2898
  177MOL   C19439266   1.974   1.996   1.957  0.2157  0.5926  0.4792
  177MOL   O19539267   2.012   1.997   2.092 -0.0437 -0.2827 -0.1706
  177MOL   H19639268   2.175   2.026   1.879  0.5817 -1.1753 -1.3245
  177MOL   H19739269   2.107   2.039   1.653  0.3508 -2.0908  0.5365
  177MOL   H19839270   1.698   2.031   1.762 -0.5038  1.9248  1.2105
  177MOL   H19939271   1.766   2.012   2.008 -0.7867 -1.3846  0.1185
  177MOL   C20039272   2.308   1.837   2.249  0.3602  0.6868  0.7131
  177MOL   C20139273   2.213   1.937   2.206  0.3881 -0.1568  0.1396
  177MOL   C20239274   2.103   1.904   2.130 -0.1937 -0.1389 -0.1212
  177MOL   C20339275   2.092   1.768   2.087 -0.2432  0.1564  0.3139
  177MOL   C20439276   2.187   1.672   2.122  0.1219  0.4148  0.0707
  177MOL   C20539277   2.299   1.707   2.199  0.3433  0.1160  0.2264
  177MOL   O20639278   2.394   1.613   2.239 -0.3640 -0.4174 -0.0454
  177MOL   H20739279   2.396   1.872   2.300  1.8741 -1.0148 -0.6751
  177MOL   H20839280   2.236   2.035   2.245  0.9166 -0.7075  1.2427
  177MOL   H20939281   2.007   1.733   2.029  0.1849  0.6336 -0.5976
  177MOL   H21039282   2.169   1.572   2.085  0.7493  0.9044 -1.6321
  177MOL   C21139283   2.461   1.315   2.039 -0.0467 -0.1775 -0.0254
  177MOL   C21239284   2.419   1.400   2.138 -0.0621  0.6900 -0.0532
  177MOL   C21339285   2.457   1.537   2.143 -0.4663  0.0585  0.9817
  177MOL   C21439286   2.557   1.585   2.058  0.6470  0.0381  0.1240
  177MOL   C21539287   2.601   1.492   1.960  0.3107  0.0552 -0.4253
  177MOL   C21639288   2.563   1.357   1.954  0.1468 -0.2929 -0.4534
  177MOL   O21739289   2.622   1.272   1.868 -0.4573 -0.0302 -0.1594
  177MOL   H21839290   2.424   1.214   2.047 -1.0302  0.1259 -0.6772
  177MOL   H21939291   2.344   1.368   2.208  0.2840  0.7951  0.3629
  177MOL   H22039292   2.592   1.687   2.070 -1.6078  0.6688  1.7440
  177MOL   H22139293   2.683   1.525   1.897  2.1021  0.9027  2.2463
  177MOL   H22239294   2.593   1.183   1.860  1.8515 -0.6984 -1.6809
  178MOL     C139295   4.472   7.729   6.809  0.6596  0.0083  0.6491
  178MOL     C239296   4.393   7.823   6.876  0.7314 -0.5421 -0.4137
  178MOL     C339297   4.431   7.871   7.003  0.2729  0.0037 -0.7998
  178MOL     C439298   4.538   7.813   7.068  0.3131 -0.2079  0.0474
  178MOL     C539299   4.623   7.717   7.002 -0.4524 -0.8299  0.3234
  178MOL     C639300   4.590   7.675   6.868 -0.2433 -0.0278 -0.3962
  178MOL     O739301   4.675   7.589   6.799 -0.1013  0.3269  0.0755
  178MOL     H839302   4.447   7.700   6.707 -1.2123  1.3899  0.6783
  178MOL     H939303   4.300   7.864   6.838 -0.4304 -0.6996  2.1477
  178MOL    H1039304   4.563   7.842   7.169 -1.6057 -0.6929  0.6764
  178MOL    H1139305   4.698   7.665   7.059 -1.4610  0.3044  2.7716
  178MOL    H1239306   4.371   7.928   7.071  0.3104 -0.7856 -0.0979
  178MOL    C1339307   4.622   7.326   6.548 -0.3493  0.0051 -0.0126
  178MOL    C1439308   4.662   7.445   6.610 -0.0312 -0.4075 -0.1889
  178MOL    C1539309   4.620   7.476   6.739  0.3749 -0.4761 -0.3400
  178MOL    C1639310   4.533   7.394   6.815 -0.8253  0.5391  0.1182
  178MOL    C1739311   4.512   7.265   6.758  0.2531  0.3822 -0.4782
  178MOL    C1839312   4.542   7.232   6.618 -0.7289  0.4818 -0.5498
  178MOL    O1939313   4.507   7.114   6.557 -0.5865 -0.0487 -0.3800
  178MOL    H2039314   4.661   7.310   6.448  0.2928 -0.0175  0.2403
  178MOL    H2139315   4.732   7.511   6.562  2.0369 -2.8771 -0.6751
  178MOL    H2239316   4.505   7.416   6.917  1.9548 -0.7220  1.2147
  178MOL    H2339317   4.472   7.187   6.822  3.2752 -0.1393  0.8245
  178MOL    C2439318   4.442   6.776   6.695  0.2528 -0.5749  0.4497
  178MOL    C2539319   4.432   6.898   6.621  0.1047  0.3114  0.4037
  178MOL    C2639320   4.529   6.997   6.630 -0.0474 -0.2172 -0.0521
  178MOL    C2739321   4.642   6.976   6.715  0.2652 -0.5401 -0.6212
  178MOL    C2839322   4.653   6.860   6.796 -0.1803  0.0796 -0.0822
  178MOL    C2939323   4.556   6.761   6.779  0.3630  0.1950  0.2489
  178MOL    O3039324   4.566   6.650   6.858 -0.8849 -0.2366  0.4816
  178MOL    H3139325   4.374   6.693   6.684  3.2202 -3.2543  1.5163
  178MOL    H3239326   4.352   6.905   6.550  0.7051 -1.5255 -0.4966
  178MOL    H3339327   4.715   7.055   6.725  0.9212 -1.3243  0.8717
  178MOL    H3439328   4.742   6.847   6.856  0.2146 -0.1379 -0.7124
  178MOL    C3539329   4.857   6.424   6.811 -0.6777  0.6473 -0.1420
  178MOL    C3639330   4.736   6.491   6.789  0.3804 -0.3760  0.0663
  178MOL    C3739331   4.689   6.586   6.883 -0.0130 -0.5634 -0.1913
  178MOL    C3839332   4.762   6.610   6.999 -0.4006 -0.8852 -0.2458
  178MOL    C3939333   4.887   6.544   7.016 -0.4124 -0.4720 -0.3861
  178MOL    C4039334   4.934   6.457   6.919  0.0424  0.0271 -0.7013
  178MOL    O4139335   5.048   6.392   6.949 -0.0758 -0.0569  0.0024
  178MOL    H4239336   4.888   6.343   6.747 -2.0468  0.1890 -0.2361
  178MOL    H4339337   4.679   6.475   6.698 -0.8501 -0.6543  0.8636
  178MOL    H4439338   4.711   6.673   7.071  1.6893 -1.1272  1.4766
  178MOL    H4539339   4.946   6.573   7.103 -1.4408  0.3839  0.0441
  178MOL    C4639340   5.314   6.581   6.789 -0.1300 -0.3847  0.2209
  178MOL    C4739341   5.207   6.496   6.810  0.2449  0.4844  0.5012
  178MOL    C4839342   5.161   6.464   6.935  0.5778 -0.2500  0.6342
  178MOL    C4939343   5.237   6.508   7.047  0.1178  1.1953 -0.2699
  178MOL    C5039344   5.355   6.584   7.028  0.5100  0.0043 -0.5108
  178MOL    C5139345   5.397   6.619   6.895 -0.2674  0.3652  0.0583
  178MOL    O5239346   5.511   6.686   6.873 -0.1933 -0.5378  0.4756
  178MOL    H5339347   5.341   6.616   6.690  0.5340  0.3475  0.6524
  178MOL    H5439348   5.165   6.461   6.717  3.3121 -1.0237 -0.3683
  178MOL    H5539349   5.206   6.493   7.150  1.0026  3.2983  0.3273
  178MOL    H5639350   5.413   6.621   7.111  1.5271 -1.9333 -0.3473
  178MOL    C5739351   5.419   7.038   6.885  0.1792 -0.2859 -0.2544
  178MOL    C5839352   5.435   6.911   6.930  0.4454 -0.4391  0.0401
  178MOL    C5939353   5.504   6.817   6.847  0.1450  0.1572 -0.5136
  178MOL    C6039354   5.569   6.862   6.725  0.1154 -0.1462 -0.1615
  178MOL    C6139355   5.561   6.998   6.690  0.2552 -0.0155 -0.1574
  178MOL    C6239356   5.475   7.083   6.763 -0.7170 -0.0170 -0.3166
  178MOL    O6339357   5.432   7.208   6.715  0.6002 -0.3561 -0.1329
  178MOL    H6439358   5.349   7.100   6.938  1.5380  0.5394  0.6113
  178MOL    H6539359   5.380   6.882   7.018 -0.3275  2.0383  0.4216
  178MOL    H6639360   5.623   6.795   6.660  1.8160 -0.4456  1.5294
  178MOL    H6739361   5.599   7.034   6.596 -1.0873  1.6075 -0.0943
  178MOL    C6839362   5.682   7.469   6.671  0.0936 -0.5041  0.0943
  178MOL    C6939363   5.611   7.345   6.659 -0.3071  0.2472 -0.1226
  178MOL    C7039364   5.515   7.313   6.748  0.5185  0.4710 -0.2872
  178MOL    C7139365   5.494   7.387   6.866  0.2334  0.3942 -0.3112
  178MOL    C7239366   5.558   7.510   6.876 -0.8652  0.0610  0.0292
  178MOL    C7339367   5.659   7.549   6.788 -0.1912  0.0813  0.3367
  178MOL    O7439368   5.712   7.672   6.802 -0.2437  0.0927 -0.2516
  178MOL    H7539369   5.750   7.503   6.594  0.1728  0.2948  0.5090
  178MOL    H7639370   5.649   7.277   6.584 -1.5749 -0.4756 -0.1098
  178MOL    H7739371   5.427   7.350   6.943  0.3619 -0.1583 -0.4602
  178MOL    H7839372   5.528   7.579   6.953 -0.3985 -1.0318  1.2179
  178MOL    C7939373   5.832   7.779   7.137  0.1865 -0.3896 -0.5820
  178MOL    C8039374   5.738   7.755   7.032  0.0892  0.2431 -0.0858
  178MOL    C8139375   5.786   7.692   6.914  0.4431  0.2602  0.4961
  178MOL    C8239376   5.924   7.676   6.903  1.0161  0.6854 -0.1262
  178MOL    C8339377   6.018   7.692   7.004 -0.1116  0.1124  0.4550
  178MOL    C8439378   5.969   7.749   7.126  0.6508  0.8008 -0.3044
  178MOL    O8539379   6.053   7.778   7.230  0.2902  0.8060 -0.1443
  178MOL    H8639380   5.797   7.836   7.222  1.0690 -0.7600  0.0335
  178MOL    H8739381   5.635   7.779   7.053  0.2162  1.2499 -0.5294
  178MOL    H8839382   5.961   7.639   6.809 -0.2430  0.7722 -0.6652
  178MOL    H8939383   6.120   7.658   6.997 -0.2352  0.2609 -2.5052
  178MOL    C9039384   6.360   7.993   7.274  0.4785 -0.3721 -0.1690
  178MOL    C9139385   6.273   7.883   7.273 -0.2114 -0.1571 -0.4163
  178MOL    C9239386   6.135   7.893   7.229  0.9783 -0.2104 -0.1789
  178MOL    C9339387   6.094   8.018   7.181 -0.5312  0.0681  0.1294
  178MOL    C9439388   6.185   8.130   7.183  0.6010  0.3096 -0.3326
  178MOL    C9539389   6.315   8.118   7.231  0.4325 -0.2712  0.0772
  178MOL    O9639390   6.401   8.225   7.237 -0.6329 -0.1607  0.0039
  178MOL    H9739391   6.457   7.979   7.319  1.8395  1.9055 -2.3200
  178MOL    H9839392   6.310   7.788   7.307 -1.2435  0.2005  1.7829
  178MOL    H9939393   5.993   8.035   7.149 -0.6423 -0.2271  0.3216
  178MOL   H10039394   6.156   8.227   7.144 -0.1790  0.6969  1.1624
  178MOL   C10139395   6.394   0.104   7.579  0.0047 -0.0427 -0.1198
  178MOL   C10239396   6.358   0.058   7.453  0.5053 -0.5412 -0.3506
  178MOL   C10339397   6.447   0.010   7.360 -0.6791  0.2041 -0.1197
  178MOL   C10439398   6.582   0.020   7.384  0.3821 -0.1180  0.1877
  178MOL   C10539399   6.625   0.066   7.507 -0.0794  0.2063  0.1664
  178MOL   C10639400   6.533   0.109   7.608  0.7418 -0.3260 -0.2830
  178MOL   O10739401   6.571   0.159   7.737  0.0323  0.1822 -0.2598
  178MOL   H10839402   6.317   0.141   7.645  1.0384  1.4365  0.2753
  178MOL   H10939403   6.254   0.053   7.426  0.2840  2.8024 -0.4009
  178MOL   H11039404   6.653   8.229   7.316 -0.9970 -2.6018  0.2883
  178MOL   H11139405   6.732   0.070   7.521  0.3181 -1.9014 -1.8682
  178MOL   C11239406   6.416   8.252   8.040  0.3529 -0.4591  0.5747
  178MOL   C11339407   6.438   0.086   7.932 -0.8359 -0.1235 -0.0227
  178MOL   C11439408   6.551   0.076   7.847  1.1001  0.5588  0.7045
  178MOL   C11539409   6.649   8.236   7.891 -0.5795 -0.3972 -0.4156
  178MOL   C11639410   6.631   8.151   8.005 -0.1166  0.0583  0.0107
  178MOL   C11739411   6.517   8.168   8.085 -0.0406  0.4681 -1.0120
  178MOL   O11839412   6.500   8.099   8.201 -0.0340  0.3815  0.0808
  178MOL   H11939413   6.327   0.003   8.101  0.2912 -1.5035  0.5779
  178MOL   H12039414   6.358   0.156   7.912 -0.7610 -0.0276  0.0119
  178MOL   H12139415   6.737   8.207   7.836 -1.2698  1.8255 -2.8018
  178MOL   H12239416   6.710   8.088   8.040  0.9070  1.5484  0.4301
  178MOL   C12339417   6.609   7.748   8.116  0.7558  0.1017 -0.6782
  178MOL   C12439418   6.548   7.875   8.102 -0.2070  0.3485 -0.6363
  178MOL   C12539419   6.547   7.965   8.211 -0.2510 -0.2397 -0.9600
  178MOL   C12639420   6.614   7.923   0.083 -0.4081 -0.5583  0.2145
  178MOL   C12739421   6.682   7.799   0.082 -0.3646  0.1034 -0.0353
  178MOL   C12839422   6.677   7.710   8.231 -0.5748  0.3304  0.1589
  178MOL   O12939423   6.752   7.594   8.231  0.5928  0.4197 -0.1296
  178MOL   H13039424   6.603   7.677   8.035  0.3139  0.7940 -1.2527
  178MOL   H13139425   6.514   7.905   8.004 -3.1940 -0.2542  0.1699
  178MOL   H13239426   6.620   7.981   0.173  0.4495  0.9842 -0.8124
  178MOL   H13339427   6.733   7.760   0.170  2.8112  0.0506 -1.8117
  178MOL   C13439428   7.107   7.676   8.194 -0.0992 -0.5544  0.5891
  178MOL   C13539429   6.976   7.683   8.242  0.6700 -0.1640 -0.2884
  178MOL   C13639430   6.878   7.605   8.179 -0.1105 -0.1607 -0.5330
  178MOL   C13739431   6.907   7.526   8.069  0.0601  0.3774  0.6011
  178MOL   C13839432   7.042   7.518   8.022  0.5468 -0.1653  0.2491
  178MOL   C13939433   7.142   7.605   8.081 -0.1887  0.0607  0.1684
  178MOL   O14039434   7.261   7.615   8.016  0.3043  0.6693 -0.0715
  178MOL   H14139435   7.179   7.742   8.239 -1.5034  0.7187  0.9882
  178MOL   H14239436   6.959   7.749   0.071 -2.8974 -0.4910 -0.6739
  178MOL   H14339437   6.836   7.449   8.041 -0.1568  0.3409  1.2440
  178MOL   H14439438   7.065   7.454   7.938  0.7458 -0.9616  0.8980
  178MOL   C14539439   7.605   7.738   8.076  0.4823  0.1761  0.3625
  178MOL   C14639440   7.473   7.710   8.014 -0.0005  0.2649 -0.1223
  178MOL   C14739441   7.378   7.633   8.087 -0.1047 -0.1588  0.0255
  178MOL   C14839442   7.407   7.592   8.218 -0.5603 -0.3218 -0.0305
  178MOL   C14939443   7.534   7.614   0.024  0.0979 -0.1543 -0.0532
  178MOL   C15039444   7.630   7.689   8.203  0.5385 -0.4457 -0.0180
  178MOL   O15139445   7.755   7.709   0.005 -0.1547 -0.1650  0.0914
  178MOL   H15239446   7.672   7.797   8.016 -0.3594  0.4501 -0.3345
  178MOL   H15339447   7.461   7.739   7.910  0.2740 -3.9832 -1.4272
  178MOL   H15439448   7.338   7.541   0.029  1.4044 -0.6477  1.8610
  178MOL   H15539449   7.563   7.577   0.121 -2.1790  3.4856  2.1650
  178MOL   C15639450   7.899   7.648   0.336 -1.2054  0.5212 -0.8323
  178MOL   C15739451   7.859   7.627   0.204 -0.1558 -0.2479 -0.7806
  178MOL   C15839452   7.773   7.718   0.140  0.4376  0.1520  0.4875
  178MOL   C15939453   7.722   7.829   0.211  0.2878 -0.6105  0.3802
  178MOL   C16039454   7.766   7.852   0.345  0.6987  0.4457  0.1427
  178MOL   C16139455   7.853   7.762   0.408 -0.7716 -0.5252 -0.0841
  178MOL   O16239456   7.900   7.779   0.536  0.2403 -0.7847 -0.7375
  178MOL   H16339457   7.958   7.573   0.386 -0.4461  2.7114  1.7001
  178MOL   H16439458   7.904   7.544   0.151  1.6875  0.6328 -0.6596
  178MOL   H16539459   7.654   7.899   0.165 -0.2469 -1.5123 -0.2276
  178MOL   H16639460   7.745   7.948   0.389 -0.3735  0.7464 -1.0012
  178MOL   C16739461   7.899   8.096   0.731 -0.5107  0.4086 -0.5287
  178MOL   C16839462   7.852   7.978   0.669  1.0717 -0.5492 -0.1123
  178MOL   C16939463   7.932   7.904   0.582 -0.1875  0.5319 -0.1716
  178MOL   C17039464   8.054   7.957   0.542  0.1151 -0.5992 -0.1300
  178MOL   C17139465   8.100   8.083   0.591  0.1036 -0.0007  0.2427
  178MOL   C17239466   8.021   8.152   0.689  0.0120  0.2338  0.7936
  178MOL   O17339467   8.078   0.009   0.747 -0.1649 -0.1004 -0.6588
  178MOL   H17439468   7.849   8.168   0.795 -1.6989 -0.7676 -0.1262
  178MOL   H17539469   7.757   7.935   0.698  0.1632  0.4214 -1.5613
  178MOL   H17639470   8.112   7.895   0.475 -2.0781  0.6367 -3.3243
  178MOL   H17739471   8.202   8.112   0.568  1.8098 -2.9488  3.5640
  178MOL   C17839472   8.253   0.270   0.570 -0.3187  0.2309  0.0830
  178MOL   C17939473   8.235   0.161   0.645 -0.2294  0.3623  0.7443
  178MOL   C18039474   8.100   0.119   0.668 -0.1147  0.6036 -0.1801
  178MOL   C18139475   7.986   0.185   0.621 -0.2626  0.6365  0.4838
  178MOL   C18239476   8.011   0.302   0.540 -0.4100 -0.0136  0.3909
  178MOL   C18339477   8.144   0.339   0.512  0.0798  0.0657 -0.2938
  178MOL   O18439478   8.170   0.451   0.436 -0.0348 -0.7929  0.1572
  178MOL   H18539479   0.101   0.299   0.549  0.3909  1.2376  4.4002
  178MOL   H18639480   0.063   0.110   0.692 -1.1101 -0.5097  1.3795
  178MOL   H18739481   7.887   0.153   0.650 -0.1592 -0.9374 -0.8166
  178MOL   H18839482   7.929   0.363   0.505 -2.2140 -2.3318  0.4192
  178MOL   C18939483   0.080   0.786   0.474  0.0311 -0.1250 -0.1619
  178MOL   C19039484   0.012   0.669   0.417 -0.4045  0.1896  0.1846
  178MOL   C19139485   8.219   0.563   0.493 -0.1966  0.5252  0.2518
  178MOL   C19239486   8.237   0.579   0.638  0.3484 -0.2716  0.0557
  178MOL   C19339487   0.050   0.683   0.701  0.4216 -0.1767  0.2904
  178MOL   C19439488   0.088   0.792   0.615  0.0690 -0.8610  0.1408
  178MOL   O19539489   0.143   0.906   0.664 -0.3394 -0.1647 -0.4559
  178MOL   H19639490   0.101   0.869   0.409  3.0224 -3.1938 -3.3093
  178MOL   H19739491   8.249   0.663   0.310 -0.2411  1.5999  0.0691
  178MOL   H19839492   8.211   0.494   0.699 -2.0065  0.5199  0.2116
  178MOL   H19939493   0.068   0.685   0.807 -2.2772 -1.9228  0.8322
  178MOL   C20039494   0.443   1.044   0.492 -0.0205  0.0601 -0.1341
  178MOL   C20139495   0.307   1.017   0.522  0.1814  0.2453  0.5097
  178MOL   C20239496   0.277   0.938   0.627  0.1093  0.6481 -0.7320
  178MOL   C20339497   0.376   0.879   0.703 -0.2614 -0.1623  0.2639
  178MOL   C20439498   0.513   0.896   0.673 -0.3552 -0.7441  0.4336
  178MOL   C20539499   0.548   0.976   0.561  1.0771 -0.6951 -0.0078
  178MOL   O20639500   0.685   0.996   0.543 -0.1937  0.5498 -0.3319
  178MOL   H20739501   0.460   1.120   0.416 -0.5074  1.5712  1.2424
  178MOL   H20839502   0.223   1.067   0.476  0.9135 -0.6162 -1.8326
  178MOL   H20939503   0.356   0.814   0.787  0.3264 -3.7448 -2.2371
  178MOL   H21039504   0.596   0.855   0.729  0.7943  0.8776 -0.0558
  178MOL   C21139505   0.893   0.758   0.362 -1.0072  0.1427 -0.3564
  178MOL   C21239506   0.820   0.812   0.468 -0.0068 -0.1349 -0.0103
  178MOL   C21339507   0.745   0.929   0.443  0.8360  0.3069  0.2432
  178MOL   C21439508   0.737   0.986   0.313  0.3927 -0.5231  0.5495
  178MOL   C21539509   0.802   0.923   0.208  0.0249  0.0113 -0.2220
  178MOL   C21639510   0.883   0.813   0.231 -0.2717 -0.7181 -0.0603
  178MOL   O21739511   0.954   0.746   0.136 -0.4828 -0.0545 -0.1089
  178MOL   H21839512   0.958   0.674   0.380  2.0443  2.0202 -2.1661
  178MOL   H21939513   0.822   0.768   0.567 -0.3005 -1.9652 -0.8016
  178MOL   H22039514   0.681   1.076   0.294  1.9705  0.0656 -1.6033
  178MOL   H22139515   0.800   0.971   0.111 -1.8183 -0.9913 -0.7028
  178MOL   H22239516   0.994   0.802   0.071 -0.2305 -0.5228 -0.3611
  179MOL     C139517   4.969   3.354   0.718 -0.2834  0.1107 -1.0610
  179MOL     C239518   5.095   3.317   0.757 -0.6178  0.8521 -0.1759
  179MOL     C339519   5.123   3.198   0.829  0.5253  0.1582  0.1682
  179MOL     C439520   5.014   3.117   0.871 -0.2264  0.5287  0.0758
  179MOL     C539521   4.881   3.156   0.840  0.3771 -0.6074 -0.2170
  179MOL     C639522   4.858   3.275   0.756  0.4782 -0.3297  0.0917
  179MOL     O739523   4.725   3.309   0.732  0.1108 -0.2037  0.1641
  179MOL     H839524   4.956   3.451   0.671  1.0889  0.8875  0.1169
  179MOL     H939525   5.185   3.370   0.726  0.3949 -0.1790  0.9411
  179MOL    H1039526   5.023   3.027   0.930 -0.4009  1.0541  0.9248
  179MOL    H1139527   4.796   3.105   0.882 -1.9619  2.0383 -1.6535
  179MOL    H1239528   5.215   3.151   0.863  0.5305  0.6091  0.7868
  179MOL    C1339529   4.620   3.423   0.403 -0.1451 -0.0792 -0.0126
  179MOL    C1439530   4.649   3.423   0.540  0.0525 -0.5636  0.3098
  179MOL    C1539531   4.685   3.302   0.599  0.7898  0.0045 -0.5779
  179MOL    C1639532   4.697   3.180   0.531  0.5426 -0.5770 -0.4682
  179MOL    C1739533   4.663   3.186   0.397 -0.1185  0.1618 -0.4005
  179MOL    C1839534   4.637   3.302   0.329 -0.0857 -0.0397 -0.0718
  179MOL    O1939535   4.633   3.295   0.194  0.2565  0.5442 -0.0460
  179MOL    H2039536   4.595   3.518   0.358 -0.2107 -0.2148 -0.2675
  179MOL    H2139537   4.647   3.518   0.592 -0.4630 -0.8523  0.8278
  179MOL    H2239538   4.729   3.084   0.570 -0.7998 -0.1879  1.6637
  179MOL    H2339539   4.674   3.094   0.342  2.4892  0.9607 -1.3269
  179MOL    C2439540   4.836   3.554   0.029  0.9646  0.4153  0.6538
  179MOL    C2539541   4.803   3.434   0.098  0.6084 -0.1490 -0.6690
  179MOL    C2639542   4.667   3.408   0.126 -0.2187 -0.2440 -0.8724
  179MOL    C2739543   4.563   3.499   0.092  0.0059 -0.5005 -0.6884
  179MOL    C2839544   4.600   3.611   0.016  0.6765  0.4592 -0.6346
  179MOL    C2939545   4.734   3.647   8.249 -0.0145  0.4776  1.0097
  179MOL    O3039546   4.763   3.752   8.164 -0.0382  0.7477 -0.1329
  179MOL    H3139547   4.941   3.565   0.004  0.8986  0.3529  0.3468
  179MOL    H3239548   4.877   3.359   0.122 -1.0213 -0.8766  2.4568
  179MOL    H3339549   4.464   3.494   0.134  0.0735  2.3032 -0.1006
  179MOL    H3439550   4.524   3.679   8.237  1.4980  1.5236 -0.3516
  179MOL    C3539551   4.741   4.086   0.062 -0.2864 -0.0435 -0.5514
  179MOL    C3639552   4.705   3.957   0.022  0.4763 -0.4331 -0.6293
  179MOL    C3739553   4.801   3.873   8.221 -0.3948  0.4376 -0.5111
  179MOL    C3839554   4.936   3.912   8.222  0.3149 -0.2371 -0.4551
  179MOL    C3939555   4.970   4.042   0.007  0.6371 -0.3770 -0.1955
  179MOL    C4039556   4.874   4.131   0.055  0.5363 -0.4383 -0.4012
  179MOL    O4139557   4.906   4.252   0.110 -0.1677  0.1399  1.3146
  179MOL    H4239558   4.664   4.156   0.091  1.7369  2.3819 -0.8304
  179MOL    H4339559   4.603   3.925   0.037  0.4771 -0.8232 -1.4771
  179MOL    H4439560   5.008   3.849   8.173  0.6174  0.6938 -1.2288
  179MOL    H4539561   5.075   4.067   0.002  0.4490  0.4090 -0.3094
  179MOL    C4639562   5.163   4.462   8.218  0.1873 -0.5082 -0.2143
  179MOL    C4739563   5.043   4.397   8.236  0.2270 -1.0854 -0.0057
  179MOL    C4839564   5.029   4.313   0.096 -0.3361  0.4930 -0.3557
  179MOL    C4939565   5.126   4.301   0.192 -0.1970  0.5143  0.0483
  179MOL    C5039566   5.243   4.378   0.178 -0.7801 -0.1438  0.3930
  179MOL    C5139567   5.265   4.458   0.064 -0.7441  0.0517 -0.2547
  179MOL    O5239568   5.391   4.517   0.054  0.0518  0.0021 -0.0943
  179MOL    H5339569   5.184   4.519   8.129  0.0349  0.0676  0.1127
  179MOL    H5439570   4.957   4.419   8.175  0.3744  1.6043  0.6893
  179MOL    H5539571   5.120   4.242   0.282  0.0221  1.3039  0.5865
  179MOL    H5639572   5.318   4.367   0.255 -1.2912 -2.5057  0.5888
  179MOL    C5739573   5.397   4.856   0.194 -0.2351  0.0931 -0.6493
  179MOL    C5839574   5.419   4.720   0.181  0.0652  0.3134 -0.1485
  179MOL    C5939575   5.387   4.658   0.056 -0.1930 -0.0072  0.3314
  179MOL    C6039576   5.346   4.738   8.200 -0.7437  0.4648 -0.8085
  179MOL    C6139577   5.331   4.872   8.211 -0.5323  0.1030  0.2873
  179MOL    C6239578   5.363   4.929   0.079 -0.2261 -0.1949 -0.0551
  179MOL    O6339579   5.367   5.068   0.092  0.5613 -0.7839  0.6880
  179MOL    H6439580   5.420   4.915   0.282 -4.0679 -0.5533  0.9266
  179MOL    H6539581   5.443   4.657   0.266  2.3516 -0.9632 -1.6760
  179MOL    H6639582   5.340   4.694   8.101 -0.2899  1.0141 -1.0817
  179MOL    H6739583   5.289   4.924   8.126 -0.0657 -1.7491 -1.1149
  179MOL    C6839584   5.202   5.360   8.196  0.0781  0.2281  0.4005
  179MOL    C6939585   5.298   5.266   8.231 -0.5144  0.0214 -0.1456
  179MOL    C7039586   5.264   5.144   0.040  0.1743  0.3200  0.0550
  179MOL    C7139587   5.129   5.112   0.061 -0.1122 -0.3613  0.3981
  179MOL    C7239588   5.034   5.205   0.019  0.1566 -0.4899 -1.2926
  179MOL    C7339589   5.064   5.325   8.219 -0.1655  0.3628  0.0630
  179MOL    O7439590   4.966   5.415   8.179 -0.3052  0.1072 -0.5471
  179MOL    H7539591   5.224   5.449   8.139  0.9171 -0.4376 -0.3312
  179MOL    H7639592   5.405   5.269   8.217 -0.2441 -1.7607  1.3232
  179MOL    H7739593   5.105   5.022   0.117 -0.5549 -0.4542  0.0613
  179MOL    H7839594   4.928   5.187   0.033 -0.2920  2.6942 -0.3176
  179MOL    C7939595   4.674   5.572   0.070 -0.3375  0.0155  0.2877
  179MOL    C8039596   4.756   5.503   8.231  0.5066  0.1010 -0.3779
  179MOL    C8139597   4.890   5.482   0.016 -1.2522  0.1036  0.0348
  179MOL    C8239598   4.935   5.511   0.148  0.6569 -0.0649  0.0141
  179MOL    C8339599   4.842   5.562   0.242  0.2671  1.1398  0.5087
  179MOL    C8439600   4.713   5.596   0.205  0.1356 -0.6338  0.7946
  179MOL    O8539601   4.626   5.658   0.293 -0.0119 -0.3936  0.0027
  179MOL    H8639602   4.569   5.589   0.054 -0.3760 -0.6560 -0.1830
  179MOL    H8739603   4.720   5.477   8.133  0.8301 -0.0133 -0.4684
  179MOL    H8839604   5.035   5.475   0.167  0.8075 -0.6802 -1.8563
  179MOL    H8939605   4.866   5.583   0.345  1.8076  3.4830 -0.2665
  179MOL    C9039606   4.505   5.988   0.189 -0.2004 -0.1765  0.0560
  179MOL    C9139607   4.518   5.854   0.193 -0.2306 -0.2689  0.3109
  179MOL    C9239608   4.611   5.796   0.276  0.2977  0.0284  0.0476
  179MOL    C9339609   4.687   5.887   0.357  0.7260 -0.6296  0.3110
  179MOL    C9439610   4.680   6.026   0.347 -0.0828  0.6884  0.5878
  179MOL    C9539611   4.581   6.079   0.266  0.1429 -0.4171  0.7283
  179MOL    O9639612   4.565   6.215   0.268 -0.4707  0.6014  0.0613
  179MOL    H9739613   4.425   6.031   0.130 -0.5514  1.8595  1.9587
  179MOL    H9839614   4.444   5.797   0.139  1.2414 -0.0052 -2.0524
  179MOL    H9939615   4.761   5.840   0.419  0.1148  1.4149  2.6347
  179MOL   H10039616   4.741   6.095   0.403  0.7251 -0.4409  1.1215
  179MOL   C10139617   4.642   6.326   8.178 -0.0309 -0.3983  0.2505
  179MOL   C10239618   4.616   6.245   0.036 -0.3289  0.4528 -0.0521
  179MOL   C10339619   4.567   6.292   0.154 -0.2122  0.4090 -0.4996
  179MOL   C10439620   4.525   6.426   0.159  0.8178  0.7096  0.3960
  179MOL   C10539621   4.537   6.513   0.049  0.4837  0.3402 -0.0544
  179MOL   C10639622   4.596   6.464   8.186 -0.3962 -0.2730 -0.7694
  179MOL   O10739623   4.633   6.550   8.082 -0.7843  0.4847  0.1420
  179MOL   H10839624   4.698   6.292   8.092  0.7127 -0.3860  0.7348
  179MOL   H10939625   4.671   6.152   0.037 -0.1725  0.5402 -0.6119
  179MOL   H11039626   4.482   6.458   0.253 -2.0826  0.6325 -0.8609
  179MOL   H11139627   4.513   6.619   0.055 -0.2884  0.1397  0.4838
  179MOL   C11239628   4.434   6.828   7.916 -0.0753  0.3812 -0.4748
  179MOL   C11339629   4.541   6.753   7.983 -0.0976  0.3405 -0.1293
  179MOL   C11439630   4.535   6.614   8.011  0.7375  0.2743  0.4528
  179MOL   C11539631   4.422   6.547   7.959 -0.7104  0.3939  0.3085
  179MOL   C11639632   4.312   6.615   7.899 -0.0668 -0.4555  0.3887
  179MOL   C11739633   4.320   6.756   7.879 -0.5166  0.2518  0.2541
  179MOL   O11839634   4.212   6.826   7.832  0.2370 -0.1866 -0.7734
  179MOL   H11939635   4.441   6.935   7.905  0.7076  0.2613 -1.1656
  179MOL   H12039636   4.627   6.807   8.021 -1.2236  0.9757  1.5797
  179MOL   H12139637   4.435   6.440   7.968 -2.4401 -0.1902 -3.1250
  179MOL   H12239638   4.229   6.556   7.862  1.1629 -1.1962 -1.2744
  179MOL   C12339639   4.064   7.009   8.116  0.9274  0.1078  0.6021
  179MOL   C12439640   4.160   6.939   8.041  0.2259  0.0538 -0.0376
  179MOL   C12539641   4.122   6.865   7.924  0.0299 -0.1499  0.2051
  179MOL   C12639642   3.986   6.848   7.891 -0.6020 -0.3276 -0.1031
  179MOL   C12739643   3.884   6.897   7.985 -0.0460 -0.4636  0.4117
  179MOL   C12839644   3.926   6.988   8.091 -0.1000 -0.3812 -0.3900
  179MOL   O12939645   3.839   7.056   8.178  0.1002 -0.3054 -0.1119
  179MOL   H13039646   4.093   7.070   8.200  0.5737  0.4669  0.4677
  179MOL   H13139647   4.265   6.952   8.062  0.1500  0.2902  0.1990
  179MOL   H13239648   3.959   6.789   7.805 -0.3598 -0.3799 -0.1425
  179MOL   H13339649   3.780   6.869   7.974 -0.1687 -0.1996  0.8508
  179MOL   C13439650   3.596   7.278   8.025  0.7445 -0.8167 -0.1051
  179MOL   C13539651   3.649   7.160   8.084 -0.5562  0.4775 -0.1936
  179MOL   C13639652   3.783   7.170   8.130 -0.4230 -0.5387 -0.4923
  179MOL   C13739653   3.859   7.294   8.136 -0.1764  0.1697 -0.2670
  179MOL   C13839654   3.799   7.410   8.092  0.6595  0.1984 -0.0815
  179MOL   C13939655   3.669   7.401   8.038 -0.3601 -0.2333 -0.1030
  179MOL   O14039656   3.614   7.524   7.997 -0.4404 -0.1760  0.7081
  179MOL   H14139657   3.499   7.281   7.977  0.0277 -2.6911  1.1459
  179MOL   H14239658   3.601   7.065   8.068  0.2841  0.1612 -0.9095
  179MOL   H14339659   3.956   7.297   8.184  0.0156 -0.3498 -0.6224
  179MOL   H14439660   3.852   7.502   8.108 -0.2366  0.5957  0.6980
  179MOL   C14539661   3.808   7.738   7.769 -0.0380  0.4544  0.1669
  179MOL   C14639662   3.756   7.679   7.889  0.5675 -0.2356  0.1785
  179MOL   C14739663   3.661   7.575   7.878 -0.0316 -0.0881 -0.6861
  179MOL   C14839664   3.630   7.518   7.755 -0.9155 -0.0042 -0.2210
  179MOL   C14939665   3.693   7.566   7.637  0.1857  0.1564  0.1039
  179MOL   C15039666   3.776   7.680   7.643 -0.4506  0.0729 -0.4418
  179MOL   O15139667   3.817   7.739   7.528  0.1778 -0.1879 -0.1089
  179MOL   H15239668   3.878   7.820   7.768  1.4944 -0.8423  0.1853
  179MOL   H15339669   3.781   7.727   7.983  1.6352 -0.4415  0.0107
  179MOL   H15439670   3.561   7.436   7.740 -0.4035 -0.2576 -1.2473
  179MOL   H15539671   3.660   7.523   7.544  0.9350  0.9614 -0.5404
  179MOL   C15639672   3.564   7.999   7.442  1.2295 -0.1743 -0.6745
  179MOL   C15739673   3.632   7.901   7.519 -0.0155  0.3382  0.1817
  179MOL   C15839674   3.731   7.823   7.460  0.0472  0.3659 -0.4520
  179MOL   C15939675   3.753   7.841   7.319 -0.2088 -0.8701  0.0455
  179MOL   C16039676   3.671   7.925   7.238  0.2932 -0.2760 -0.4413
  179MOL   C16139677   3.586   8.012   7.297  0.9077  1.1254 -0.4840
  179MOL   O16239678   3.515   8.104   7.221  0.4307 -0.1080  0.4633
  179MOL   H16339679   3.492   8.059   7.496  0.1490 -1.2454 -0.9064
  179MOL   H16439680   3.605   7.891   7.623 -0.2935  1.2553  0.2001
  179MOL   H16539681   3.829   7.781   7.271  0.0667 -1.8453  1.6745
  179MOL   H16639682   3.695   7.928   7.133 -3.4751 -1.2373 -1.4080
  179MOL   C16739683   3.383   0.152   7.394  0.8122  0.0509 -0.4561
  179MOL   C16839684   3.470   0.066   7.325  0.1205 -0.1523 -0.7387
  179MOL   C16939685   3.427   8.192   7.284 -0.3189  0.1492 -0.3183
  179MOL   C17039686   3.293   8.161   7.296 -0.0865 -0.5095  0.8439
  179MOL   C17139687   3.198   8.249   7.356  0.4779  0.1017  0.7645
  179MOL   C17239688   3.248   0.117   7.404  0.3361  0.6033 -0.2221
  179MOL   O17339689   3.156   0.206   7.455 -0.4792  0.0577  0.0180
  179MOL   H17439690   3.413   0.254   7.415  0.0020  0.4249 -1.0759
  179MOL   H17539691   3.571   0.095   7.299  0.0328  0.4015 -0.4901
  179MOL   H17639692   3.269   8.057   7.279  1.5543 -0.6996 -0.3959
  179MOL   H17739693   3.094   8.219   7.361  0.2353  0.6631 -0.6673
  179MOL   C17839694   3.019   0.546   7.423  0.1194 -0.0713 -0.3488
  179MOL   C17939695   3.059   0.421   7.477 -0.6341 -0.2887  0.2078
  179MOL   C18039696   3.117   0.322   7.393  0.0701  0.1565  0.6677
  179MOL   C18139697   3.128   0.349   7.254 -0.0562 -0.3116  0.3175
  179MOL   C18239698   3.078   0.464   7.198 -0.1858  0.3406 -0.9357
  179MOL   C18339699   3.038   0.568   7.287  0.1759  0.4952 -0.3518
  179MOL   O18439700   3.022   0.691   7.231  0.1157 -0.1728  0.4228
  179MOL   H18539701   2.990   0.631   7.483  0.8635  0.0761 -0.2045
  179MOL   H18639702   3.053   0.406   7.583 -0.2490 -1.0401  0.1227
  179MOL   H18739703   3.165   0.269   7.191  1.2603  0.2460  0.3607
  179MOL   H18839704   3.095   0.476   7.092 -1.0050  2.2799 -0.8849
  179MOL   C18939705   2.698   0.848   7.268 -0.2162 -0.0924 -0.3977
  179MOL   C19039706   2.830   0.813   7.297  0.3446  0.0078  0.2086
  179MOL   C19139707   2.896   0.730   7.209  0.2468  0.5571  0.1726
  179MOL   C19239708   2.831   0.692   7.085 -0.4624  0.2341 -0.1923
  179MOL   C19339709   2.699   0.730   7.057  0.4038 -0.0946 -0.8084
  179MOL   C19439710   2.630   0.806   7.153  0.4325  0.4917  0.4999
  179MOL   O19539711   2.496   0.841   7.135 -0.7080  0.4606 -0.0035
  179MOL   H19639712   2.635   0.907   7.334  1.5083  1.3317  0.0057
  179MOL   H19739713   2.883   0.853   7.382 -0.9904 -0.2353  1.1638
  179MOL   H19839714   2.878   0.624   7.015  4.7342  1.1693  2.1745
  179MOL   H19939715   2.645   0.695   6.970 -0.9398  1.4066 -0.5891
  179MOL   C20039716   2.309   1.028   6.882  0.4348  0.2823  0.6507
  179MOL   C20139717   2.359   0.922   6.963  0.2617  0.4608  0.2133
  179MOL   C20239718   2.467   0.942   7.051 -0.0270 -0.1139 -0.0361
  179MOL   C20339719   2.533   1.063   7.048  0.0435  0.0625  0.2209
  179MOL   C20439720   2.493   1.164   6.955 -0.1936  0.3948 -1.4772
  179MOL   C20539721   2.380   1.152   6.870 -0.0601  0.8590  0.0277
  179MOL   O20639722   2.326   1.251   6.797 -0.3125  0.3594 -0.4123
  179MOL   H20739723   2.212   1.018   6.835  0.4002  1.1465  0.5237
  179MOL   H20839724   2.302   0.831   6.966 -1.6055  1.6178  0.5224
  179MOL   H20939725   2.618   1.080   7.112 -0.8874  0.5647  1.3477
  179MOL   H21039726   2.554   1.253   6.961 -2.7558  2.3159 -2.8762
  179MOL   C21139727   2.486   1.383   6.503  0.1366 -0.0572  0.3559
  179MOL   C21239728   2.449   1.361   6.638 -0.2002 -0.3110 -0.4055
  179MOL   C21339729   2.367   1.253   6.667  0.0269  0.3139 -0.0173
  179MOL   C21439730   2.317   1.170   6.564 -0.0517 -0.2190 -0.3505
  179MOL   C21539731   2.352   1.190   6.433  0.1980 -0.1103 -0.8165
  179MOL   C21639732   2.438   1.297   6.407  0.4939 -0.3250 -0.2385
  179MOL   O21739733   2.478   1.312   6.279 -0.0351 -0.2082  0.5799
  179MOL   H21839734   2.544   1.468   6.470 -1.0303 -0.2637 -2.3414
  179MOL   H21939735   2.475   1.428   6.718 -0.6192  2.1266 -2.2424
  179MOL   H22039736   2.239   1.100   6.590 -1.5853  1.2203 -0.9800
  179MOL   H22139737   2.310   1.113   6.370  0.3972 -0.4875 -0.4815
  179MOL   H22239738   2.452   1.237   6.227 -0.7046  0.1461  0.4135
  180MOL     C139739   4.068   6.834   5.610 -0.0532 -0.3262 -0.5492
  180MOL     C239740   4.020   6.704   5.613 -0.6429 -0.4518 -0.7253
  180MOL     C339741   3.972   6.639   5.733  0.6556  0.3836  0.0322
  180MOL     C439742   3.945   6.722   5.844  1.6042 -0.0468  0.2174
  180MOL     C539743   3.995   6.854   5.845  0.5535 -0.3033  0.3846
  180MOL     C639744   4.065   6.908   5.732  0.2195  0.4328 -0.8077
  180MOL     O739745   4.106   7.037   5.736  0.2739 -0.5647  0.0651
  180MOL     H839746   4.111   6.877   5.520 -0.6340  1.5770  0.0621
  180MOL     H939747   4.039   6.641   5.527 -0.4127 -2.0401  0.4693
  180MOL    H1039748   3.903   6.675   5.932  0.1579  0.6160 -0.1088
  180MOL    H1139749   3.963   6.908   5.933 -0.3337  0.2745 -0.2898
  180MOL    H1239750   3.964   6.532   5.735 -2.5399  0.5564 -0.7450
  180MOL    C1339751   4.438   7.081   5.891 -0.4424 -0.2622 -0.1832
  180MOL    C1439752   4.309   7.032   5.868 -0.1679 -0.1147 -0.5384
  180MOL    C1539753   4.238   7.077   5.756  0.0146  0.3475 -0.3793
  180MOL    C1639754   4.305   7.160   5.661  0.3325 -0.3075  0.1657
  180MOL    C1739755   4.432   7.209   5.679  0.4352 -0.0969  0.0980
  180MOL    C1839756   4.508   7.171   5.795  0.3430 -0.4035  0.0500
  180MOL    O1939757   4.637   7.208   5.809 -0.1934  0.0788 -0.1418
  180MOL    H2039758   4.501   7.052   5.974 -0.4675 -2.5869 -0.9347
  180MOL    H2139759   4.270   6.971   5.949  1.4042  1.4606  1.4785
  180MOL    H2239760   4.257   7.183   5.567 -1.7257 -1.4550  0.9158
  180MOL    H2339761   4.486   7.272   5.609  1.8006  0.6576  1.7784
  180MOL    C2439762   4.900   7.065   5.611 -0.7725  0.4782  0.1701
  180MOL    C2539763   4.797   7.151   5.651  0.2183  0.3226  0.2110
  180MOL    C2639764   4.729   7.123   5.767 -0.3670 -0.4078 -0.1735
  180MOL    C2739765   4.768   7.008   5.845 -0.0387 -0.1967  0.3431
  180MOL    C2839766   4.869   6.924   5.797  0.8214 -0.4943 -0.0873
  180MOL    C2939767   4.933   6.947   5.680 -0.5730  0.1739  0.2124
  180MOL    O3039768   5.032   6.865   5.635 -0.4955 -0.3646 -0.4696
  180MOL    H3139769   4.955   7.093   5.522 -0.8456  2.1878  0.6476
  180MOL    H3239770   4.762   7.227   5.583  1.5021 -1.2015 -2.2677
  180MOL    H3339771   4.726   6.987   5.942 -0.3542 -0.0816  0.2337
  180MOL    H3439772   4.885   6.830   5.847 -1.9146 -1.5670 -1.0815
  180MOL    C3539773   5.003   6.723   5.314 -0.3299 -0.0033 -0.3958
  180MOL    C3639774   5.030   6.814   5.411  0.3498 -0.1856  0.0502
  180MOL    C3739775   4.983   6.783   5.540 -0.3022  0.1202 -0.0286
  180MOL    C3839776   4.890   6.676   5.567 -0.6419 -0.1228  0.0927
  180MOL    C3939777   4.861   6.590   5.470  0.2954 -0.4127 -0.2080
  180MOL    C4039778   4.923   6.608   5.343  0.3500 -0.6084 -0.5775
  180MOL    O4139779   4.926   6.512   5.249  0.4317 -0.1253 -0.4471
  180MOL    H4239780   5.044   6.739   5.216 -0.6787 -0.6094 -0.6419
  180MOL    H4339781   5.092   6.900   5.390  0.9706 -0.8917 -1.1142
  180MOL    H4439782   4.861   6.666   5.670 -1.1177 -2.8690 -0.2614
  180MOL    H4539783   4.805   6.501   5.493  1.6535 -2.0843 -3.0450
  180MOL    C4639784   4.728   6.446   4.940 -0.0960 -0.1326 -0.0748
  180MOL    C4739785   4.836   6.457   5.036 -0.2378 -0.9302  0.0496
  180MOL    C4839786   4.819   6.508   5.165  0.2915 -0.0972  0.0719
  180MOL    C4939787   4.681   6.531   5.209 -0.2703  0.2982  0.2167
  180MOL    C5039788   4.571   6.514   5.117 -0.1731 -0.0187  0.4641
  180MOL    C5139789   4.594   6.467   4.985 -0.8062 -0.1548 -0.0488
  180MOL    O5239790   4.480   6.442   4.905 -0.2263 -0.0642 -0.2237
  180MOL    H5339791   4.753   6.416   4.840  0.8718 -2.0977  0.7393
  180MOL    H5439792   4.934   6.434   4.997 -0.7858 -2.4915 -0.4413
  180MOL    H5539793   4.657   6.572   5.306  1.0411  1.3098  0.1276
  180MOL    H5639794   4.469   6.537   5.145  0.4330  0.9416  1.9820
  180MOL    C5739795   4.508   6.233   4.602  0.4962 -0.0299 -0.2204
  180MOL    C5839796   4.485   6.343   4.687  0.4175 -0.4417 -0.2415
  180MOL    C5939797   4.493   6.334   4.824  0.2420 -0.2195  0.5657
  180MOL    C6039798   4.507   6.202   4.873  0.3541 -0.1812  0.1212
  180MOL    C6139799   4.525   6.088   4.792 -0.0203 -0.6244  0.3662
  180MOL    C6239800   4.526   6.107   4.654  0.0906  0.0124 -0.8996
  180MOL    O6339801   4.565   6.001   4.572  0.8615 -0.0291  0.0899
  180MOL    H6439802   4.519   6.258   4.498  0.4520 -1.0968 -0.4906
  180MOL    H6539803   4.487   6.438   4.634  0.6823  0.0778  0.6787
  180MOL    H6639804   4.510   6.183   4.979  0.9386 -1.7987 -0.1576
  180MOL    H6739805   4.547   5.992   4.835 -1.5744 -0.7952  0.8124
  180MOL    C6839806   4.868   6.126   4.382 -0.1318 -0.2059  0.3244
  180MOL    C6939807   4.764   6.127   4.478  0.3877  0.3212 -0.3183
  180MOL    C7039808   4.668   6.020   4.477  0.1056  0.6351  1.2645
  180MOL    C7139809   4.676   5.918   4.380  0.4700  0.1838 -1.4534
  180MOL    C7239810   4.777   5.927   4.281  0.0603  0.2571  0.4665
  180MOL    C7339811   4.872   6.027   4.281 -0.1592  0.6169  0.1341
  180MOL    O7439812   4.968   6.025   4.184 -0.6100 -0.3306  0.0216
  180MOL    H7539813   4.951   6.195   4.397  1.1114 -1.6958  0.4054
  180MOL    H7639814   4.762   6.203   4.555 -0.7555 -0.4574  0.4317
  180MOL    H7739815   4.606   5.837   4.389  2.4048 -1.5497 -1.6691
  180MOL    H7839816   4.769   5.854   4.201  0.3918 -0.7428  1.3267
  180MOL    C7939817   5.133   6.332   4.054 -0.4976 -0.1188  0.3392
  180MOL    C8039818   5.108   6.208   4.127  0.8539 -0.0159  0.6146
  180MOL    C8139819   4.990   6.142   4.110  0.1385  0.3821  0.1811
  180MOL    C8239820   4.893   6.181   4.011  0.0297  0.0538 -0.5232
  180MOL    C8339821   4.920   6.292   3.927  0.3419  0.1807 -0.4274
  180MOL    C8439822   5.038   6.367   3.957  0.2350 -0.3298 -0.1472
  180MOL    O8539823   5.053   6.483   3.884 -0.0521  0.0162  0.2622
  180MOL    H8639824   5.228   6.382   4.063 -0.4525 -0.6472  3.0147
  180MOL    H8739825   5.184   6.163   4.189  1.7172 -3.2448 -2.5864
  180MOL    H8839826   4.798   6.132   3.999  0.2226 -0.0338 -1.7193
  180MOL    H8939827   4.843   6.325   3.860  1.2176  1.2553 -0.9170
  180MOL    C9039828   5.043   6.450   3.525  0.5467 -0.1647 -0.0409
  180MOL    C9139829   5.009   6.468   3.657 -0.4224  0.1050  0.2010
  180MOL    C9239830   5.106   6.474   3.760 -0.3141  0.2043  0.8764
  180MOL    C9339831   5.238   6.450   3.721 -0.0096 -0.3463 -0.6935
  180MOL    C9439832   5.269   6.413   3.589 -0.2932 -0.3208 -0.0169
  180MOL    C9539833   5.173   6.412   3.491  0.5057 -0.2890 -0.2354
  180MOL    O9639834   5.205   6.380   3.360 -0.0799  0.3345  0.5048
  180MOL    H9739835   4.970   6.439   3.446  0.3626 -0.9846  0.2311
  180MOL    H9839836   4.906   6.486   3.685 -0.1881  2.9766 -0.5942
  180MOL    H9939837   5.323   6.438   3.788 -0.5479  0.2545  0.1141
  180MOL   H10039838   5.374   6.395   3.570  0.2253  1.7397  0.7371
  180MOL   C10139839   5.199   6.611   3.069  0.2830 -1.2419 -0.1388
  180MOL   C10239840   5.168   6.499   3.151 -0.3935 -0.1513  0.2353
  180MOL   C10339841   5.240   6.478   3.269  0.3387  0.0156 -0.8738
  180MOL   C10439842   5.348   6.554   3.300  0.1107 -1.1371  0.2449
  180MOL   C10539843   5.387   6.661   3.211 -0.5957  0.1198  0.1881
  180MOL   C10639844   5.309   6.695   3.102 -0.4557  0.1537 -0.2823
  180MOL   O10739845   5.328   6.810   3.028 -0.0170 -0.8749  0.2319
  180MOL   H10839846   5.140   6.628   2.980  0.5978  0.0909 -0.1022
  180MOL   H10939847   5.088   6.433   3.122 -1.5068  1.7633 -1.1054
  180MOL   H11039848   5.410   6.536   3.387 -1.1427  0.3736  1.4704
  180MOL   H11139849   5.476   6.720   3.227  0.1881 -0.4486 -1.9721
  180MOL   C11239850   5.531   7.107   3.127  0.6643 -0.7271 -0.2492
  180MOL   C11339851   5.491   6.991   3.057  0.6501 -0.4204  0.4793
  180MOL   C11439852   5.374   6.923   3.095 -0.3429  0.0097  0.4327
  180MOL   C11539853   5.294   6.973   3.201  0.5514  0.0481 -0.7733
  180MOL   C11639854   5.344   7.073   3.280  0.1574  0.1195 -0.1157
  180MOL   C11739855   5.457   7.150   3.239  0.0680 -1.3855 -0.0643
  180MOL   O11839856   5.494   7.256   3.313  0.0407 -0.2159  0.4972
  180MOL   H11939857   5.621   7.156   3.093 -0.9754  1.6007 -1.4380
  180MOL   H12039858   5.551   6.948   2.977 -0.8076 -0.8159 -0.4324
  180MOL   H12139859   5.204   6.923   3.233 -0.4472  1.7577 -0.8101
  180MOL   H12239860   5.282   7.107   3.360  1.1010  1.0385  0.2292
  180MOL   C12339861   5.355   7.569   3.178 -0.3302 -0.4694  0.9479
  180MOL   C12439862   5.439   7.459   3.205 -0.1427  0.2060 -0.2901
  180MOL   C12539863   5.416   7.371   3.306  0.0780  0.1432  0.0893
  180MOL   C12639864   5.307   7.392   3.397  0.1062 -0.2582  0.3631
  180MOL   C12739865   5.222   7.504   3.374 -0.0444  0.0488  0.7200
  180MOL   C12839866   5.244   7.592   3.268 -0.3298  0.1540 -0.0779
  180MOL   O12939867   5.152   7.684   3.244  0.2781 -0.6751  0.5637
  180MOL   H13039868   5.374   7.639   3.098  1.5793 -0.0575  1.7304
  180MOL   H13139869   5.526   7.448   3.143 -0.6495  1.0933 -1.1618
  180MOL   H13239870   5.292   7.328   3.483  1.0489  0.1974  0.8637
  180MOL   H13339871   5.137   7.525   3.437 -1.3616  0.2959 -1.1158
  180MOL   C13439872   5.122   7.915   3.536  0.0272 -0.1414  0.1430
  180MOL   C13539873   5.087   7.811   3.440 -0.1794  0.2245 -0.1147
  180MOL   C13639874   5.165   7.789   3.324 -0.1542 -0.9828 -0.1930
  180MOL   C13739875   5.266   7.883   3.299 -0.1466 -0.3708 -0.1146
  180MOL   C13839876   5.301   7.982   3.395 -0.5425 -0.1612  1.0906
  180MOL   C13939877   5.223   8.006   3.507 -0.1866  1.0800 -0.0383
  180MOL   O14039878   5.269   8.100   3.597 -0.0559 -0.0275 -0.3026
  180MOL   H14139879   5.072   7.914   3.632 -0.0723  1.4613  0.1277
  180MOL   H14239880   5.006   7.744   3.462 -0.5644  0.4546 -0.8260
  180MOL   H14339881   5.330   7.869   3.213 -3.0260  1.5144 -2.6788
  180MOL   H14439882   5.393   8.036   3.376  0.7413 -2.9710 -1.1777
  180MOL   C14539883   5.084   0.085   3.802  0.0152 -0.4752  0.2237
  180MOL   C14639884   5.154   8.226   3.763  0.8209  0.4825 -0.2268
  180MOL   C14739885   5.188   8.202   3.628  0.1104 -0.3195  0.2864
  180MOL   C14839886   5.134   0.031   3.532  0.4313  0.0774  0.3237
  180MOL   C14939887   5.054   0.139   3.565  0.7928 -0.2478  0.2055
  180MOL   C15039888   5.032   0.170   3.700  0.4118  0.0935  0.4437
  180MOL   O15139889   4.968   0.286   3.724 -0.4134  0.0290  0.1953
  180MOL   H15239890   5.058   0.110   3.904 -1.1685  1.1438 -0.4492
  180MOL   H15339891   5.194   8.152   3.831  0.3992 -2.2241 -2.8183
  180MOL   H15439892   5.171   0.018   3.431  0.5898 -1.5453  0.5748
  180MOL   H15539893   5.022   0.211   3.492  2.3653  0.4231  0.1566
  180MOL   C15639894   5.119   0.520   3.966 -0.5909 -0.8741 -0.3554
  180MOL   C15739895   5.036   0.421   3.905  0.1136  0.0030  0.1160
  180MOL   C15839896   5.052   0.386   3.768  0.2161  0.3438 -0.0473
  180MOL   C15939897   5.141   0.465   3.690  0.1514  0.5595 -0.5068
  180MOL   C16039898   5.219   0.564   3.750  0.0013  0.6766 -0.0015
  180MOL   C16139899   5.213   0.586   3.886  0.2058  0.0921  0.0304
  180MOL   O16239900   5.306   0.667   3.944 -0.1114 -0.0882  0.1545
  180MOL   H16339901   5.118   0.531   4.074  0.3049 -0.4915 -0.3857
  180MOL   H16439902   4.947   0.384   3.953 -0.4778 -0.9452 -1.6508
  180MOL   H16539903   5.141   0.451   3.583 -2.0845  1.1333 -0.6251
  180MOL   H16639904   5.294   0.614   3.690  0.0511 -1.1585 -1.5105
  180MOL   C16739905   5.256   1.032   3.910  0.9926  0.3129  0.2726
  180MOL   C16839906   5.286   0.894   3.891  1.0883  0.4195  0.2072
  180MOL   C16939907   5.265   0.792   3.981  0.6120 -0.2107  0.1687
  180MOL   C17039908   5.219   0.824   4.110 -0.7519  0.1847  0.3126
  180MOL   C17139909   5.187   0.956   4.135 -0.2446  0.5741  0.5589
  180MOL   C17239910   5.203   1.059   4.036  0.5145  0.2201  0.0312
  180MOL   O17339911   5.176   1.191   4.066 -0.3883  0.0675 -0.1888
  180MOL   H17439912   5.274   1.117   3.846  0.2696  0.0068 -0.3394
  180MOL   H17539913   5.328   0.871   3.794 -0.2382  0.2939 -0.3434
  180MOL   H17639914   5.212   0.736   4.172 -3.0623 -0.6258 -1.0178
  180MOL   H17739915   5.154   0.975   4.236  0.1933  1.9911  0.4462
  180MOL   C17839916   4.918   1.242   4.327 -0.1777  0.4910 -0.6192
  180MOL   C17939917   4.977   1.197   4.207  0.2268 -0.7930 -0.2533
  180MOL   C18039918   5.112   1.221   4.186 -0.3016  0.2899  0.3126
  180MOL   C18139919   5.190   1.285   4.285 -0.0844 -0.4845 -0.0703
  180MOL   C18239920   5.132   1.335   4.399 -1.3015 -0.7420  0.3649
  180MOL   C18339921   4.996   1.310   4.420  0.0127  0.3322 -1.1942
  180MOL   O18439922   4.940   1.348   4.544  0.4383  0.7114  0.4706
  180MOL   H18539923   4.814   1.219   4.349  0.7648 -0.9146  2.7255
  180MOL   H18639924   4.915   1.172   4.123 -0.0823  0.4493 -0.4118
  180MOL   H18739925   5.296   1.285   4.262  0.4325 -2.3165  2.1053
  180MOL   H18839926   5.194   1.391   4.467  0.2800 -0.5470 -1.1948
  180MOL   C18939927   5.041   1.259   4.879 -0.9170  0.2329  0.8194
  180MOL   C19039928   5.008   1.334   4.766 -0.1007 -0.9490 -0.4033
  180MOL   C19139929   4.952   1.271   4.653 -0.4032  0.6893 -0.2939
  180MOL   C19239930   4.938   1.130   4.658 -0.0515 -0.2807  0.0622
  180MOL   C19339931   4.959   1.058   4.776  0.8652 -0.4385  0.1516
  180MOL   C19439932   5.017   1.119   4.883  0.0011 -1.2446 -1.0591
  180MOL   O19539933   5.059   1.056   4.994 -0.1496 -0.4987  0.3502
  180MOL   H19639934   5.081   1.309   4.965 -0.7946  0.4825  0.6189
  180MOL   H19739935   5.048   1.434   4.761 -1.5250 -0.3224  0.1861
  180MOL   H19839936   4.908   1.076   4.570  1.7096  1.2321 -1.5025
  180MOL   H19939937   4.932   0.953   4.778 -1.8691  0.1891 -0.7182
  180MOL   C20039938   4.750   0.987   5.188 -0.1735  0.0497 -0.3922
  180MOL   C20139939   4.836   1.038   5.082 -0.1213 -0.1641 -0.7452
  180MOL   C20239940   4.974   1.017   5.093  0.1034 -0.0602  0.2184
  180MOL   C20339941   5.036   0.969   5.209  0.1046  0.6897 -0.4730
  180MOL   C20439942   4.953   0.924   5.311  0.0998  0.2243 -0.7581
  180MOL   C20539943   4.812   0.927   5.299  0.1483 -0.0763 -0.2617
  180MOL   O20639944   4.728   0.870   5.388 -0.2872  0.4102  0.4021
  180MOL   H20739945   4.643   1.000   5.179 -0.0338  2.0976  0.3938
  180MOL   H20839946   4.781   1.080   5.000  1.4680 -2.7354 -3.2420
  180MOL   H20939947   5.143   0.968   5.223 -0.0524 -1.0068  0.8928
  180MOL   H21039948   4.998   0.870   5.393  1.5403  2.5150 -0.0049
  180MOL   C21139949   4.686   0.534   5.236  0.2210 -0.0885 -0.2599
  180MOL   C21239950   4.687   0.673   5.253  0.1499 -0.2402 -0.1277
  180MOL   C21339951   4.718   0.730   5.380  0.3669  0.0981  0.2941
  180MOL   C21439952   4.729   0.644   5.494 -0.2441 -0.3074 -0.1018
  180MOL   C21539953   4.726   0.501   5.476 -0.0823 -0.5697 -0.5927
  180MOL   C21639954   4.699   0.450   5.349  0.5684 -0.3783  0.1211
  180MOL   O21739955   4.698   0.315   5.332  0.9718  0.3068 -0.4722
  180MOL   H21839956   4.674   0.503   5.133  0.9954  0.0868 -0.4120
  180MOL   H21939957   4.661   0.742   5.174  1.4473 -0.4691 -0.7557
  180MOL   H22039958   4.738   0.680   5.595 -0.1953  1.9535 -0.8755
  180MOL   H22139959   4.744   0.439   5.562  1.6203  0.8670  0.1230
  180MOL   H22239960   4.730   0.279   5.413 -3.1048 -1.9176  0.2859
  181MOL     C139961   2.989   2.512   5.183  0.2702  0.4704 -0.1250
  181MOL     C239962   3.047   2.395   5.226 -0.0993  0.0157  0.0055
  181MOL     C339963   3.083   2.387   5.361  1.3379 -0.3790 -0.1054
  181MOL     C439964   3.052   2.494   5.450  0.7236 -0.1695 -0.1862
  181MOL     C539965   2.995   2.615   5.402  0.2216 -0.3503 -0.7160
  181MOL     C639966   2.969   2.622   5.264  0.3737  0.2447  0.6351
  181MOL     O739967   2.906   2.738   5.214 -0.1587 -0.5709 -0.2329
  181MOL     H839968   2.966   2.510   5.077 -0.6512 -0.7952  0.0868
  181MOL     H939969   3.086   2.322   5.156  1.7148 -0.5247  1.5471
  181MOL    H1039970   3.066   2.489   5.557  0.7950  0.1352 -0.1831
  181MOL    H1139971   2.973   2.701   5.464 -0.2528  0.9652 -2.6810
  181MOL    H1239972   3.130   2.301   5.407 -0.5606 -1.1693  0.4196
  181MOL    C1339973   3.196   2.953   5.126  0.2751 -0.1608  0.0301
  181MOL    C1439974   3.116   2.839   5.146  0.5535  0.0520 -0.3351
  181MOL    C1539975   2.983   2.845   5.182 -0.6656 -0.4965  0.1143
  181MOL    C1639976   2.920   2.969   5.194  0.3727 -0.0840  0.0202
  181MOL    C1739977   2.997   3.085   5.171 -0.2929  0.1853  0.2680
  181MOL    C1839978   3.131   3.078   5.130 -0.1258 -0.7977  0.0957
  181MOL    O1939979   3.208   3.190   5.125  0.1161  0.5493 -0.1240
  181MOL    H2039980   3.302   2.947   5.107  0.4378 -0.6096  1.0692
  181MOL    H2139981   3.163   2.742   5.141  3.9718  1.5739  0.4731
  181MOL    H2239982   2.818   2.972   5.231  1.0944 -2.2899  2.2764
  181MOL    H2339983   2.964   3.188   5.169  1.6737  0.8279 -2.5871
  181MOL    C2439984   3.460   3.297   4.886  0.0807 -0.4988 -0.2751
  181MOL    C2539985   3.398   3.266   5.005 -0.1033 -0.4497 -0.6249
  181MOL    C2639986   3.262   3.223   5.001 -0.1966 -0.8575  0.1421
  181MOL    C2739987   3.187   3.224   4.882  0.7865 -0.2162 -0.1606
  181MOL    C2839988   3.255   3.250   4.760 -0.4555 -0.3360 -0.2552
  181MOL    C2939989   3.392   3.295   4.765 -0.0374  0.5609 -0.6552
  181MOL    O3039990   3.455   3.332   4.652 -0.0153 -0.3470  0.2076
  181MOL    H3139991   3.563   3.327   4.895  0.4239 -1.0547 -2.1842
  181MOL    H3239992   3.442   3.274   5.103  0.7437  0.3103 -1.0574
  181MOL    H3339993   3.080   3.212   4.886  0.7556  0.0090 -0.3234
  181MOL    H3439994   3.206   3.260   4.664 -0.1478 -1.2358 -0.5149
  181MOL    C3539995   3.684   3.046   4.591 -0.2347 -0.1015 -0.0073
  181MOL    C3639996   3.566   3.120   4.607 -0.4504  0.7090 -0.1463
  181MOL    C3739997   3.570   3.263   4.623  0.1776  0.3669  0.2456
  181MOL    C3839998   3.697   3.327   4.623 -0.6783  0.5652  0.0423
  181MOL    C3939999   3.814   3.254   4.586 -0.5503  0.1161  0.0905
  181MOL    C4040000   3.805   3.115   4.575 -0.5208 -0.1558 -0.1190
  181MOL    O4140001   3.917   3.044   4.537 -0.4449 -0.1077  0.2931
  181MOL    H4240002   3.677   2.938   4.594 -2.0098 -0.1000 -2.3215
  181MOL    H4340003   3.471   3.069   4.608  0.7994 -1.7639  3.0749
  181MOL    H4440004   3.697   3.435   4.631  1.4948  0.3930  3.4075
  181MOL    H4540005   3.912   3.299   4.584 -1.1469  1.4622  0.9514
  181MOL    C4640006   4.000   3.023   4.174  0.2265 -0.5378 -0.3574
  181MOL    C4740007   3.978   3.075   4.305  0.2470 -0.5122 -0.4595
  181MOL    C4840008   3.937   2.990   4.410  0.2699 -0.3201  0.4431
  181MOL    C4940009   3.902   2.857   4.385  0.3057 -0.2088 -0.0839
  181MOL    C5040010   3.917   2.803   4.254 -0.7260 -0.7490 -0.1954
  181MOL    C5140011   3.970   2.887   4.151 -0.7261 -0.1486 -0.6792
  181MOL    O5240012   4.001   2.846   4.026 -0.1469  0.5777  0.1809
  181MOL    H5340013   4.035   3.089   4.096  1.4651 -1.3634 -0.5137
  181MOL    H5440014   4.004   3.177   4.329 -0.2589 -0.3924 -0.4313
  181MOL    H5540015   3.863   2.797   4.466  0.9187 -2.3441 -1.3303
  181MOL    H5640016   3.898   2.699   4.232 -0.4951 -1.5398  3.0249
  181MOL    C5740017   3.719   2.758   3.820 -0.2708  0.0186 -0.0819
  181MOL    C5840018   3.815   2.833   3.885  0.1281  0.0585  0.6281
  181MOL    C5940019   3.912   2.769   3.957  0.0434 -0.1195  0.2383
  181MOL    C6040020   3.925   2.628   3.960 -0.4800  0.1164 -0.8562
  181MOL    C6140021   3.832   2.550   3.887 -0.6019 -0.4328 -0.0031
  181MOL    C6240022   3.730   2.615   3.814  0.1531  0.9266 -0.3729
  181MOL    O6340023   3.634   2.535   3.755 -0.6901 -0.2735  0.2562
  181MOL    H6440024   3.645   2.822   3.774  0.7275 -0.0336 -1.8220
  181MOL    H6540025   3.802   2.939   3.902 -3.6699 -0.4178  1.3215
  181MOL    H6640026   4.005   2.579   4.014 -1.1798  2.4206  2.4510
  181MOL    H6740027   3.842   2.443   3.886  2.3876 -0.1837  0.0716
  181MOL    C6840028   3.452   2.661   3.451 -0.2478  0.1087 -0.0952
  181MOL    C6940029   3.557   2.598   3.535  0.7574  0.3288  0.7635
  181MOL    C7040030   3.545   2.600   3.672  0.9216  0.1381  0.7331
  181MOL    C7140031   3.432   2.666   3.729  0.9923 -0.9958  0.1292
  181MOL    C7240032   3.327   2.722   3.652  0.5573 -0.0602 -0.1122
  181MOL    C7340033   3.344   2.725   3.508 -0.0113 -0.4247  0.0260
  181MOL    O7440034   3.256   2.785   3.427  0.8403 -0.1581 -0.4532
  181MOL    H7540035   3.461   2.668   3.344  0.4291 -1.8845 -0.1877
  181MOL    H7640036   3.638   2.544   3.488 -0.3927 -1.1247  0.4100
  181MOL    H7740037   3.431   2.683   3.835 -1.1392  0.7628 -0.1298
  181MOL    H7840038   3.246   2.774   3.701 -1.6297 -1.4161 -2.1422
  181MOL    C7940039   2.909   2.666   3.458  0.0793 -0.3839  0.3714
  181MOL    C8040040   3.050   2.659   3.444  0.5922  0.0859 -0.4023
  181MOL    C8140041   3.126   2.782   3.463  0.2133 -0.1731  0.2764
  181MOL    C8240042   3.054   2.901   3.492  0.0387  0.1079  0.1918
  181MOL    C8340043   2.913   2.904   3.507  0.8464 -0.2121 -0.9714
  181MOL    C8440044   2.843   2.788   3.490  0.1928 -0.0749 -0.4733
  181MOL    O8540045   2.710   2.788   3.505 -0.0532  0.0848  0.4143
  181MOL    H8640046   2.849   2.580   3.432  1.3925 -0.5266 -2.4059
  181MOL    H8740047   3.091   2.566   3.406 -2.5487 -1.1765 -0.7851
  181MOL    H8840048   3.113   2.986   3.520  1.9369 -0.3321 -2.2647
  181MOL    H8940049   2.861   2.994   3.537 -0.1954  0.5666 -4.7657
  181MOL    C9040050   2.614   2.583   3.795  0.9126  0.4930 -0.3790
  181MOL    C9140051   2.655   2.617   3.668 -0.1283  0.5278  0.3486
  181MOL    C9240052   2.668   2.755   3.630  0.1067 -0.0916  0.4252
  181MOL    C9340053   2.613   2.859   3.715 -0.4970 -0.3743 -0.4173
  181MOL    C9440054   2.573   2.825   3.846 -0.0889  0.0195  0.2283
  181MOL    C9540055   2.572   2.689   3.884  0.6857  1.0756 -0.0200
  181MOL    O9640056   2.525   2.655   4.014  0.4810 -0.1580  0.3093
  181MOL    H9740057   2.611   2.479   3.822 -1.3214  1.0274  1.6003
  181MOL    H9840058   2.697   2.539   3.606 -1.2481  0.5127 -0.3993
  181MOL    H9940059   2.617   2.961   3.681 -0.2482 -1.0301 -2.4237
  181MOL   H10040060   2.530   2.901   3.910 -0.9426  0.8548 -1.3206
  181MOL   C10140061   2.701   2.848   4.279  0.0830 -0.2506  0.0216
  181MOL   C10240062   2.682   2.771   4.160 -0.5603 -0.4487 -0.3471
  181MOL   C10340063   2.552   2.748   4.118  0.1612  0.5532 -0.2005
  181MOL   C10440064   2.438   2.811   4.180 -0.5744 -0.1658  0.0373
  181MOL   C10540065   2.459   2.902   4.286  0.0945 -0.0715  0.0298
  181MOL   C10640066   2.591   2.914   4.343  0.6457  0.1042 -0.6768
  181MOL   O10740067   2.617   2.981   4.461  0.1875  0.2567 -0.3387
  181MOL   H10840068   2.801   2.863   4.318  0.1014  0.9403 -0.4399
  181MOL   H10940069   2.761   2.707   4.123 -0.0989 -0.3895  0.5317
  181MOL   H11040070   2.339   2.797   4.140  0.0288  0.6728 -1.8301
  181MOL   H11140071   2.373   2.959   4.316 -0.6761 -0.8615 -0.6377
  181MOL   C11240072   2.317   3.052   4.663  0.2203  1.3056 -0.0870
  181MOL   C11340073   2.437   2.994   4.621  0.4737 -0.2111 -0.8104
  181MOL   C11440074   2.516   3.051   4.520  0.4796 -1.2602 -0.1775
  181MOL   C11540075   2.484   3.178   4.465  0.5047  0.3795  0.3237
  181MOL   C11640076   2.357   3.235   4.504 -1.0992  0.1775  0.0242
  181MOL   C11740077   2.275   3.170   4.603 -0.3054  0.1864  0.6209
  181MOL   O11840078   2.155   3.226   4.646 -0.6637  0.6464 -0.5093
  181MOL   H11940079   2.268   2.996   4.741 -0.1367  0.0719 -1.1813
  181MOL   H12040080   2.471   2.902   4.666  3.8019  1.7139  0.8329
  181MOL   H12140081   2.532   3.218   4.377 -1.1889  2.3167  0.2492
  181MOL   H12240082   2.316   3.315   4.445 -0.8179  0.1832 -0.1670
  181MOL   C12340083   1.893   3.400   4.434 -0.0685  0.2743  0.3472
  181MOL   C12440084   1.980   3.380   4.544 -0.3654  0.4825 -0.5728
  181MOL   C12540085   2.059   3.258   4.545 -0.5927  0.0807  0.0377
  181MOL   C12640086   2.037   3.153   4.449  0.6556  0.7725 -0.4597
  181MOL   C12740087   1.949   3.180   4.339 -0.4379 -0.6907 -0.1774
  181MOL   C12840088   1.872   3.299   4.337  0.3196 -0.5788 -0.2522
  181MOL   O12940089   1.799   3.313   4.217 -0.1228 -0.2603 -0.5702
  181MOL   H13040090   1.848   3.497   4.420 -1.7458 -0.3151  1.5316
  181MOL   H13140091   1.990   3.457   4.619 -1.1495  0.0072  0.0217
  181MOL   H13240092   2.094   3.062   4.446  1.4866  1.3100 -0.9167
  181MOL   H13340093   1.950   3.100   4.266 -1.1599 -0.3326 -0.5756
  181MOL   C13440094   1.940   3.582   4.012 -0.4770 -0.2772 -0.6520
  181MOL   C13540095   1.936   3.462   4.090  0.5906  0.3086  0.7002
  181MOL   C13640096   1.814   3.431   4.153  0.2957 -0.3642 -0.1479
  181MOL   C13740097   1.711   3.521   4.162 -0.1207 -0.8517 -0.1784
  181MOL   C13840098   1.718   3.648   4.096 -0.2785  0.4890 -0.8283
  181MOL   C13940099   1.831   3.672   4.011  0.3984  0.5870  0.1258
  181MOL   O14040100   1.840   3.793   3.938  0.0293 -0.1567 -0.0463
  181MOL   H14140101   2.032   3.615   3.965 -0.0241 -1.0673 -0.3355
  181MOL   H14240102   2.024   3.402   4.106  0.5287  0.2755  0.9180
  181MOL   H14340103   1.624   3.492   4.219  0.4648 -0.2425  1.0381
  181MOL   H14440104   1.634   3.716   4.102  0.7268  1.8125 -1.5761
  181MOL   C14540105   1.666   3.734   3.609  0.2418  0.2544 -0.2769
  181MOL   C14640106   1.735   3.702   3.729 -0.3299  0.4526  0.3340
  181MOL   C14740107   1.768   3.807   3.821 -0.0206 -0.0550  0.2454
  181MOL   C14840108   1.725   3.938   3.791  0.1564  0.1844  0.3798
  181MOL   C14940109   1.645   3.961   3.677 -0.1118  0.0162 -0.5946
  181MOL   C15040110   1.630   3.864   3.578 -0.5127 -0.7439 -0.1134
  181MOL   O15140111   1.576   3.896   3.451  0.0512 -0.3017  0.8486
  181MOL   H15240112   1.639   3.657   3.539 -3.2787 -0.7867  2.1221
  181MOL   H15340113   1.763   3.599   3.747 -0.7736 -0.1548 -2.2468
  181MOL   H15440114   1.737   4.023   3.857 -1.2001  0.0394  0.8212
  181MOL   H15540115   1.605   4.061   3.665 -1.0751 -0.2727  0.1416
  181MOL   C15640116   1.781   4.170   3.314  0.1048  0.0718 -0.4511
  181MOL   C15740117   1.674   4.097   3.377 -0.4588 -0.0365  0.5459
  181MOL   C15840118   1.670   3.957   3.373  0.0838  0.9344 -0.4649
  181MOL   C15940119   1.767   3.886   3.303  0.0988  0.8294  0.7042
  181MOL   C16040120   1.863   3.960   3.233 -0.1555 -0.1675  0.1516
  181MOL   C16140121   1.869   4.099   3.232 -0.2333 -0.2972  0.1346
  181MOL   O16240122   1.949   4.165   3.148  0.0972  0.2993  0.0143
  181MOL   H16340123   1.783   4.278   3.310 -0.8738  0.0641 -1.1384
  181MOL   H16440124   1.600   4.154   3.431  2.3072  1.9682  2.4029
  181MOL   H16540125   1.775   3.779   3.294 -0.2120  0.8098  0.6553
  181MOL   H16640126   1.936   3.904   3.176 -1.3190 -1.8745  0.2873
  181MOL   C16740127   2.244   4.226   3.353  1.1812 -0.3168 -0.3470
  181MOL   C16840128   2.121   4.246   3.285  0.0403  0.2948  0.2113
  181MOL   C16940129   2.079   4.162   3.187 -0.0041 -0.1648 -0.1904
  181MOL   C17040130   2.169   4.060   3.144 -0.2818 -0.2002  0.4781
  181MOL   C17140131   2.299   4.049   3.191 -0.0596  0.3511 -0.6085
  181MOL   C17240132   2.334   4.128   3.299 -0.4954 -0.3710 -0.2813
  181MOL   O17340133   2.462   4.111   3.345 -0.1086 -0.5567  0.1888
  181MOL   H17440134   2.270   4.305   3.423 -0.3500  0.0418 -0.1734
  181MOL   H17540135   2.058   4.328   3.314  1.0806  1.0537  0.3767
  181MOL   H17640136   2.140   3.999   3.061  1.3483  0.6289 -0.7319
  181MOL   H17740137   2.361   3.973   3.145  0.3448 -1.8868  3.3686
  181MOL   C17840138   2.473   4.068   3.714 -0.3409 -0.3216  0.0453
  181MOL   C17940139   2.453   4.044   3.574  0.3694 -0.0204 -0.2294
  181MOL   C18040140   2.489   4.135   3.477  0.0780  0.5029 -0.4576
  181MOL   C18140141   2.560   4.246   3.523 -0.4794 -1.3838 -0.4593
  181MOL   C18240142   2.582   4.280   3.659  0.2412  0.2432 -0.1734
  181MOL   C18340143   2.542   4.187   3.756  0.5171  0.2137 -0.6054
  181MOL   O18440144   2.567   4.200   3.890 -0.3467  0.4778 -0.1433
  181MOL   H18540145   2.439   3.993   3.783  0.6435 -0.6620  0.1527
  181MOL   H18640146   2.390   3.960   3.550  3.5327 -1.8188 -2.6818
  181MOL   H18740147   2.600   4.310   3.446  0.6049  1.4441  2.3447
  181MOL   H18840148   2.630   4.368   3.697 -1.1365  1.4140 -1.0920
  181MOL   C18940149   2.270   4.300   4.078 -0.7981 -0.4370  0.0058
  181MOL   C19040150   2.361   4.297   3.973 -0.1440  0.4733  0.1753
  181MOL   C19140151   2.450   4.187   3.966  0.1502  0.0446 -0.0892
  181MOL   C19240152   2.437   4.080   4.060  0.6187 -0.1319 -0.2967
  181MOL   C19340153   2.334   4.079   4.155 -0.6607 -0.3181  0.1481
  181MOL   C19440154   2.261   4.196   4.169  0.3295  0.0900  0.0007
  181MOL   O19540155   2.176   4.208   4.275 -0.4206 -0.4324  0.8945
  181MOL   H19640156   2.205   4.386   4.081  1.4347  1.3061 -0.0332
  181MOL   H19740157   2.362   4.376   3.899 -2.3806  1.9412  1.6738
  181MOL   H19840158   2.505   3.996   4.060 -1.4301 -1.8427  0.3539
  181MOL   H19940159   2.314   3.998   4.224 -3.6226  2.0254  2.1837
  181MOL   C20040160   2.359   4.401   4.519  0.1427  0.3702 -0.6296
  181MOL   C20140161   2.303   4.367   4.403  0.2723 -0.1665 -0.7141
  181MOL   C20240162   2.233   4.244   4.390  0.2874 -0.0485  0.5583
  181MOL   C20340163   2.203   4.171   4.507 -0.4691  0.2674 -0.2105
  181MOL   C20440164   2.264   4.201   4.628 -0.5883 -0.1306  1.2220
  181MOL   C20540165   2.348   4.316   4.632  0.1390 -0.4339 -0.7744
  181MOL   O20640166   2.403   4.350   4.755  0.3710 -0.1589  0.6360
  181MOL   H20740167   2.407   4.498   4.520  1.0325 -0.0669 -0.1103
  181MOL   H20840168   2.302   4.437   4.320  1.1615  0.3443 -0.3007
  181MOL   H20940169   2.140   4.083   4.507  1.0501 -0.8958 -2.9267
  181MOL   H21040170   2.246   4.148   4.721 -3.9934 -3.1428 -1.0181
  181MOL   C21140171   2.473   4.677   4.919 -0.3577 -0.1327 -0.1973
  181MOL   C21240172   2.497   4.551   4.856  0.3227 -0.0632 -0.4946
  181MOL   C21340173   2.383   4.480   4.803  0.6184 -0.2561 -0.0167
  181MOL   C21440174   2.254   4.534   4.803 -0.3331  0.3317 -0.6486
  181MOL   C21540175   2.239   4.660   4.855 -0.5309 -0.8555 -0.2582
  181MOL   C21640176   2.344   4.729   4.917 -0.3381 -0.5500  0.2049
  181MOL   O21740177   2.316   4.847   4.984  0.0449  0.1992  0.5704
  181MOL   H21840178   2.552   4.734   4.966 -0.4495  0.2927 -0.5592
  181MOL   H21940179   2.593   4.501   4.859  0.2068 -0.2217  2.4619
  181MOL   H22040180   2.177   4.472   4.760  0.5864 -1.3745  0.1036
  181MOL   H22140181   2.144   4.710   4.849 -1.0640 -1.5845  1.6927
  181MOL   H22240182   2.224   4.865   4.992 -0.2178 -0.4779 -0.8596
  182MOL     C140183   3.056   2.891   1.041 -0.4039 -0.0478  0.0761
  182MOL     C240184   3.013   2.800   0.939  0.2478 -0.3488  0.2926
  182MOL     C340185   2.881   2.801   0.896  0.1642  0.6884 -0.1356
  182MOL     C440186   2.782   2.879   0.961  0.4227 -0.2505 -0.0866
  182MOL     C540187   2.826   2.961   1.070 -0.1336 -0.1655  0.5909
  182MOL     C640188   2.961   2.972   1.105  0.1213 -0.4015  0.4424
  182MOL     O740189   3.000   3.061   1.206 -0.0705 -0.0778 -0.1530
  182MOL     H840190   3.157   2.893   1.079  0.3680 -0.5067 -1.8805
  182MOL     H940191   3.093   2.740   0.897 -1.7940 -1.8701 -1.5517
  182MOL    H1040192   2.683   2.870   0.919 -0.4044  0.5527  1.6667
  182MOL    H1140193   2.760   3.025   1.126  0.9819  1.9556 -0.4554
  182MOL    H1240194   2.862   2.745   0.805  0.5064 -2.1158  1.4786
  182MOL    C1340195   3.219   2.970   1.484 -0.2539 -0.0341  0.0603
  182MOL    C1440196   3.181   3.024   1.360 -0.2789 -0.5746 -0.0113
  182MOL    C1540197   3.042   3.018   1.329  0.6423  0.4901  0.3485
  182MOL    C1640198   2.943   2.969   1.426  0.0281  0.2147 -0.0215
  182MOL    C1740199   2.990   2.916   1.548 -0.0962  0.8098  0.6010
  182MOL    C1840200   3.129   2.913   1.576 -0.1421  0.0123  0.3048
  182MOL    O1940201   3.176   2.847   1.687 -0.0830  0.2713 -0.0307
  182MOL    H2040202   3.325   2.963   1.504  0.4013  1.3759 -2.6263
  182MOL    H2140203   3.252   3.073   1.294 -3.2788  3.7812 -0.2124
  182MOL    H2240204   2.837   2.986   1.413 -0.0481  0.6661  1.1986
  182MOL    H2340205   2.927   2.867   1.621 -0.0149  1.7889  1.3548
  182MOL    C2440206   3.379   2.553   1.762  0.7443 -0.6782 -1.0377
  182MOL    C2540207   3.329   2.683   1.773 -0.0854  0.1553 -0.1544
  182MOL    C2640208   3.230   2.724   1.678  0.3758  0.6267  0.6735
  182MOL    C2740209   3.191   2.635   1.573 -0.2204 -0.0063  0.8009
  182MOL    C2840210   3.254   2.515   1.553  0.0622 -0.5175  0.5644
  182MOL    C2940211   3.342   2.471   1.656 -0.0314  0.7660 -0.2534
  182MOL    O3040212   3.391   2.338   1.667  0.1910 -0.4164 -0.4084
  182MOL    H3140213   3.444   2.513   1.838 -0.2521  1.6483  1.0938
  182MOL    H3240214   3.360   2.756   1.847 -1.0821 -0.9467  1.3743
  182MOL    H3340215   3.108   2.662   1.509 -0.3837  2.3238  1.9407
  182MOL    H3440216   3.226   2.453   1.470 -2.7733  0.8157  0.4525
  182MOL    C3540217   3.468   2.166   1.349 -0.2405 -0.2801  0.4283
  182MOL    C3640218   3.475   2.264   1.453  0.5915  0.4728  0.4460
  182MOL    C3740219   3.389   2.253   1.561  0.3269  1.0781  0.5230
  182MOL    C3840220   3.286   2.146   1.561 -0.9511  1.3536 -0.1701
  182MOL    C3940221   3.284   2.054   1.458 -0.5737  0.1535  0.4372
  182MOL    C4040222   3.371   2.066   1.352  0.2253  0.0513  0.6407
  182MOL    O4140223   3.360   1.979   1.241 -0.2101 -0.7031 -0.5649
  182MOL    H4240224   3.539   2.160   1.268 -1.7353  0.1843 -0.9195
  182MOL    H4340225   3.557   2.334   1.445 -0.8647  2.0326 -1.4067
  182MOL    H4440226   3.222   2.134   1.647 -0.4034 -0.6455 -0.0058
  182MOL    H4540227   3.211   1.974   1.454 -0.0212 -0.4047  1.3809
  182MOL    C4640228   3.129   2.174   1.023  0.5158 -0.4118  0.9451
  182MOL    C4740229   3.174   2.101   1.137 -0.0438  0.2318 -0.8964
  182MOL    C4840230   3.302   2.036   1.132 -0.4559 -0.1842  0.0885
  182MOL    C4940231   3.369   2.019   1.009 -0.7075  0.1786  0.6285
  182MOL    C5040232   3.317   2.081   0.900  0.2385  0.1839 -0.8068
  182MOL    C5140233   3.198   2.157   0.900 -0.3352  0.0533  0.9865
  182MOL    O5240234   3.151   2.210   0.780  0.0993 -0.2037  0.4010
  182MOL    H5340235   3.039   2.233   1.022  1.0168  0.3931  1.8912
  182MOL    H5440236   3.107   2.091   1.221  1.4524 -3.9937 -0.1008
  182MOL    H5540237   3.463   1.968   0.997 -0.1400  1.6911 -1.4866
  182MOL    H5640238   3.358   2.064   0.802  1.6357 -1.6913  0.0402
  182MOL    C5740239   3.379   2.471   0.662  0.2273  0.7416  0.2100
  182MOL    C5840240   3.326   2.348   0.691 -0.5370 -0.8316  0.0975
  182MOL    C5940241   3.201   2.334   0.746  0.3900  0.6279 -0.0802
  182MOL    C6040242   3.116   2.446   0.752 -0.6688 -0.0793 -1.2283
  182MOL    C6140243   3.164   2.573   0.700  0.3189  0.0838 -0.0631
  182MOL    C6240244   3.299   2.588   0.664  0.2267  0.0352  0.5776
  182MOL    O6340245   3.356   2.709   0.626  0.4240 -0.7432 -0.1023
  182MOL    H6440246   3.476   2.474   0.615 -0.2658  2.4441 -0.7491
  182MOL    H6540247   3.386   2.260   0.674  1.2208  0.5279 -0.7453
  182MOL    H6640248   3.016   2.429   0.789  0.1851  1.2576  1.8349
  182MOL    H6740249   3.102   2.661   0.687 -1.0072 -0.8644 -0.2034
  182MOL    C6840250   3.333   2.995   0.850 -0.0602 -0.2080  0.2384
  182MOL    C6940251   3.297   2.905   0.750  0.4128  0.6186  0.9834
  182MOL    C7040252   3.382   2.798   0.731 -0.2857 -0.4679 -0.0690
  182MOL    C7140253   3.497   2.779   0.808  0.4391 -0.2489  0.4179
  182MOL    C7240254   3.527   2.871   0.910 -0.6502  0.0583  0.2363
  182MOL    C7340255   3.447   2.981   0.932  0.0628 -0.1418 -0.6604
  182MOL    O7440256   3.472   3.077   1.029 -0.0671  0.4446  0.4273
  182MOL    H7540257   3.277   3.086   0.864  0.6468  0.2724  0.0129
  182MOL    H7640258   3.214   2.922   0.683  0.4842 -2.5940  0.0088
  182MOL    H7740259   3.554   2.692   0.782  0.1973  0.0020 -0.9872
  182MOL    H7840260   3.614   2.865   0.974 -1.3789 -3.3125  1.0183
  182MOL    C7940261   3.597   3.380   0.851  0.0120 -0.3696  0.5369
  182MOL    C8040262   3.512   3.272   0.894  0.3643 -0.1986  0.2187
  182MOL    C8140263   3.553   3.185   0.993 -0.4293 -0.1205 -0.7690
  182MOL    C8240264   3.675   3.209   1.061  0.2827  0.4417  0.0600
  182MOL    C8340265   3.758   3.318   1.032 -0.2651  0.2843  0.7882
  182MOL    C8440266   3.722   3.397   0.917  0.3637 -0.1257  0.4491
  182MOL    O8540267   3.807   3.498   0.873  0.4020 -0.1722 -0.4029
  182MOL    H8640268   3.553   3.448   0.779  0.5727 -1.3478 -0.7737
  182MOL    H8740269   3.415   3.267   0.847  1.6696  0.0421 -2.6046
  182MOL    H8840270   3.707   3.138   1.136  0.6242 -0.9390 -1.3651
  182MOL    H8940271   3.849   3.339   1.088  1.5264 -1.4230 -1.4053
  182MOL    C9040272   4.087   3.632   1.093 -0.4658 -0.0371  0.4465
  182MOL    C9140273   3.962   3.617   1.029 -0.2977  0.2446 -0.0504
  182MOL    C9240274   3.931   3.520   0.931 -0.2198 -0.3006 -0.3297
  182MOL    C9340275   4.037   3.429   0.894  0.3870 -0.4452  0.0895
  182MOL    C9440276   4.164   3.445   0.954  0.1747  0.1021 -0.1497
  182MOL    C9540277   4.193   3.541   1.056 -0.1997  0.1316  0.2843
  182MOL    O9640278   4.317   3.560   1.114 -0.2469 -0.3831 -0.2192
  182MOL    H9740279   4.098   3.703   1.173  0.9370  0.4466 -0.1576
  182MOL    H9840280   3.884   3.686   1.057 -0.4354  0.9454 -2.1157
  182MOL    H9940281   4.022   3.357   0.815  0.4854 -0.9586  0.5410
  182MOL   H10040282   4.235   3.376   0.912 -1.2801 -1.1623 -0.5587
  182MOL   C10140283   4.623   3.568   0.922  0.0885 -0.6380  0.2125
  182MOL   C10240284   4.521   3.535   1.003 -0.1089  0.4163 -0.7078
  182MOL   C10340285   4.418   3.616   1.042 -0.2384  0.2034 -0.0808
  182MOL   C10440286   4.408   3.745   0.987 -0.6354 -0.1570  0.0834
  182MOL   C10540287   4.511   3.785   0.895 -0.7190 -0.0396  0.0690
  182MOL   C10640288   4.618   3.696   0.866  1.1855 -1.1021  0.2903
  182MOL   O10740289   4.709   3.732   0.774 -0.1411 -0.0796  0.1656
  182MOL   H10840290   4.707   3.501   0.911 -0.5787 -1.5796  0.7183
  182MOL   H10940291   4.529   3.438   1.049 -0.7248  0.2325 -0.9803
  182MOL   H11040292   4.317   3.801   0.999 -1.6912 -1.5111 -1.3988
  182MOL   H11140293   4.503   3.879   0.843  2.2142  0.6551  0.8122
  182MOL   C11240294   5.014   3.908   0.873 -0.8254  0.0263 -0.1643
  182MOL   C11340295   4.912   3.808   0.871 -0.3714  0.0429 -0.0902
  182MOL   C11440296   4.792   3.837   0.803 -0.2740  0.4309 -0.1180
  182MOL   C11540297   4.769   3.967   0.747 -0.6204 -0.1973 -0.4622
  182MOL   C11640298   4.870   4.069   0.766  0.7834 -0.0212 -0.1720
  182MOL   C11740299   4.994   4.038   0.827  0.6308 -0.6782 -0.2846
  182MOL   O11840300   5.091   4.134   0.855  0.1764 -0.4728 -0.1560
  182MOL   H11940301   5.110   3.885   0.917 -1.5632 -3.2461 -0.1776
  182MOL   H12040302   4.915   3.706   0.906  0.4928  0.5316  1.3107
  182MOL   H12140303   4.681   3.993   0.690  0.8684  2.5281 -1.6378
  182MOL   H12240304   4.846   4.167   0.728 -1.9572 -0.4452  0.3711
  182MOL   C12340305   5.046   4.496   0.844  0.1504  0.1143 -0.8939
  182MOL   C12440306   5.044   4.361   0.894  0.9084  0.8434  0.3485
  182MOL   C12540307   5.066   4.256   0.801  0.5546 -0.3521  0.9080
  182MOL   C12640308   5.071   4.287   0.663 -0.0261 -0.3757 -0.2851
  182MOL   C12740309   5.077   4.414   0.618  0.8921 -0.1853  1.1238
  182MOL   C12840310   5.071   4.520   0.709  0.6211  0.0301  0.2833
  182MOL   O12940311   5.087   4.651   0.672 -0.2117  0.5381 -0.2477
  182MOL   H13040312   5.033   4.581   0.910 -1.1981 -0.1231 -0.8573
  182MOL   H13140313   5.050   4.341   0.999 -1.0330  0.0454  0.3291
  182MOL   H13240314   5.079   4.210   0.587 -0.2545  1.7416 -2.5231
  182MOL   H13340315   5.087   4.421   0.511  0.7649  0.8233  1.1727
  182MOL   C13440316   4.847   4.712   0.390 -0.5766 -1.1353  0.3601
  182MOL   C13540317   4.905   4.680   0.512  0.4935  0.1756 -0.0116
  182MOL   C13640318   5.045   4.692   0.542  0.1301  0.9291 -0.6950
  182MOL   C13740319   5.125   4.732   0.434 -0.0779 -0.1027  0.2322
  182MOL   C13840320   5.070   4.771   0.314  1.0508 -0.5910  0.4834
  182MOL   C13940321   4.931   4.768   0.292  0.7579  0.3244  0.3082
  182MOL   O14040322   4.879   4.824   0.177 -0.1731 -0.4488  0.2294
  182MOL   H14140323   4.739   4.712   0.386 -0.6976  0.6969  2.7931
  182MOL   H14240324   4.828   4.641   0.577 -2.1443  1.2933 -2.3602
  182MOL   H14340325   5.231   4.722   0.453 -0.2836 -4.2804 -0.4398
  182MOL   H14440326   5.132   4.816   0.238  0.9593 -0.9652  0.1862
  182MOL   C14540327   4.732   5.156   0.255  0.0506  0.0746  0.6977
  182MOL   C14640328   4.822   5.049   0.265  0.2847  0.4259  0.2505
  182MOL   C14740329   4.790   4.930   0.195  0.2461 -0.0342 -1.0847
  182MOL   C14840330   4.674   4.930   0.113  0.2619 -0.6754 -0.7789
  182MOL   C14940331   4.585   5.038   0.115  0.0556  0.3956  0.3161
  182MOL   C15040332   4.613   5.151   0.188  0.1612 -0.0339  1.2058
  182MOL   O15140333   4.528   5.259   0.164 -0.5806 -0.1979 -0.4409
  182MOL   H15240334   4.772   5.246   0.299 -0.4671  0.0329  1.2562
  182MOL   H15340335   4.921   5.061   0.305 -0.4899  2.0301  1.7433
  182MOL   H15440336   4.639   4.843   0.059 -2.3194 -0.4651  0.4854
  182MOL   H15540337   4.500   5.028   0.048  0.4082 -2.6678  0.2310
  182MOL   C15640338   4.195   5.198   0.321  0.2677  0.4677 -0.1920
  182MOL   C15740339   4.309   5.175   0.243 -0.2039 -0.3346 -0.1798
  182MOL   C15840340   4.411   5.269   0.241  0.3438  0.1026 -0.0024
  182MOL   C15940341   4.389   5.396   0.307  0.4333  0.1044 -0.1064
  182MOL   C16040342   4.271   5.422   0.379 -0.0389  0.8008  0.2166
  182MOL   C16140343   4.180   5.315   0.398  0.0811 -0.1213 -0.3199
  182MOL   O16240344   4.080   5.328   0.490  0.3497  0.2646  0.7010
  182MOL   H16340345   4.122   5.121   0.338 -0.9468  1.3737 -1.1361
  182MOL   H16440346   4.331   5.080   0.196  0.3048 -0.0934 -0.4391
  182MOL   H16540347   4.452   5.483   0.290 -0.3976  0.5505 -0.9564
  182MOL   H16640348   4.254   5.511   0.437 -1.6561  1.0029 -0.5512
  182MOL   C16740349   3.853   5.617   0.411 -0.1779 -0.2149  0.2733
  182MOL   C16840350   3.959   5.540   0.465  0.2880  0.5878  0.1039
  182MOL   C16940351   3.968   5.401   0.446  0.2299 -0.6011 -0.3133
  182MOL   C17040352   3.864   5.338   0.370  0.6113  0.4308  0.3199
  182MOL   C17140353   3.759   5.410   0.316  0.1171 -0.3945  0.6074
  182MOL   C17240354   3.753   5.548   0.336  0.1671  0.3896 -0.2643
  182MOL   O17340355   3.647   5.619   0.286 -0.3161 -0.4171 -0.1314
  182MOL   H17440356   3.848   5.724   0.423 -1.6267 -0.2343 -0.0374
  182MOL   H17540357   4.026   5.600   0.525  1.8117  0.1138 -1.1075
  182MOL   H17640358   3.866   5.238   0.328 -1.1498  1.4847 -2.4524
  182MOL   H17740359   3.686   5.374   0.245 -1.9789 -0.1366  2.5757
  182MOL   C17840360   3.659   5.946   0.131  0.6352 -0.1362  0.1523
  182MOL   C17940361   3.659   5.845   0.226 -0.0476 -0.1130 -0.3985
  182MOL   C18040362   3.657   5.710   0.186  0.2605  0.0151 -0.8285
  182MOL   C18140363   3.640   5.669   0.051  0.5383 -0.4048 -0.1561
  182MOL   C18240364   3.652   5.776   8.205 -1.1036  0.4925 -0.3228
  182MOL   C18340365   3.661   5.912   8.246  0.3399 -0.1633 -0.6978
  182MOL   O18440366   3.655   6.010   8.156  0.6443 -0.0844 -0.0560
  182MOL   H18540367   3.667   6.045   0.173 -0.9821 -1.0072  2.6598
  182MOL   H18640368   3.666   5.877   0.329  1.3984 -0.7409 -0.2943
  182MOL   H18740369   3.635   5.566   0.020  0.2009 -0.3371 -0.3315
  182MOL   H18840370   3.653   5.750   8.100  0.6216 -0.3027 -0.1259
  182MOL   C18940371   3.444   6.066   7.862  0.3223 -0.3801  0.8214
  182MOL   C19040372   3.556   6.057   7.946 -0.1515 -0.3747  0.5923
  182MOL   C19140373   3.546   6.025   8.085 -0.5635  0.7387  0.0501
  182MOL   C19240374   3.416   5.999   8.134 -0.0081 -0.9908 -0.0929
  182MOL   C19340375   3.302   6.010   8.053  0.0051 -0.7366  0.2186
  182MOL   C19440376   3.315   6.046   7.918 -0.2938  0.3665  0.7714
  182MOL   O19540377   3.204   6.064   7.841 -0.1987  0.2997  0.6613
  182MOL   H19640378   3.466   6.071   7.757 -2.4076 -0.1840  0.2006
  182MOL   H19740379   3.651   6.086   7.904 -0.6155 -2.7417 -2.3210
  182MOL   H19840380   3.403   5.966   8.236 -1.9209  0.0632  0.0137
  182MOL   H19940381   3.204   5.998   8.096 -0.1233 -1.5785 -0.2992
  182MOL   C20040382   3.250   6.040   7.476 -0.0994 -0.2207 -0.1665
  182MOL   C20140383   3.244   6.094   7.608  0.3947  0.8006  0.9561
  182MOL   C20240384   3.196   6.018   7.716 -0.0654  0.7080 -0.0583
  182MOL   C20340385   3.122   5.902   7.692 -0.4582 -0.7020 -0.1334
  182MOL   C20440386   3.122   5.851   7.565  0.6512  0.0057 -0.1950
  182MOL   C20540387   3.178   5.918   7.450  0.0511  0.5469  0.0718
  182MOL   O20640388   3.175   5.871   7.319  0.4526  0.0091 -0.1708
  182MOL   H20740389   3.293   6.087   7.389 -1.6074  0.3353 -0.6359
  182MOL   H20840390   3.281   6.190   7.642  1.6009  0.2611  1.1711
  182MOL   H20940391   3.063   5.850   7.766 -1.4532  1.7096  0.8385
  182MOL   H21040392   3.067   5.760   7.545 -0.5721  0.7366 -0.2204
  182MOL   C21140393   3.236   5.543   7.156 -0.3831  0.0669  0.2401
  182MOL   C21240394   3.167   5.663   7.199 -0.8948 -0.1085  0.3859
  182MOL   C21340395   3.228   5.746   7.293  0.2362  0.0823  0.0745
  182MOL   C21440396   3.344   5.703   7.366 -0.4420  0.1954  0.5520
  182MOL   C21540397   3.401   5.581   7.329 -0.0944  1.1755 -0.1466
  182MOL   C21640398   3.355   5.507   7.219 -0.2180 -0.9332  0.4748
  182MOL   O21740399   3.428   5.405   7.172 -0.6530  0.0432 -0.5469
  182MOL   H21840400   3.186   5.482   7.082  1.1241 -0.6938 -0.1654
  182MOL   H21940401   3.076   5.683   7.143  1.2848 -0.3734 -3.4025
  182MOL   H22040402   3.385   5.770   7.441  0.0095 -0.5702  0.9891
  182MOL   H22140403   3.500   5.557   7.364 -0.5679  0.8752  0.9963
  182MOL   H22240404   3.387   5.347   7.110  0.2682 -2.3977  1.0573
  183MOL     C140405   6.831   7.333   1.465  0.0140 -0.3347  0.0384
  183MOL     C240406   6.862   7.437   1.382 -0.0179  0.6365 -0.1696
  183MOL     C340407   6.858   7.432   1.242  0.4148 -0.7361 -0.8722
  183MOL     C440408   6.836   7.304   1.181  0.7889 -0.9966  0.5446
  183MOL     C540409   6.795   7.196   1.264 -0.3278 -0.8349 -0.0149
  183MOL     C640410   6.796   7.208   1.407 -0.0846  0.0870  0.0065
  183MOL     O740411   6.757   7.102   1.478  0.2390 -0.0243 -0.9358
  183MOL     H840412   6.838   7.344   1.572 -0.6972 -3.0120  0.3966
  183MOL     H940413   6.880   7.531   1.432  1.5406  0.7502 -0.9173
  183MOL    H1040414   6.837   7.295   1.073  4.1495 -1.1384  0.5548
  183MOL    H1140415   6.756   7.100   1.233  2.1804 -1.6394 -0.7292
  183MOL    H1240416   6.875   7.522   1.184 -0.6475  1.7938  2.5595
  183MOL    C1340417   6.765   7.142   1.851  0.3541  0.7759 -0.7825
  183MOL    C1440418   6.807   7.124   1.720  0.2929 -0.7622  0.0797
  183MOL    C1540419   6.721   7.111   1.604 -0.0525  0.8521  0.2595
  183MOL    C1640420   6.578   7.108   1.629  0.6008 -1.1081  0.1316
  183MOL    C1740421   6.536   7.135   1.763  0.3723 -0.4019  0.2730
  183MOL    C1840422   6.628   7.153   1.874 -0.0027  0.4339  0.1903
  183MOL    O1940423   6.587   7.184   1.999  0.1644 -0.1815  0.2960
  183MOL    H2040424   6.830   7.156   1.936 -1.2807 -0.7231  0.7733
  183MOL    H2140425   6.913   7.135   1.698  0.7235 -1.8728  1.5062
  183MOL    H2240426   6.505   7.098   1.550  1.2050 -1.8404 -0.3466
  183MOL    H2340427   6.430   7.140   1.782  0.2039 -1.8452 -0.2663
  183MOL    C2440428   6.402   7.002   2.263 -0.3001  0.5891  0.1693
  183MOL    C2540429   6.441   7.106   2.172 -0.6089 -0.1661  0.1491
  183MOL    C2640430   6.539   7.077   2.074 -0.3474 -0.2065 -0.3421
  183MOL    C2740431   6.592   6.949   2.066 -0.3770 -0.3950 -0.0285
  183MOL    C2840432   6.543   6.838   2.144  0.1368 -0.6550  0.0842
  183MOL    C2940433   6.449   6.868   2.244  0.1088  0.5861 -0.2994
  183MOL    O3040434   6.396   6.765   2.319 -0.3251  0.0023 -0.9049
  183MOL    H3140435   6.324   7.033   2.332  0.4177  1.3351  0.6577
  183MOL    H3240436   6.401   7.206   2.183  2.0620  0.9707  0.0692
  183MOL    H3340437   6.664   6.937   1.986 -0.6771 -1.8414 -0.0909
  183MOL    H3440438   6.584   6.740   2.124  1.5619 -0.2316  0.9420
  183MOL    C3540439   6.030   6.686   2.343  0.5663  0.0881  0.3952
  183MOL    C3640440   6.161   6.738   2.367 -0.4717  0.8827 -0.1595
  183MOL    C3740441   6.272   6.721   2.282 -0.3211  0.0531  0.4846
  183MOL    C3840442   6.250   6.643   2.173  0.3837 -0.1292 -0.1857
  183MOL    C3940443   6.131   6.565   2.156 -0.1109  0.0274  0.7769
  183MOL    C4040444   6.018   6.591   2.237 -0.5453 -0.0418 -0.1749
  183MOL    O4140445   5.901   6.529   2.205 -0.1097 -0.0521 -0.6608
  183MOL    H4240446   5.949   6.704   2.412 -0.8215  1.2567 -1.5098
  183MOL    H4340447   6.185   6.806   2.447 -1.9174 -0.5393  1.5347
  183MOL    H4440448   6.333   6.618   2.109 -0.3878 -0.1909 -1.1650
  183MOL    H4540449   6.115   6.488   2.082  1.8343  0.7660 -0.4490
  183MOL    C4640450   5.579   6.694   2.269  0.0888 -0.1235 -0.3334
  183MOL    C4740451   5.684   6.603   2.285 -0.5513  0.1719  0.2888
  183MOL    C4840452   5.790   6.604   2.184  0.6612 -0.0547 -0.2201
  183MOL    C4940453   5.772   6.680   2.069 -0.5776 -0.2461 -0.3993
  183MOL    C5040454   5.664   6.773   2.054  0.4048 -0.1913  0.1369
  183MOL    C5140455   5.567   6.779   2.155 -0.3316  0.6091 -1.2029
  183MOL    O5240456   5.445   6.850   2.148 -0.1444 -0.3197  0.0306
  183MOL    H5340457   5.506   6.697   2.348 -1.2445 -1.5546 -1.4838
  183MOL    H5440458   5.680   6.536   2.370 -1.2784 -0.5876 -0.3306
  183MOL    H5540459   5.851   6.662   1.998 -0.0600 -0.3554  0.1975
  183MOL    H5640460   5.665   6.830   1.962 -2.4846 -0.0976  0.1154
  183MOL    C5740461   5.187   6.616   2.019  0.8072 -0.0034  0.3593
  183MOL    C5840462   5.301   6.700   2.017  0.1244 -0.4941 -0.1437
  183MOL    C5940463   5.326   6.779   2.130  0.0989  0.3058 -0.1039
  183MOL    C6040464   5.229   6.781   2.234 -0.5247 -0.1000 -0.1209
  183MOL    C6140465   5.114   6.702   2.226 -0.3721  0.2580  0.1957
  183MOL    C6240466   5.091   6.614   2.125  0.0883  0.1868 -0.1141
  183MOL    O6340467   4.985   6.536   2.111 -0.5320  0.4429 -0.1239
  183MOL    H6440468   5.170   6.546   1.938 -0.6002  0.6842  0.0390
  183MOL    H6540469   5.371   6.680   1.936 -0.0511 -2.2640  0.1399
  183MOL    H6640470   5.252   6.840   2.321  1.2872 -0.9122 -0.0146
  183MOL    H6740471   5.049   6.704   2.312  1.0391 -0.2032  1.2907
  183MOL    C6840472   4.615   6.570   2.073  0.8356 -0.0110  0.7042
  183MOL    C6940473   4.739   6.507   2.089 -0.8712 -0.5561  0.3964
  183MOL    C7040474   4.858   6.584   2.084 -0.1888  0.5518  0.0834
  183MOL    C7140475   4.845   6.728   2.052 -0.1258 -0.0339 -0.0970
  183MOL    C7240476   4.720   6.786   2.037  0.7219 -0.6820  0.6646
  183MOL    C7340477   4.601   6.708   2.048  0.0787 -0.4963  0.5667
  183MOL    O7440478   4.477   6.766   2.021 -0.2075  0.1381  0.2816
  183MOL    H7540479   4.532   6.501   2.085  1.4779 -0.7050  1.1770
  183MOL    H7640480   4.749   6.403   2.114  0.5297 -0.2411  1.2044
  183MOL    H7740481   4.936   6.779   2.024 -1.7776  1.0798 -3.6769
  183MOL    H7840482   4.710   6.884   1.994 -0.4244 -0.2423  1.8839
  183MOL    C7940483   4.265   6.820   2.317  0.6462 -0.6026 -0.4148
  183MOL    C8040484   4.329   6.755   2.207  0.7509  0.2991  0.3913
  183MOL    C8140485   4.416   6.830   2.123  0.2321 -0.7050 -0.4711
  183MOL    C8240486   4.454   6.958   2.163  0.3280  0.5114 -0.0553
  183MOL    C8340487   4.406   7.015   2.286 -0.6965  0.9715 -0.6309
  183MOL    C8440488   4.315   6.944   2.365  0.0803  0.0943 -0.0199
  183MOL    O8540489   4.261   6.998   2.476  0.0945  0.6153  0.3234
  183MOL    H8640490   4.195   6.772   2.384  1.0796 -2.5787 -1.3203
  183MOL    H8740491   4.299   6.662   2.162  1.2352 -0.3411  1.3746
  183MOL    H8840492   4.534   7.012   2.116 -0.1452  4.0594  2.9766
  183MOL    H8940493   4.441   7.112   2.319 -0.4382  0.2133  1.3782
  183MOL    C9040494   3.932   7.144   2.464  0.1418  0.6953 -0.5603
  183MOL    C9140495   4.066   7.124   2.445  0.4533 -0.1184  0.1814
  183MOL    C9240496   4.125   7.007   2.498  0.2668 -0.9960 -0.0040
  183MOL    C9340497   4.049   6.913   2.570  0.2815 -0.6914 -0.4325
  183MOL    C9440498   3.916   6.946   2.594  0.7142  0.4047  0.2435
  183MOL    C9540499   3.855   7.057   2.538  0.7607 -0.1023  0.3164
  183MOL    O9640500   3.723   7.089   2.565  0.2019 -0.1414 -0.4851
  183MOL    H9740501   3.883   7.237   2.442 -1.7783 -0.0567  0.3634
  183MOL    H9840502   4.139   7.186   2.395  1.5736 -0.9942  0.6761
  183MOL    H9940503   4.099   6.823   2.604 -0.2626 -0.4117  1.1020
  183MOL   H10040504   3.853   6.883   2.656  0.5841  1.5308  1.2895
  183MOL   C10140505   3.464   6.843   2.474  0.8161  0.1199 -0.1111
  183MOL   C10240506   3.559   6.923   2.546  0.1148 -0.4336  0.1154
  183MOL   C10340507   3.628   7.025   2.487 -0.1966 -0.0073  0.7359
  183MOL   C10440508   3.599   7.064   2.351 -0.3160  0.4844 -0.4639
  183MOL   C10540509   3.506   6.982   2.276 -0.6119 -0.0341 -0.3866
  183MOL   C10640510   3.435   6.875   2.339  0.1579  0.1188  0.5654
  183MOL   O10740511   3.363   6.796   2.247  0.2143  0.3867 -0.6388
  183MOL   H10840512   3.413   6.760   2.520 -1.1967  1.1792 -0.4020
  183MOL   H10940513   3.585   6.900   2.649 -2.3168  0.2528  0.9284
  183MOL   H11040514   3.666   7.136   2.307  1.2315  0.4524  1.7807
  183MOL   H11140515   3.500   6.992   2.168 -0.7082  1.9929 -0.2162
  183MOL   C11240516   3.017   6.898   2.182 -0.7949 -0.3592 -0.0045
  183MOL   C11340517   3.157   6.890   2.174  0.8293  0.3410  0.6628
  183MOL   C11440518   3.227   6.799   2.257  0.5892 -0.2141  0.1307
  183MOL   C11540519   3.150   6.708   2.338  0.1697 -0.9863  0.0871
  183MOL   C11640520   3.010   6.723   2.345 -0.4055 -0.6525 -0.6007
  183MOL   C11740521   2.945   6.817   2.268 -0.8456  0.2548  0.2176
  183MOL   O11840522   2.811   6.833   2.267 -0.7492 -0.2336 -0.3620
  183MOL   H11940523   2.966   6.971   2.121 -1.0366  0.0782  0.7249
  183MOL   H12040524   3.211   6.959   2.111 -0.1725  1.2037  0.7385
  183MOL   H12140525   3.201   6.642   2.407  0.6367  0.6268  1.3382
  183MOL   H12240526   2.948   6.658   2.404  0.3665 -0.7763  0.0907
  183MOL   C12340527   2.612   6.822   2.573 -0.0428 -0.6559  0.0220
  183MOL   C12440528   2.668   6.785   2.454 -0.2635 -0.8068  0.6301
  183MOL   C12540529   2.747   6.878   2.378 -0.9620 -0.5349 -0.8139
  183MOL   C12640530   2.767   7.009   2.424  0.8112 -0.3817  0.9394
  183MOL   C12740531   2.705   7.043   2.541 -0.3853 -0.1261 -0.1715
  183MOL   C12840532   2.629   6.955   2.617 -0.2998 -0.1398 -0.6084
  183MOL   O12940533   2.585   6.988   2.741 -0.2928 -0.3223 -0.1678
  183MOL   H13040534   2.554   6.761   2.640  0.4882 -0.1592  0.9610
  183MOL   H13140535   2.648   6.688   2.412 -0.4026 -1.2448  1.6937
  183MOL   H13240536   2.821   7.084   2.369  0.5713 -0.3332  0.7719
  183MOL   H13340537   2.715   7.144   2.579  2.1386 -0.3844 -0.0390
  183MOL   C13440538   2.595   7.294   2.948  0.5844  0.6671  0.8529
  183MOL   C13540539   2.611   7.162   2.906  0.2021  0.2027  0.1672
  183MOL   C13640540   2.557   7.120   2.780 -0.4679 -0.4916 -0.0065
  183MOL   C13740541   2.483   7.211   2.702 -0.5840 -0.2484  0.0031
  183MOL   C13840542   2.468   7.347   2.743  0.5206  0.2784 -0.2349
  183MOL   C13940543   2.523   7.385   2.868  0.0111  0.6198 -0.3770
  183MOL   O14040544   2.510   7.516   2.907 -0.4663 -0.3186 -1.0874
  183MOL   H14140545   2.632   7.331   3.043  0.4585  0.4691  0.9787
  183MOL   H14240546   2.676   7.098   2.964 -0.5250 -0.2591  0.4762
  183MOL   H14340547   2.454   7.183   2.602  0.4396 -1.3139 -0.0022
  183MOL   H14440548   2.416   7.412   2.675 -0.6348  1.5787  1.8368
  183MOL   C14540549   2.746   7.771   2.784 -0.0287  0.1837 -0.1215
  183MOL   C14640550   2.694   7.663   2.859  0.2280 -0.8017 -0.6861
  183MOL   C14740551   2.565   7.619   2.833  0.2873  0.0873 -0.5707
  183MOL   C14840552   2.488   7.678   2.736  0.5755  0.4655  0.1984
  183MOL   C14940553   2.543   7.782   2.653 -0.3065  0.2212  0.7130
  183MOL   C15040554   2.673   7.828   2.677  0.3188 -0.2110 -0.6777
  183MOL   O15140555   2.714   7.934   2.595 -0.2359 -0.7297  0.1362
  183MOL   H15240556   2.845   7.809   2.802  0.6986 -0.8519 -1.7985
  183MOL   H15340557   2.751   7.612   2.935  3.1303  1.5693 -1.1770
  183MOL   H15440558   2.384   7.655   2.720  0.9567 -1.5413  0.4136
  183MOL   H15540559   2.486   7.839   2.582  0.5192 -0.2171 -0.3312
  183MOL   C15640560   3.035   7.919   2.426 -0.2411  0.5231 -0.1648
  183MOL   C15740561   2.947   7.937   2.534 -0.0797  0.0687 -0.7202
  183MOL   C15840562   2.809   7.905   2.502 -0.2401  0.7337 -0.8333
  183MOL   C15940563   2.771   7.834   2.384  0.6487  0.3825 -0.5037
  183MOL   C16040564   2.870   7.805   2.289 -0.1564 -0.6739  0.2367
  183MOL   C16140565   3.003   7.846   2.309  0.2489  0.5775  0.3793
  183MOL   O16240566   3.103   7.807   2.221  0.0940  0.3775  0.6816
  183MOL   H16340567   3.135   7.960   2.432 -0.1554  0.2280  0.4005
  183MOL   H16440568   2.975   7.984   2.627 -0.3868 -1.3675  0.1115
  183MOL   H16540569   2.668   7.812   2.364  0.6895  1.1570 -1.6049
  183MOL   H16640570   2.844   7.756   2.196 -2.0767  1.2249 -0.2835
  183MOL   C16740571   3.115   8.100   2.001 -0.1204 -0.2494  0.1812
  183MOL   C16840572   3.061   8.000   2.080  0.9037 -0.1470 -0.0614
  183MOL   C16940573   3.147   7.909   2.142 -0.0304  0.1693 -0.1579
  183MOL   C17040574   3.288   7.914   2.121  0.4601 -0.2275 -0.1191
  183MOL   C17140575   3.337   8.018   2.034 -0.2738  0.2367  0.6809
  183MOL   C17240576   3.252   8.111   1.973 -0.1942  0.1596 -0.2432
  183MOL   O17340577   3.310   8.207   1.897 -0.4591 -0.2341 -0.3481
  183MOL   H17440578   3.052   8.174   1.955 -1.9644 -0.3736  2.4203
  183MOL   H17540579   2.953   7.997   2.081  0.8798 -0.3685 -1.9861
  183MOL   H17640580   3.353   7.840   2.165  0.1839 -0.2265  0.2898
  183MOL   H17740581   3.444   8.028   2.021 -0.4287  0.5019 -0.4079
  183MOL   C17840582   3.267   0.299   2.020 -0.1587 -0.5216 -0.1667
  183MOL   C17940583   3.309   0.162   2.017 -0.0307 -0.3458  0.0890
  183MOL   C18040584   3.272   0.081   1.908  0.3410 -0.2189  0.3227
  183MOL   C18140585   3.182   0.136   1.814 -0.4392 -0.5250  0.1546
  183MOL   C18240586   3.130   0.267   1.822 -0.3503  0.1455 -0.3397
  183MOL   C18340587   3.174   0.350   1.924 -0.4463 -0.3067 -0.3304
  183MOL   O18440588   3.130   0.478   1.924  0.3563  0.1054  0.2145
  183MOL   H18540589   3.289   0.364   2.104 -2.6180  1.6243 -1.0876
  183MOL   H18640590   3.364   0.127   2.103 -0.1986 -1.7332 -0.3519
  183MOL   H18740591   3.154   0.076   1.729 -1.1145 -1.3194  0.9234
  183MOL   H18840592   3.058   0.308   1.752  0.2050 -1.3774 -1.8453
  183MOL   C18940593   2.778   0.570   1.843  0.1283  0.2785 -0.4801
  183MOL   C19040594   2.908   0.523   1.825 -0.5049  0.2827  0.6077
  183MOL   C19140595   2.992   0.498   1.940 -0.4515 -0.2083  0.7143
  183MOL   C19240596   2.940   0.510   2.069 -0.1257  0.2423  0.3929
  183MOL   C19340597   2.803   0.550   2.089  0.0537  0.4371  0.0901
  183MOL   C19440598   2.727   0.587   1.973 -0.3380 -0.6518 -0.2883
  183MOL   O19540599   2.599   0.633   1.993  0.0580  0.3157  0.2321
  183MOL   H19640600   2.718   0.604   1.760  2.3674  0.0890 -2.2394
  183MOL   H19740601   2.954   0.513   1.727  3.1923  0.1566  2.2875
  183MOL   H19840602   3.010   0.480   2.146 -0.5869 -1.9921 -0.0462
  183MOL   H19940603   2.770   0.558   2.191  1.9645  0.4656  0.7313
  183MOL   C20040604   2.367   0.355   2.077  0.5965  0.5652  0.0590
  183MOL   C20140605   2.484   0.437   2.080 -0.1875  0.4517  0.6088
  183MOL   C20240606   2.497   0.548   1.997 -1.1322  0.1445  0.2211
  183MOL   C20340607   2.394   0.566   1.898 -0.9292  0.5195 -0.4682
  183MOL   C20440608   2.280   0.485   1.891  0.0773 -0.1594  0.5402
  183MOL   C20540609   2.264   0.377   1.980 -0.5039 -0.0978  0.1721
  183MOL   O20640610   2.164   0.287   1.964  0.6745  0.7614  0.8083
  183MOL   H20740611   2.364   0.272   2.146 -2.0378  1.1843  0.7472
  183MOL   H20840612   2.563   0.399   2.144  0.6312 -1.7750 -1.6380
  183MOL   H20940613   2.412   0.654   1.838  1.9115 -0.4686 -1.1356
  183MOL   H21040614   2.208   0.504   1.813  0.5128  3.1670  0.8912
  183MOL   C21140615   2.053   8.232   1.784  0.3153 -0.4774  0.1074
  183MOL   C21240616   2.061   0.089   1.872 -0.2840  0.8885  0.1479
  183MOL   C21340617   2.176   0.177   1.878  0.4373 -0.3350 -0.1262
  183MOL   C21440618   2.294   0.122   1.830 -1.2215 -0.1373  0.4425
  183MOL   C21540619   2.292   0.013   1.735  0.2146 -0.5894 -0.8193
  183MOL   C21640620   2.173   8.199   1.710 -0.2587 -0.4731  0.1063
  183MOL   O21740621   2.169   8.097   1.619  0.3108 -0.1528 -0.2429
  183MOL   H21840622   1.957   8.184   1.767  0.6546 -0.1237 -3.1715
  183MOL   H21940623   1.970   0.112   1.924 -0.1358  2.2271 -0.1570
  183MOL   H22040624   2.394   0.161   1.843 -0.6414 -1.2754 -0.5876
  183MOL   H22140625   2.386   8.227   1.700  0.0847 -1.1036 -0.5863
  183MOL   H22240626   2.253   8.094   1.576  0.3367 -0.3687 -0.1796
  184MOL     C140627   0.042   2.768   3.696 -0.1395  0.1227  0.4149
  184MOL     C240628   0.158   2.760   3.774  0.5854 -0.1424  0.3906
  184MOL     C340629   0.194   2.864   3.862  0.5163 -0.3410  0.2129
  184MOL     C440630   0.116   2.978   3.872 -0.8311 -0.6603  0.6541
  184MOL     C540631   0.003   2.991   3.789 -0.4172  0.5416  0.0567
  184MOL     C640632   8.230   2.887   3.697 -0.0930  0.4009  0.3280
  184MOL     O740633   8.136   2.911   3.605  0.0677 -0.6495  0.2637
  184MOL     H840634   0.011   2.690   3.628 -0.6437 -0.0668  0.8602
  184MOL     H940635   0.213   2.667   3.773 -0.4981 -0.7873 -0.5236
  184MOL    H1040636   0.144   3.063   3.932  2.0822 -1.0605 -0.0398
  184MOL    H1140637   8.201   3.083   3.779  0.0889  0.8123 -0.2676
  184MOL    H1240638   0.286   2.849   3.917  2.2054  1.8301 -1.8549
  184MOL    C1340639   0.047   3.066   3.300 -0.5593  0.0726  0.5622
  184MOL    C1440640   0.006   2.971   3.395  0.0444 -0.4030  0.3369
  184MOL    C1540641   8.174   3.000   3.504 -0.8894  0.1409 -0.4372
  184MOL    C1640642   8.125   3.129   3.509  0.6235 -0.4418 -0.3464
  184MOL    C1740643   8.166   3.232   3.418 -0.6456  0.3317 -0.0082
  184MOL    C1840644   8.250   3.198   3.310  0.1803  0.6566 -0.0226
  184MOL    O1940645   0.031   3.292   3.212  0.1950 -0.0215  0.0909
  184MOL    H2040646   0.114   3.036   3.221 -0.0897  0.2801  0.8810
  184MOL    H2140647   0.047   2.871   3.386  0.1008 -0.4279  0.8472
  184MOL    H2240648   8.057   3.160   3.587 -0.8846 -0.3448 -1.6630
  184MOL    H2340649   8.144   3.337   3.432 -1.9471  0.6325 -3.7232
  184MOL    C2440650   7.960   3.388   3.052  0.2883  0.0077 -0.4306
  184MOL    C2540651   8.053   3.312   3.127 -0.1267  0.4945  0.2030
  184MOL    C2640652   8.188   3.364   3.152  0.4549  0.6862  0.5642
  184MOL    C2740653   8.221   3.495   3.107  0.0856  0.2146 -0.5538
  184MOL    C2840654   8.119   3.575   3.050  0.5850 -0.2121  1.0211
  184MOL    C2940655   7.992   3.521   3.025  0.4359 -0.6440  0.2522
  184MOL    O3040656   7.891   3.598   2.966  0.0595  0.0368 -0.1713
  184MOL    H3140657   7.869   3.340   3.021 -0.2046  0.9096 -0.3929
  184MOL    H3240658   8.029   3.214   3.165  0.4307  0.5148  0.6083
  184MOL    H3340659   0.068   3.532   3.115 -0.1259  0.6416  0.2170
  184MOL    H3440660   8.145   3.679   3.045 -1.6579  0.3657  0.8830
  184MOL    C3540661   7.737   3.571   2.633  0.0980  0.0299 -0.3316
  184MOL    C3640662   7.762   3.569   2.775  0.3442  0.2541  0.7029
  184MOL    C3740663   7.887   3.590   2.828  0.0173  0.1688  0.1679
  184MOL    C3840664   8.003   3.602   2.741  0.6308 -0.4374 -0.7694
  184MOL    C3940665   7.974   3.598   2.611  0.0253 -0.1775 -0.2156
  184MOL    C4040666   7.848   3.589   2.550 -0.3070 -0.1170 -0.4657
  184MOL    O4140667   7.836   3.614   2.416 -0.2045  0.0447  0.7624
  184MOL    H4240668   7.641   3.561   2.584 -1.2505 -2.0227  2.5303
  184MOL    H4340669   7.676   3.555   2.838 -1.8600  2.1604 -1.7224
  184MOL    H4440670   8.105   3.617   2.774  0.7242 -0.9466 -0.8184
  184MOL    H4540671   8.058   3.614   2.546 -0.1169 -0.2689 -0.4182
  184MOL    C4640672   7.943   3.308   2.240 -0.0548  0.6717 -0.6090
  184MOL    C4740673   7.930   3.406   2.337 -0.5269  0.3013 -0.8700
  184MOL    C4840674   7.841   3.511   2.324 -0.0126 -0.6601 -0.0496
  184MOL    C4940675   7.758   3.514   2.202 -0.2813 -0.0972 -0.6193
  184MOL    C5040676   7.785   3.418   2.102  0.3056 -0.1475  0.5219
  184MOL    C5140677   7.868   3.307   2.121  0.8830  0.2669  0.0931
  184MOL    O5240678   7.875   3.213   2.025  0.5556  0.0761 -0.4070
  184MOL    H5340679   8.015   3.231   2.264  0.2872  1.5364  1.1492
  184MOL    H5440680   7.988   3.400   2.428 -1.8957 -0.8474 -0.0468
  184MOL    H5540681   7.685   3.593   2.188 -0.6188 -0.2231  0.4098
  184MOL    H5640682   7.720   3.414   2.015 -0.3087 -0.5605  0.9960
  184MOL    C5740683   8.018   2.890   2.120  0.3229 -0.5040  0.0337
  184MOL    C5840684   7.998   3.019   2.073 -0.1465 -0.3504  0.4870
  184MOL    C5940685   7.879   3.088   2.085 -0.4218  0.1034 -0.3830
  184MOL    C6040686   7.768   3.028   2.135 -0.7255  0.4356 -0.6950
  184MOL    C6140687   7.780   2.897   2.184  0.7297  0.3949  0.0690
  184MOL    C6240688   7.901   2.828   2.175 -0.0137  0.2525  0.3188
  184MOL    O6340689   7.911   2.709   2.233  0.3057 -0.3523 -0.4404
  184MOL    H6440690   8.112   2.836   2.119  0.3159 -0.5586  1.1616
  184MOL    H6540691   8.081   3.070   2.027 -0.8126 -2.3182 -3.0731
  184MOL    H6640692   7.676   3.083   2.135 -0.5116  0.8023  0.1631
  184MOL    H6740693   7.693   2.849   2.225  0.8161 -0.6554 -0.9592
  184MOL    C6840694   8.033   2.398   2.084  0.0283  0.6143  0.3526
  184MOL    C6940695   8.023   2.516   2.165 -0.4794 -0.1488  0.0621
  184MOL    C7040696   7.912   2.601   2.155 -1.1131  0.1143 -0.1091
  184MOL    C7140697   7.809   2.566   2.063 -0.0425 -0.1910 -0.2776
  184MOL    C7240698   7.813   2.450   1.985  1.1071 -0.1955  0.5127
  184MOL    C7340699   7.927   2.367   1.995  0.6902 -0.4303  0.0470
  184MOL    O7440700   7.932   2.264   1.900  0.0566 -0.2284  0.2618
  184MOL    H7540701   8.120   2.334   2.086 -0.1124  0.3816 -0.6728
  184MOL    H7640702   8.097   2.550   2.236 -0.6227 -1.2678  0.7637
  184MOL    H7740703   7.718   2.623   2.069 -1.2623 -2.1031 -0.5088
  184MOL    H7840704   7.737   2.435   1.910  1.6010  3.1258 -0.7674
  184MOL    C7940705   8.213   2.013   1.936 -0.1131 -0.3185 -0.0149
  184MOL    C8040706   8.131   2.119   1.885 -0.0439  0.1579  0.9452
  184MOL    C8140707   8.004   2.150   1.932 -0.2270 -0.0266 -0.2750
  184MOL    C8240708   7.951   2.062   2.034  0.5217 -0.7057 -0.1951
  184MOL    C8340709   8.027   1.960   2.090  0.6720  0.0751  0.3345
  184MOL    C8440710   8.154   1.931   2.029  0.0858  0.4092  0.1225
  184MOL    O8540711   8.215   1.811   2.058 -0.2674  0.4063 -0.2534
  184MOL    H8640712   0.054   1.992   1.888  1.7193  0.8253  2.9788
  184MOL    H8740713   8.179   2.182   1.812  1.9824  0.3674  2.3963
  184MOL    H8840714   7.857   2.073   2.086  1.0203 -0.1095  0.5861
  184MOL    H8940715   7.995   1.892   2.168 -0.2737  0.3783  0.2212
  184MOL    C9040716   8.162   1.623   1.747  0.1774 -0.3210  0.0271
  184MOL    C9140717   8.138   1.686   1.866 -0.1422  0.2111  0.5765
  184MOL    C9240718   8.248   1.726   1.948  0.0210 -0.1316  0.1330
  184MOL    C9340719   0.125   1.692   1.906  0.5341  0.3158 -0.2147
  184MOL    C9440720   0.148   1.624   1.785  0.2546  1.2041 -0.9602
  184MOL    C9540721   0.039   1.596   1.699 -0.2975 -0.1268 -0.3880
  184MOL    O9640722   0.070   1.545   1.575 -0.3353  0.6822 -0.3428
  184MOL    H9740723   8.079   1.602   1.682  1.9357 -1.1716 -2.0294
  184MOL    H9840724   8.035   1.713   1.887 -0.6784 -1.7668  0.5620
  184MOL    H9940725   0.206   1.720   1.972 -0.1311 -0.3810  0.9149
  184MOL   H10040726   0.247   1.593   1.754  0.9435  3.2788 -0.9217
  184MOL   C10140727   8.156   1.276   1.401 -0.3645  1.1216  0.5891
  184MOL   C10240728   8.218   1.402   1.426 -0.4802  0.1946 -0.4225
  184MOL   C10340729   0.019   1.422   1.550  0.3590 -0.6884  0.0743
  184MOL   C10440730   0.015   1.325   1.653 -0.6373  0.4162  0.1451
  184MOL   C10540731   8.185   1.212   1.633 -0.0490 -0.3829  0.9630
  184MOL   C10640732   8.132   1.186   1.506 -0.2912 -0.0668 -0.2867
  184MOL   O10740733   8.063   1.068   1.479 -0.7969 -0.1445 -0.2122
  184MOL   H10840734   8.126   1.263   1.298  0.9425  0.2474  0.3136
  184MOL   H10940735   8.215   1.479   1.351  0.8478  0.0323 -0.6574
  184MOL   H11040736   0.058   1.337   1.752 -1.5125  0.2988  0.5369
  184MOL   H11140737   8.169   1.147   1.718 -0.9931 -0.7635  0.4929
  184MOL   C11240738   8.101   0.774   1.696 -0.5294 -0.2624  0.3631
  184MOL   C11340739   8.051   0.894   1.646 -0.2950 -0.5549  0.2314
  184MOL   C11440740   8.116   0.948   1.533 -0.6292  0.0856 -0.5091
  184MOL   C11540741   8.220   0.879   1.463  0.2969 -0.1919  0.3036
  184MOL   C11640742   0.013   0.757   1.515  1.1858  0.1017  0.2941
  184MOL   C11740743   8.207   0.709   1.630 -0.3181 -0.0594  0.2481
  184MOL   O11840744   0.006   0.596   1.688  0.0797  0.1962  0.6707
  184MOL   H11940745   8.057   0.734   1.787 -0.4562  2.0705  1.4555
  184MOL   H12040746   7.965   0.944   1.687  1.0457  1.6492  0.4522
  184MOL   H12140747   0.007   0.914   1.370  0.5021 -2.3397 -0.4230
  184MOL   H12240748   0.082   0.702   1.453 -1.1588 -1.4031 -1.0485
  184MOL   C12340749   8.001   0.345   1.772  0.1601  0.0001 -0.1137
  184MOL   C12440750   8.090   0.450   1.780 -0.6542 -0.3451 -0.2469
  184MOL   C12540751   8.175   0.486   1.676  0.3015 -0.4198 -1.2848
  184MOL   C12640752   8.177   0.407   1.561  0.0782  0.6248 -0.0362
  184MOL   C12740753   8.088   0.302   1.547 -0.5565  0.3379 -0.6720
  184MOL   C12840754   7.999   0.270   1.652  0.7796 -0.1672 -0.0610
  184MOL   O12940755   7.915   0.166   1.625  0.4641 -0.4542  0.1000
  184MOL   H13040756   7.948   0.325   1.864 -1.0426 -0.5392 -0.9076
  184MOL   H13140757   8.093   0.509   1.871  2.5912  1.8481 -1.6916
  184MOL   H13240758   8.252   0.426   1.486 -0.8678 -1.4259 -1.5462
  184MOL   H13340759   8.087   0.237   1.461 -2.6225  0.7254 -0.9728
  184MOL   C13440760   8.022   8.098   1.756 -0.5478  0.5508  0.2257
  184MOL   C13540761   8.027   8.217   1.680 -0.1201 -1.1734  0.2948
  184MOL   C13640762   7.931   0.059   1.707  0.1509 -0.4173 -0.2089
  184MOL   C13740763   7.821   0.035   1.802 -0.1242  1.1511 -0.0234
  184MOL   C13840764   7.833   8.174   1.882  0.6347 -0.5494  0.1931
  184MOL   C13940765   7.935   8.082   1.863  0.1223 -0.3800 -0.9072
  184MOL   O14040766   7.948   7.970   1.941 -0.4123 -0.3400 -0.7080
  184MOL   H14140767   8.090   8.019   1.728  0.1914  0.5031  2.0348
  184MOL   H14240768   8.102   8.230   1.603 -0.2364 -2.0634  0.0284
  184MOL   H14340769   7.741   0.107   1.816  1.2129  2.7829 -0.5595
  184MOL   H14440770   7.756   8.163   1.957 -1.1877 -0.6055 -1.6186
  184MOL   C14540771   8.057   8.037   2.283  0.2859  0.1991 -0.5842
  184MOL   C14640772   7.981   7.999   2.173 -0.4643 -0.0401 -0.4609
  184MOL   C14740773   8.037   7.989   2.043  0.4109  0.3535  0.5146
  184MOL   C14840774   8.176   8.016   2.023  0.0128 -0.0485  0.2636
  184MOL   C14940775   0.003   8.052   2.137  0.3192  0.4366  0.1469
  184MOL   C15040776   8.197   8.068   2.267 -0.0985 -0.3939  0.5319
  184MOL   O15140777   0.018   8.117   2.373 -0.1346  0.3774  0.0792
  184MOL   H15240778   8.014   8.056   2.381 -0.3738 -0.7811 -0.6732
  184MOL   H15340779   7.875   7.986   2.187 -0.2656 -2.1849 -0.7505
  184MOL   H15440780   8.217   8.010   1.924 -0.0964 -1.8361  0.3133
  184MOL   H15540781   0.106   8.074   2.112 -0.1506  1.0413 -1.3615
  184MOL   C15640782   0.338   0.058   2.342 -0.4486 -0.4030  0.3790
  184MOL   C15740783   0.200   0.030   2.372 -0.6537 -0.0110 -0.2181
  184MOL   C15840784   0.152   8.151   2.355  0.0806  0.0505 -0.0067
  184MOL   C15940785   0.245   8.049   2.322  0.3899  0.6846 -0.1866
  184MOL   C16040786   0.382   8.080   2.295  0.1670 -0.5803  0.4057
  184MOL   C16140787   0.435   8.212   2.311 -0.4927  0.0576  0.2061
  184MOL   O16240788   0.569   8.245   2.285 -0.5834  0.0743  0.0004
  184MOL   H16340789   0.385   0.155   2.346 -0.3787 -0.3743 -0.9349
  184MOL   H16440790   0.130   0.100   2.416  0.2283  0.4745  0.4336
  184MOL   H16540791   0.217   7.946   2.309  0.1620  0.6990  0.1815
  184MOL   H16640792   0.448   8.001   2.264  0.6854 -0.5779  1.4773
  184MOL   C16740793   0.778   8.002   2.465  0.4290  0.8077  0.0809
  184MOL   C16840794   0.671   8.089   2.430  0.0666  0.4183 -0.2416
  184MOL   C16940795   0.669   8.154   2.309 -0.4791 -0.4756 -0.5561
  184MOL   C17040796   0.763   8.131   2.209  0.3834 -0.0169  0.4271
  184MOL   C17140797   0.863   8.035   2.238  0.2672 -0.0446 -0.3661
  184MOL   C17240798   0.873   7.970   2.362  0.6914  0.7341  0.1652
  184MOL   O17340799   0.978   7.891   2.393 -0.3699  0.2374  0.3616
  184MOL   H17440800   0.775   7.962   2.566 -0.3352 -3.1435 -1.4176
  184MOL   H17540801   0.589   8.104   2.498 -0.2819  3.2248 -1.2039
  184MOL   H17640802   0.767   8.181   2.113  0.3647  1.9516  1.4407
  184MOL   H17740803   0.941   8.026   2.164  0.0087  0.4644 -0.7089
  184MOL   C17840804   1.270   8.108   2.468 -0.1191 -0.6018  0.1054
  184MOL   C17940805   1.142   8.055   2.480  0.3138 -0.3860  0.1948
  184MOL   C18040806   1.098   7.954   2.390 -1.1110 -0.8781 -0.0578
  184MOL   C18140807   1.202   7.898   2.308  0.1172 -0.0228 -0.3879
  184MOL   C18240808   1.327   7.959   2.297  0.7176 -0.4404  0.2667
  184MOL   C18340809   1.365   8.059   2.378  0.2547 -0.4164 -0.0355
  184MOL   O18440810   1.489   8.113   2.374 -0.8258 -0.5516 -0.1936
  184MOL   H18540811   1.298   8.188   2.534 -0.8791 -0.4462  0.2456
  184MOL   H18640812   1.079   8.090   2.560 -0.4603 -0.5651 -0.3348
  184MOL   H18740813   1.181   7.805   2.257 -1.8320 -0.8260  1.8058
  184MOL   H18840814   1.407   7.912   2.241  3.6916  3.6994  0.8340
  184MOL   C18940815   1.478   0.211   2.261 -0.5949 -0.2222 -1.0889
  184MOL   C19040816   1.461   0.098   2.336  0.0873  0.2111  0.4245
  184MOL   C19140817   1.510   8.224   2.296 -1.2217 -0.2041 -0.1517
  184MOL   C19240818   1.576   8.217   2.169 -0.6744 -0.2499 -0.6250
  184MOL   C19340819   1.593   0.078   2.091 -0.4329 -0.6450 -0.6731
  184MOL   C19440820   1.542   0.201   2.133  0.0963 -0.6070  0.0621
  184MOL   O19540821   1.539   0.311   2.052 -0.2135 -0.0102  0.0283
  184MOL   H19640822   1.435   0.305   2.291  0.6708 -0.2933  1.0672
  184MOL   H19740823   1.402   0.114   2.425 -1.2058  1.6783 -0.6588
  184MOL   H19840824   1.612   8.120   2.140 -2.6101 -1.6373  1.4207
  184MOL   H19940825   1.650   0.078   1.999 -1.5516 -1.2185 -1.3768
  184MOL   C20040826   1.252   0.230   1.825  0.3084  0.0071  0.2962
  184MOL   C20140827   1.333   0.237   1.945  0.4103 -0.4265 -0.0900
  184MOL   C20240828   1.459   0.297   1.941 -0.8894  0.2079  0.2316
  184MOL   C20340829   1.510   0.355   1.819 -0.3020 -0.1645 -0.8476
  184MOL   C20440830   1.435   0.351   1.705  0.4521 -0.0372 -0.0727
  184MOL   C20540831   1.305   0.291   1.705  0.5770 -0.8158  0.1259
  184MOL   O20640832   1.246   0.271   1.580 -0.3591  0.1816  0.3691
  184MOL   H20740833   1.155   0.183   1.816  1.4518 -2.6390  1.2126
  184MOL   H20840834   1.290   0.192   2.034 -0.0852 -0.1101 -0.1721
  184MOL   H20940835   1.611   0.393   1.825 -0.7097  0.7148  0.9585
  184MOL   H21040836   1.474   0.390   1.612  0.2892 -0.8407 -0.4893
  184MOL   C21140837   0.896   0.182   1.616 -0.2686  0.6547  0.4003
  184MOL   C21240838   1.034   0.162   1.587  0.2353 -0.2550 -0.0720
  184MOL   C21340839   1.112   0.281   1.585  0.7595  0.3013  0.4446
  184MOL   C21440840   1.052   0.407   1.583 -0.2758 -0.1070  0.1026
  184MOL   C21540841   0.913   0.418   1.598  0.6272 -0.2571  0.7023
  184MOL   C21640842   0.833   0.302   1.615 -0.9118  0.4376 -0.8136
  184MOL   O21740843   0.694   0.325   1.633 -0.4124  0.2941 -0.2024
  184MOL   H21840844   0.836   0.092   1.614 -1.4112  1.3710  1.2601
  184MOL   H21940845   1.069   0.061   1.571  0.0967 -0.3582  0.2687
  184MOL   H22040846   1.114   0.495   1.573  0.9011 -0.8215  0.9564
  184MOL   H22140847   0.875   0.518   1.610  0.2026 -0.3437  0.1224
  184MOL   H22240848   0.655   0.270   1.698  1.7436 -1.2833 -0.1770
  185MOL     C140849   0.600   8.161   1.822 -0.0284 -0.8800  0.6983
  185MOL     C240850   0.653   8.040   1.780 -0.1681  0.6374  0.4137
  185MOL     C340851   0.645   8.001   1.645 -0.7609 -0.7589  1.3102
  185MOL     C440852   0.586   8.092   1.552  0.3367 -0.1536  0.8007
  185MOL     C540853   0.534   8.216   1.597  0.0143 -0.5321  0.0010
  185MOL     C640854   0.532   8.246   1.730  0.4939  0.7572 -0.7206
  185MOL     O740855   0.479   0.105   1.778  0.0689 -0.1562  0.1194
  185MOL     H840856   0.595   8.179   1.929 -1.1642  1.1528  0.3229
  185MOL     H940857   0.705   7.978   1.851 -1.7477 -1.5651 -0.2786
  185MOL    H1040858   0.575   8.074   1.446  2.0871  2.5456  0.0775
  185MOL    H1140859   0.491   0.024   1.521  0.7990 -0.6640 -0.5553
  185MOL    H1240860   0.697   7.913   1.610 -1.2195 -1.1023  1.4988
  185MOL    C1340861   0.181   0.074   1.983 -0.0508 -0.0116 -0.7727
  185MOL    C1440862   0.310   0.075   1.948 -0.7850 -0.4290 -0.1533
  185MOL    C1540863   0.354   0.106   1.819  0.7078 -0.1896  0.6355
  185MOL    C1640864   0.252   0.147   1.726 -0.5016  0.3349  0.5344
  185MOL    C1740865   0.121   0.160   1.759 -0.6244  1.3312 -0.2609
  185MOL    C1840866   0.086   0.119   1.890  0.4581  0.8173  0.8282
  185MOL    O1940867   8.210   0.143   1.931  0.9404  0.6684  0.2162
  185MOL    H2040868   0.158   0.034   2.081  2.3541  1.2066  0.3260
  185MOL    H2140869   0.382   0.036   2.019 -1.2799 -1.0737 -0.0074
  185MOL    H2240870   0.287   0.189   1.633  0.8283 -2.3299 -0.2214
  185MOL    H2340871   0.049   0.193   1.685 -0.4364 -0.4099 -1.2602
  185MOL    C2440872   8.207   0.310   2.271  0.2156  0.5016 -0.6066
  185MOL    C2540873   0.003   0.261   2.150 -0.1240 -0.2540  0.6460
  185MOL    C2640874   8.174   0.192   2.058 -0.0955 -0.1983  0.0468
  185MOL    C2740875   8.037   0.184   2.086  0.2930  0.8075  0.5158
  185MOL    C2840876   7.981   0.226   2.209 -0.4843  0.7199 -0.1515
  185MOL    C2940877   8.071   0.289   2.309 -0.3928  0.5388 -0.3673
  185MOL    O3040878   8.018   0.323   2.429 -0.5687 -0.3011 -0.1955
  185MOL    H3140879   0.019   0.351   2.345  1.6682 -2.2739 -0.2754
  185MOL    H3240880   0.107   0.285   2.133 -0.3718  1.0828  0.9157
  185MOL    H3340881   7.978   0.134   2.011  1.9576  2.0399 -1.6982
  185MOL    H3440882   7.882   0.194   2.238 -0.3937  1.3317  0.8847
  185MOL    C3540883   8.143   0.202   2.753 -0.4266 -0.4399  0.0881
  185MOL    C3640884   8.103   0.292   2.653  0.0682  0.3718  0.0224
  185MOL    C3740885   8.057   0.238   2.528  0.1466  0.2092  0.1987
  185MOL    C3840886   8.033   0.102   2.511  0.1552 -0.0444 -0.7262
  185MOL    C3940887   8.082   0.010   2.610 -0.3899  0.1522  0.7018
  185MOL    C4040888   8.137   0.063   2.731 -0.6276  0.2770  0.2991
  185MOL    O4140889   8.186   8.235   2.836 -0.3749 -0.0089 -0.0091
  185MOL    H4240890   8.168   0.242   2.850  2.7187 -2.4068  0.1532
  185MOL    H4340891   8.115   0.398   2.666 -2.7691  0.6130  0.8721
  185MOL    H4440892   7.987   0.070   2.418 -0.4459 -1.5966  0.0925
  185MOL    H4540893   8.060   8.159   2.596 -2.5762  0.4170  1.9572
  185MOL    C4640894   0.156   7.940   2.871  0.6542  0.0964 -0.1890
  185MOL    C4740895   0.050   8.031   2.894  0.1222  0.2866  0.1664
  185MOL    C4840896   0.028   8.146   2.810 -0.0728  0.6184  0.6161
  185MOL    C4940897   0.123   8.167   2.708  0.8107 -0.0346  0.6799
  185MOL    C5040898   0.222   8.073   2.683 -0.4881  0.0467  0.4928
  185MOL    C5140899   0.233   7.954   2.757 -0.1119  0.9802  0.1474
  185MOL    O5240900   0.337   7.867   2.743  0.0040  0.4608  0.5135
  185MOL    H5340901   0.164   7.862   2.944  2.5202  2.4957  2.2419
  185MOL    H5440902   8.246   8.016   2.984  0.6309 -0.8125  0.3157
  185MOL    H5540903   0.120   0.008   2.657 -0.0161 -0.6386 -0.4043
  185MOL    H5640904   0.291   8.090   2.601  2.1459 -2.3847  2.0883
  185MOL    C5740905   0.517   7.746   2.448  0.8427 -0.0318 -0.1313
  185MOL    C5840906   0.491   7.804   2.577  0.4931  0.1880  0.2650
  185MOL    C5940907   0.361   7.820   2.620 -0.4992 -0.1244 -0.7975
  185MOL    C6040908   0.255   7.789   2.543  0.3941  0.0980 -0.9368
  185MOL    C6140909   0.279   7.729   2.417 -0.5796 -0.4293  0.1206
  185MOL    C6240910   0.411   7.715   2.368  1.0753 -0.3086 -0.4766
  185MOL    O6340911   0.442   7.665   2.245 -0.0978  0.4213  0.6659
  185MOL    H6440912   0.622   7.736   2.423  1.0030  1.4272 -0.1010
  185MOL    H6540913   0.567   7.841   2.643  0.4007  3.3949 -1.3105
  185MOL    H6640914   0.155   7.801   2.581  0.8819 -0.8326  0.7399
  185MOL    H6740915   0.191   7.707   2.359 -1.4858 -2.1242  2.0722
  185MOL    C6840916   0.388   7.303   2.224 -0.2472  0.8296 -0.1434
  185MOL    C6940917   0.427   7.429   2.273 -0.1556 -0.1434 -0.2124
  185MOL    C7040918   0.395   7.546   2.198  0.7521 -0.0675  0.8226
  185MOL    C7140919   0.302   7.545   2.088  0.4401 -0.4693 -0.1099
  185MOL    C7240920   0.269   7.419   2.042 -0.2308 -0.0633 -0.2971
  185MOL    C7340921   0.308   7.298   2.106  0.3838 -0.6362 -0.0029
  185MOL    O7440922   0.258   7.181   2.055  0.1243 -0.3483 -0.7548
  185MOL    H7540923   0.410   7.212   2.277 -0.3153  0.8324 -0.1097
  185MOL    H7640924   0.496   7.432   2.355  1.7529 -1.1997 -1.7392
  185MOL    H7740925   0.266   7.636   2.042 -0.3374 -1.8395 -2.2961
  185MOL    H7840926   0.214   7.418   1.948 -0.2879 -2.5866 -0.2590
  185MOL    C7940927   8.224   7.093   2.271 -0.9080 -0.2683  0.1774
  185MOL    C8040928   0.101   7.114   2.229  0.0074 -0.0056  0.2042
  185MOL    C8140929   0.133   7.153   2.094  0.4075  0.0907  0.1645
  185MOL    C8240930   0.027   7.158   2.000 -0.0279 -0.1469  0.6396
  185MOL    C8340931   8.151   7.137   2.045  0.1917 -0.1966  0.7129
  185MOL    C8440932   8.123   7.098   2.175  0.2834  0.2612  0.0846
  185MOL    O8540933   7.996   7.069   2.212 -0.1566  0.1932  0.1536
  185MOL    H8640934   8.208   7.061   2.373 -0.1585  0.6382  0.5894
  185MOL    H8740935   0.173   7.099   2.308 -0.5208 -1.1184  0.4808
  185MOL    H8840936   0.033   7.187   1.895 -1.3952 -1.1316  0.2823
  185MOL    H8940937   8.069   7.146   1.976 -0.7159  2.9497  2.0663
  185MOL    C9040938   7.867   7.319   2.441  0.1721 -0.4346 -0.6399
  185MOL    C9140939   7.915   7.265   2.323  1.2062  0.3920  0.4831
  185MOL    C9240940   7.940   7.129   2.323 -0.3586 -0.2520  0.0853
  185MOL    C9340941   7.911   7.047   2.437 -0.2864  0.0410  0.6106
  185MOL    C9440942   7.849   7.099   2.551 -0.5080  0.4298  0.5436
  185MOL    C9540943   7.822   7.238   2.549 -0.5435 -0.2530  0.2256
  185MOL    O9640944   7.774   7.297   2.666 -0.1164  0.0648  0.4450
  185MOL    H9740945   7.854   7.425   2.459 -1.2020 -1.0264  2.0913
  185MOL    H9840946   7.942   7.329   2.240  0.1921 -1.6451 -1.5083
  185MOL    H9940947   7.936   6.942   2.436 -1.4280 -0.2769  3.1912
  185MOL   H10040948   7.828   7.040   2.639  2.0093 -1.5948 -0.1559
  185MOL   C10140949   7.990   7.227   2.939  0.4489  0.9481  0.2150
  185MOL   C10240950   7.933   7.298   2.837  0.0247  0.8608  0.3578
  185MOL   C10340951   7.806   7.255   2.792  0.7345  0.1875 -0.1827
  185MOL   C10440952   7.723   7.166   2.868 -0.2177 -0.2651  0.2134
  185MOL   C10540953   7.777   7.118   2.984 -0.0677 -0.1225  0.1169
  185MOL   C10640954   7.911   7.141   3.019  0.7566  0.0003 -0.4294
  185MOL   O10740955   7.964   7.093   3.134 -0.2703  0.7811  0.1000
  185MOL   H10840956   8.097   7.232   2.952  0.6875  0.6974 -1.4933
  185MOL   H10940957   7.997   7.359   2.776 -0.1115  0.3917 -0.2520
  185MOL   H11040958   7.632   7.130   2.822  0.3109  0.6213 -1.5531
  185MOL   H11140959   7.724   7.052   3.051 -0.5276 -0.1730 -0.2865
  185MOL   C11240960   8.045   6.739   3.179  0.2000  0.0044  0.8384
  185MOL   C11340961   7.971   6.858   3.189  1.0187  0.0329 -0.2287
  185MOL   C11440962   8.029   6.977   3.132 -0.9461 -0.2286 -0.6268
  185MOL   C11540963   8.162   6.981   3.084  0.3415 -0.3460 -0.3520
  185MOL   C11640964   8.232   6.857   3.085 -0.3917  0.0393  0.7267
  185MOL   C11740965   8.173   6.737   3.122  0.9503  1.2131 -0.3023
  185MOL   O11840966   8.251   6.626   3.129 -0.1279  0.9393  0.0424
  185MOL   H11940967   7.997   6.648   3.213  0.3092 -0.1839  0.4878
  185MOL   H12040968   7.873   6.871   3.233 -0.1478  0.2500 -2.7993
  185MOL   H12140969   8.214   7.073   3.063 -0.4896  0.3400  0.5536
  185MOL   H12240970   0.074   6.857   3.035 -0.4335 -2.8938  0.5382
  185MOL   C12340971   8.170   6.401   2.857 -0.1855 -0.5469 -0.9178
  185MOL   C12440972   8.216   6.517   2.922 -0.2346 -0.1912  0.2974
  185MOL   C12540973   8.214   6.512   3.060 -0.1830  0.5635 -0.0189
  185MOL   C12640974   8.185   6.388   3.128 -0.6974 -0.0090 -0.6627
  185MOL   C12740975   8.134   6.275   3.063  0.1382 -0.1341 -0.0418
  185MOL   C12840976   8.121   6.289   2.927  0.2722  0.4725 -0.2613
  185MOL   O12940977   8.052   6.187   2.858  0.6814  0.8687  0.2173
  185MOL   H13040978   8.169   6.407   2.749 -2.2283  1.0634 -0.8461
  185MOL   H13140979   8.251   6.610   2.878 -0.3298  1.4269  3.4638
  185MOL   H13240980   8.187   6.387   3.236 -0.8254 -1.6013 -0.6710
  185MOL   H13340981   8.102   6.188   3.119 -0.5212  1.0877  1.5184
  185MOL   C13440982   7.687   6.257   2.906 -0.1735 -0.1714  0.1688
  185MOL   C13540983   7.822   6.227   2.933  0.0186  0.3745  0.0051
  185MOL   C13640984   7.922   6.224   2.830  0.8614 -0.6199  0.0610
  185MOL   C13740985   7.880   6.261   2.699  0.0825 -0.1208 -0.6748
  185MOL   C13840986   7.743   6.283   2.667  0.0948 -0.0841  0.3855
  185MOL   C13940987   7.648   6.273   2.771  1.1788 -0.0035 -0.0203
  185MOL   O14040988   7.514   6.274   2.741  0.1159  0.0489  1.2360
  185MOL   H14140989   7.612   6.260   2.983  1.1460  2.6532  1.4144
  185MOL   H14240990   7.846   6.211   3.037  1.5435 -0.3512 -0.4328
  185MOL   H14340991   7.958   6.273   2.624  1.2714  1.3174  0.7470
  185MOL   H14440992   7.702   6.317   2.573  2.0199 -0.2306 -0.5439
  185MOL   C14540993   7.409   5.969   2.552 -0.5807 -0.0403  0.5937
  185MOL   C14640994   7.467   6.096   2.575 -0.3891 -0.8623 -1.0438
  185MOL   C14740995   7.463   6.150   2.709 -0.4554  0.3848  0.3027
  185MOL   C14840996   7.395   6.079   2.807  0.2711  0.1131 -0.0480
  185MOL   C14940997   7.327   5.958   2.778 -0.0059 -0.1829  0.4111
  185MOL   C15040998   7.343   5.895   2.650  0.0815 -0.3445 -1.1398
  185MOL   O15140999   7.287   5.776   2.617 -0.0926 -0.2296  0.4228
  185MOL   H15241000   7.409   5.919   2.457 -1.2423  0.0278  0.5530
  185MOL   H15341001   7.515   6.139   2.488 -0.4597  1.4013  0.0011
  185MOL   H15441002   7.394   6.128   2.903  1.5424 -1.7107  0.9015
  185MOL   H15541003   7.253   5.918   2.846 -2.2276  0.7863 -1.3687
  185MOL   C15641004   7.580   5.545   2.639 -0.0873  0.4468 -0.9319
  185MOL   C15741005   7.495   5.655   2.609 -0.3466  0.2431 -0.2890
  185MOL   C15841006   7.358   5.664   2.639 -0.5046 -0.7708 -0.8040
  185MOL   C15941007   7.304   5.551   2.709  0.1754  0.2819  0.7336
  185MOL   C16041008   7.378   5.434   2.734 -0.2856 -0.0205 -0.1015
  185MOL   C16141009   7.515   5.435   2.698  0.7035 -0.9936  0.3650
  185MOL   O16241010   7.589   5.326   2.730  0.2151  0.2219  0.3268
  185MOL   H16341011   7.688   5.538   2.633 -0.1768 -3.0078  0.3314
  185MOL   H16441012   7.533   5.745   2.561  0.2239 -0.1444 -0.5803
  185MOL   H16541013   7.201   5.566   2.738 -0.1357  1.7404 -1.0169
  185MOL   H16641014   7.336   5.351   2.789  0.1204 -1.1591 -1.5010
  185MOL   C16741015   7.899   5.240   2.898  0.1886  0.4679  0.1073
  185MOL   C16841016   7.790   5.229   2.815  0.7060  0.1477 -0.4842
  185MOL   C16941017   7.696   5.333   2.814  0.4569 -0.3799  1.0432
  185MOL   C17041018   7.708   5.442   2.899  0.0596 -0.4624 -0.3441
  185MOL   C17141019   7.818   5.453   2.985 -0.1838 -0.0990 -0.3531
  185MOL   C17241020   7.920   5.352   2.989 -0.2475 -0.0051  0.0828
  185MOL   O17341021   8.017   5.372   3.081 -0.4009 -0.2757  0.3458
  185MOL   H17441022   7.961   5.152   2.890 -0.7215 -0.0317 -1.6272
  185MOL   H17541023   7.775   5.138   2.758  1.0839  0.4449 -1.0627
  185MOL   H17641024   7.623   5.507   2.915  1.0554  0.7571  0.1051
  185MOL   H17741025   7.841   5.541   3.044  0.7638 -0.4504 -0.1854
  185MOL   C17841026   8.040   5.050   3.265 -0.2701  0.1239  0.2404
  185MOL   C17941027   8.057   5.142   3.162  0.1515 -0.7624 -0.4905
  185MOL   C18041028   8.018   5.280   3.182  0.5484  0.4466 -0.0951
  185MOL   C18141029   7.966   5.317   3.305  0.9399 -0.0600 -0.2838
  185MOL   C18241030   7.950   5.218   3.408 -0.7348 -1.2271 -0.6199
  185MOL   C18341031   7.983   5.085   3.385  0.2972  0.2252 -0.1943
  185MOL   O18441032   7.960   4.989   3.483 -0.6219  0.1955 -0.6903
  185MOL   H18541033   8.082   4.951   3.250 -1.9941 -0.5782 -0.0239
  185MOL   H18641034   8.100   5.115   3.067  0.2945 -0.3228 -0.5523
  185MOL   H18741035   7.930   5.418   3.320 -0.2226 -0.6429  0.9426
  185MOL   H18841036   7.899   5.238   3.500  0.9436  0.1146  0.0506
  185MOL   C18941037   7.778   4.682   3.376  0.4711 -0.0007 -0.3075
  185MOL   C19041038   7.884   4.767   3.404 -0.2061  0.2466  0.4302
  185MOL   C19141039   7.860   4.895   3.459  0.2372  0.4673 -0.1123
  185MOL   C19241040   7.734   4.927   3.491 -0.3513 -0.4972  0.2685
  185MOL   C19341041   7.623   4.854   3.456  0.5649 -0.4637  0.2745
  185MOL   C19441042   7.647   4.728   3.402 -1.0412  0.2343  0.4493
  185MOL   O19541043   7.552   4.635   3.359 -0.2255  0.4333  0.2146
  185MOL   H19641044   7.801   4.589   3.327 -0.4780  0.8147 -2.3917
  185MOL   H19741045   7.980   4.738   3.364 -0.6934 -0.5554 -0.1663
  185MOL   H19841046   7.725   5.027   3.531  1.8575 -0.6387  1.1882
  185MOL   H19941047   7.520   4.888   3.460  1.1230  1.5987 -1.4268
  185MOL   C20041048   7.183   4.679   3.370  0.2980  0.7463 -0.4614
  185MOL   C20141049   7.316   4.647   3.408  0.1476  0.8428 -0.1759
  185MOL   C20241050   7.422   4.672   3.320  0.5109 -0.4421  0.2916
  185MOL   C20341051   7.394   4.735   3.199  0.4882  0.1376 -0.4308
  185MOL   C20441052   7.262   4.767   3.158  0.1194  0.2228 -0.2861
  185MOL   C20541053   7.157   4.740   3.245  0.4981 -0.3590 -0.1433
  185MOL   O20641054   7.024   4.748   3.205 -0.0399  0.1962  0.2215
  185MOL   H20741055   7.102   4.646   3.433  1.5890  2.5346  2.2424
  185MOL   H20841056   7.332   4.599   3.504  0.2399  1.6140  0.2015
  185MOL   H20941057   7.472   4.762   3.128  0.4906 -0.5784 -0.7129
  185MOL   H21041058   7.229   4.800   3.060 -0.8149  5.5675  1.6966
  185MOL   C21141059   6.907   4.434   3.041 -0.7326 -0.4307 -0.7926
  185MOL   C21241060   6.981   4.556   3.059  0.0494  0.1275 -0.5851
  185MOL   C21341061   6.951   4.633   3.172  0.1547  0.5742 -0.2998
  185MOL   C21441062   6.836   4.609   3.247 -0.6923  0.6756 -0.5760
  185MOL   C21541063   6.774   4.488   3.231 -0.0566  0.0449 -0.3838
  185MOL   C21641064   6.800   4.398   3.129 -0.8974  0.1754 -0.2237
  185MOL   O21741065   6.734   4.277   3.118 -0.1705  0.4302  0.5230
  185MOL   H21841066   6.938   4.366   2.963  3.0780 -0.7480  0.8471
  185MOL   H21941067   7.066   4.581   2.998 -1.1315  0.5536 -2.0685
  185MOL   H22041068   6.813   4.672   3.331 -2.6893  0.1293 -0.6814
  185MOL   H22141069   6.702   4.461   3.306 -0.5391  2.8699  0.2057
  185MOL   H22241070   6.732   4.231   3.035 -1.0117 -1.6204  1.6272
  186MOL     C141071   3.098   5.461   0.350  0.4860  0.3403  0.1309
  186MOL     C241072   3.100   5.449   0.205  0.0605  0.3024 -0.3074
  186MOL     C341073   3.209   5.495   0.134  0.5179 -0.6114  0.2729
  186MOL     C441074   3.304   5.571   0.203  0.0560 -0.7367 -0.4854
  186MOL     C541075   3.283   5.613   0.338  0.7741 -0.4913 -0.0795
  186MOL     C641076   3.186   5.552   0.415  0.0477  0.4122  0.4992
  186MOL     O741077   3.184   5.569   0.553 -0.3555 -0.4847  0.1472
  186MOL     H841078   3.029   5.393   0.399 -1.7599 -0.6166 -4.1332
  186MOL     H941079   3.014   5.401   0.161  0.1119  0.1146 -0.2010
  186MOL    H1041080   3.395   5.606   0.155 -0.5287  0.5744 -0.6452
  186MOL    H1141081   3.352   5.688   0.375  0.0222 -1.8572  4.3592
  186MOL    H1241082   3.211   5.475   0.028 -1.1576  1.2347 -0.1281
  186MOL    C1341083   2.976   5.872   0.606 -0.1586  0.6903 -0.6476
  186MOL    C1441084   3.017   5.743   0.564  0.5409 -0.4588 -1.1835
  186MOL    C1541085   3.141   5.692   0.598 -0.7550  0.1968  0.2049
  186MOL    C1641086   3.227   5.762   0.680 -0.2373  0.4986 -0.1439
  186MOL    C1741087   3.190   5.896   0.719 -0.3900  0.6318  0.6383
  186MOL    C1841088   3.061   5.949   0.688 -0.5413 -0.9415 -0.2749
  186MOL    O1941089   3.016   6.067   0.739 -0.2549  0.0576  0.0410
  186MOL    H2041090   2.879   5.900   0.568 -0.3537 -1.8077 -2.0846
  186MOL    H2141091   2.948   5.687   0.503  0.7697 -0.5100 -1.3945
  186MOL    H2241092   3.324   5.728   0.713 -1.0913 -0.4650  1.4582
  186MOL    H2341093   3.254   5.962   0.775  1.7719 -0.0767 -0.9229
  186MOL    C2441094   3.006   6.333   0.482 -0.4220  0.2700 -0.4430
  186MOL    C2541095   3.021   6.205   0.538  0.9962  0.0611 -0.5132
  186MOL    C2641096   2.988   6.183   0.672 -0.5804 -0.5179 -0.3847
  186MOL    C2741097   2.911   6.281   0.740  0.6152  0.6678 -0.7497
  186MOL    C2841098   2.884   6.412   0.679  0.2384  0.4455 -0.1987
  186MOL    C2941099   2.934   6.437   0.552 -0.9170 -0.0690 -0.2570
  186MOL    O3041100   2.914   6.557   0.496 -0.0331  0.5301 -0.3809
  186MOL    H3141101   3.051   6.338   0.384 -0.8731  0.4537 -0.6441
  186MOL    H3241102   3.072   6.136   0.473  1.3696  0.9370 -1.1672
  186MOL    H3341103   2.883   6.258   0.841  2.0123  1.0542 -0.2650
  186MOL    H3441104   2.837   6.492   0.734 -1.3961 -1.5450  1.3623
  186MOL    C3541105   2.667   6.562   0.226  0.1157 -0.0858 -0.3135
  186MOL    C3641106   2.789   6.539   0.300  0.5043 -0.5801 -0.1676
  186MOL    C3741107   2.800   6.581   0.429  0.3080 -0.2675 -0.5208
  186MOL    C3841108   2.699   6.661   0.493  0.0418  0.3780  0.5054
  186MOL    C3941109   2.578   6.681   0.423  0.0695  0.1921 -0.3299
  186MOL    C4041110   2.567   6.640   0.293  0.6363 -0.6157 -0.0882
  186MOL    O4141111   2.450   6.659   0.232 -0.3392  0.1636  0.6247
  186MOL    H4241112   2.645   6.521   0.128  1.3701 -0.6425 -0.3806
  186MOL    H4341113   2.876   6.492   0.258  0.9507 -0.8857  1.0731
  186MOL    H4441114   2.713   6.668   0.600 -1.1920  1.4483  0.6079
  186MOL    H4541115   2.489   6.712   0.476 -0.8196 -1.5830 -0.7434
  186MOL    C4641116   2.421   6.991   0.078 -0.1079  0.2109 -0.4450
  186MOL    C4741117   2.474   6.868   0.117 -0.6595  0.1250  0.4004
  186MOL    C4841118   2.411   6.790   0.216 -0.3640 -0.4185  0.1141
  186MOL    C4941119   2.303   6.844   0.289  0.5060 -0.6248 -0.5558
  186MOL    C5041120   2.249   6.967   0.247 -0.0126 -0.2475 -0.4245
  186MOL    C5141121   2.308   7.038   0.142  0.6845  0.8828  0.2072
  186MOL    O5241122   2.242   7.149   0.101  0.5078  0.3258  0.2926
  186MOL    H5341123   2.472   7.053   0.006  0.0044  1.1736  0.4474
  186MOL    H5441124   2.553   6.832   0.054 -2.1166 -1.7935 -0.3844
  186MOL    H5541125   2.245   6.784   0.358  2.2425 -0.6154  0.9634
  186MOL    H5641126   2.167   7.017   0.298  1.0309 -0.3930  1.4369
  186MOL    C5741127   2.192   7.446   0.317  0.1127 -0.0220 -0.3356
  186MOL    C5841128   2.161   7.325   0.252  0.0847  0.9005  0.4859
  186MOL    C5941129   2.258   7.271   0.166 -0.9302  0.3066 -0.3180
  186MOL    C6041130   2.374   7.348   0.141  0.8252 -0.0317  0.2688
  186MOL    C6141131   2.401   7.469   0.195  0.2466 -0.4439 -0.9120
  186MOL    C6241132   2.307   7.520   0.286  0.5338  0.5969  0.2423
  186MOL    O6341133   2.326   7.644   0.348  0.0934  0.4202  0.4721
  186MOL    H6441134   2.119   7.484   0.387 -0.9188 -1.6672 -0.4949
  186MOL    H6541135   2.064   7.279   0.271 -0.3251  1.8365  0.6852
  186MOL    H6641136   2.446   7.305   0.073  1.5566  0.6070  0.6246
  186MOL    H6741137   2.494   7.520   0.174  0.5982 -0.8680 -0.3983
  186MOL    C6841138   2.204   7.734   0.683  0.3383  0.3208  0.3658
  186MOL    C6941139   2.227   7.738   0.548  0.5730 -0.3278  0.6211
  186MOL    C7041140   2.321   7.650   0.482  0.1967 -0.0982 -0.1887
  186MOL    C7141141   2.401   7.566   0.567 -0.4562 -0.4927  0.4463
  186MOL    C7241142   2.388   7.579   0.708 -0.5883 -0.5562 -0.3888
  186MOL    C7341143   2.287   7.652   0.761  0.1005 -0.6507  0.1064
  186MOL    O7441144   2.265   7.660   0.898  0.2555 -0.4186 -0.5999
  186MOL    H7541145   2.122   7.792   0.724 -1.1142 -0.9116 -0.7620
  186MOL    H7641146   2.168   7.804   0.487  0.6696 -1.9556 -1.2968
  186MOL    H7741147   2.460   7.487   0.523 -0.8840  1.1614 -3.2035
  186MOL    H7841148   2.449   7.518   0.773 -0.8409 -1.0721 -0.6372
  186MOL    C7941149   2.223   7.299   0.990 -0.0088  0.2390 -0.3742
  186MOL    C8041150   2.237   7.410   0.909 -0.2758 -0.5679  0.4498
  186MOL    C8141151   2.231   7.542   0.964  0.2678 -0.1589 -0.5832
  186MOL    C8241152   2.181   7.554   1.099  0.1411 -0.0072 -0.2903
  186MOL    C8341153   2.166   7.443   1.183 -0.4383  0.0521  0.2999
  186MOL    C8441154   2.186   7.316   1.122  0.0610 -0.3069  0.1322
  186MOL    O8541155   2.170   7.199   1.190  0.4669 -0.2949  0.7284
  186MOL    H8641156   2.232   7.199   0.950  0.1380 -0.0416  0.3516
  186MOL    H8741157   2.250   7.392   0.804  1.0295 -0.6255  0.6095
  186MOL    H8841158   2.164   7.649   1.149 -2.6351 -0.5265 -0.1396
  186MOL    H8941159   2.144   7.454   1.288  2.7151  0.0506  1.0070
  186MOL    C9041160   1.805   7.173   1.240 -0.1817 -0.4789  0.4351
  186MOL    C9141161   1.926   7.192   1.171  0.5593 -0.5561  0.0786
  186MOL    C9241162   2.047   7.176   1.244 -0.5191  0.4303 -0.1732
  186MOL    C9341163   2.041   7.142   1.378 -0.0958 -0.6810 -0.0717
  186MOL    C9441164   1.922   7.142   1.452 -0.1631 -1.1911 -0.0798
  186MOL    C9541165   1.802   7.150   1.381 -0.5144 -0.4662 -0.1244
  186MOL    O9641166   1.688   7.130   1.453 -0.3267  0.2934 -0.0346
  186MOL    H9741167   1.713   7.173   1.184  0.5438  3.5113 -0.9174
  186MOL    H9841168   1.924   7.220   1.067  1.4465 -0.0023  0.1989
  186MOL    H9941169   2.137   7.138   1.427 -1.2975  0.6612  2.4902
  186MOL   H10041170   1.926   7.122   1.558 -1.2920 -0.0941  0.1845
  186MOL   C10141171   1.371   6.935   1.437  0.8549  0.0247  0.4198
  186MOL   C10241172   1.464   7.034   1.471  0.3097 -0.1227 -0.2353
  186MOL   C10341173   1.590   7.035   1.408 -0.1640  0.2380 -0.7384
  186MOL   C10441174   1.620   6.938   1.311  0.1664 -0.0759 -0.5376
  186MOL   C10541175   1.526   6.839   1.282  0.4848  0.3906 -0.4216
  186MOL   C10641176   1.403   6.828   1.347  0.3427  0.0693 -0.1399
  186MOL   O10741177   1.322   6.720   1.341  0.4798 -0.0701  0.2688
  186MOL   H10841178   1.278   6.933   1.492 -0.2966 -0.7325 -1.5092
  186MOL   H10941179   1.439   7.110   1.543  2.0954  0.4350 -0.1702
  186MOL   H11041180   1.720   6.934   1.272 -0.4399  1.4582 -2.3239
  186MOL   H11141181   1.563   6.763   1.214 -0.9999  0.3945 -1.2650
  186MOL   C11241182   1.209   6.603   1.011  0.1034  1.0901  0.3818
  186MOL   C11341183   1.283   6.624   1.125 -0.1877 -0.0401  0.0333
  186MOL   C11441184   1.246   6.711   1.227  0.2899  0.1549 -0.1423
  186MOL   C11541185   1.131   6.788   1.212  0.1001  0.6358 -0.3153
  186MOL   C11641186   1.044   6.759   1.106 -0.3683 -0.1115 -0.0699
  186MOL   C11741187   1.086   6.665   1.004 -0.0121  0.3999  0.3662
  186MOL   O11841188   1.000   6.639   0.902 -0.3398 -0.1370 -0.1779
  186MOL   H11941189   1.240   6.521   0.948  0.3399  0.5571  1.1887
  186MOL   H12041190   1.375   6.568   1.134  1.2285  2.5150  2.0380
  186MOL   H12141191   1.109   6.862   1.288  1.1202  1.4609 -0.8163
  186MOL   H12241192   0.952   6.814   1.093  0.5536  1.3149 -0.7533
  186MOL   C12341193   0.684   6.471   1.004 -0.0539 -0.1386  0.1733
  186MOL   C12441194   0.776   6.574   0.983  0.6656 -0.5246 -0.4784
  186MOL   C12541195   0.904   6.547   0.929  0.3438  0.8690  0.1936
  186MOL   C12641196   0.932   6.410   0.897  0.2897 -0.7082  0.8968
  186MOL   C12741197   0.837   6.305   0.911 -0.5681 -0.5230 -1.1050
  186MOL   C12841198   0.711   6.339   0.963  0.0232 -0.2665 -0.4511
  186MOL   O12941199   0.615   6.250   0.992 -0.1890  0.6464  0.0527
  186MOL   H13041200   0.588   6.489   1.049  0.0516 -0.4969  0.5487
  186MOL   H13141201   0.743   6.670   1.018 -0.3860 -1.6285  1.6265
  186MOL   H13241202   1.031   6.391   0.860 -0.6237 -0.8482 -1.5675
  186MOL   H13341203   0.857   6.204   0.878  0.6671 -1.1278  1.4074
  186MOL   C13441204   0.731   5.944   1.162 -0.8110 -0.1663  0.0267
  186MOL   C13541205   0.701   6.078   1.135 -0.3917  0.2861  0.9348
  186MOL   C13641206   0.645   6.118   1.013 -0.5287  0.5256  0.2882
  186MOL   C13741207   0.615   6.021   0.922  0.6901  0.6636 -0.1252
  186MOL   C13841208   0.630   5.882   0.954 -0.1054  1.1147 -0.7662
  186MOL   C13941209   0.693   5.844   1.073  0.2057  0.3693  0.0211
  186MOL   O14041210   0.714   5.712   1.102  0.4287  0.8606 -0.1603
  186MOL   H14141211   0.777   5.916   1.256 -0.7778 -1.5524 -0.3991
  186MOL   H14241212   0.712   6.152   1.212 -1.7151  0.0398  1.3762
  186MOL   H14341213   0.583   6.046   0.822 -2.5041 -0.3300  0.5761
  186MOL   H14441214   0.603   5.808   0.880  1.9242 -0.0809 -0.3276
  186MOL   C14541215   0.602   5.428   0.900  0.5632 -0.0420 -0.4974
  186MOL   C14641216   0.602   5.524   1.001  0.3950 -0.3614 -0.0662
  186MOL   C14741217   0.706   5.616   1.009 -0.3933 -0.1836 -0.3317
  186MOL   C14841218   0.805   5.619   0.910 -0.2111 -0.4105  0.0974
  186MOL   C14941219   0.801   5.527   0.806 -0.2113  0.2015 -0.0358
  186MOL   C15041220   0.702   5.428   0.802  0.7473 -0.0564 -0.2836
  186MOL   O15141221   0.695   5.343   0.696  0.3905  0.1381  0.4461
  186MOL   H15241222   0.522   5.357   0.917 -1.9167  2.1713 -2.4958
  186MOL   H15341223   0.518   5.520   1.068 -2.2262  1.3675 -3.1249
  186MOL   H15441224   0.884   5.692   0.909  0.3886 -1.0551 -0.1331
  186MOL   H15541225   0.867   5.536   0.721  0.5387 -0.0481  0.5215
  186MOL   C15641226   0.476   5.247   0.417  0.0012 -0.1812 -0.5581
  186MOL   C15741227   0.577   5.242   0.516  0.1207  0.5278 -0.5653
  186MOL   C15841228   0.604   5.353   0.600  1.2733  0.1893 -0.1631
  186MOL   C15941229   0.531   5.479   0.575 -0.6045  0.0120  0.0443
  186MOL   C16041230   0.440   5.485   0.469 -0.3439 -0.0486 -0.0081
  186MOL   C16141231   0.407   5.371   0.398 -0.4125 -0.0280  0.6405
  186MOL   O16241232   0.308   5.380   0.308 -0.5262 -0.0243  0.0158
  186MOL   H16341233   0.460   5.160   0.356 -0.5431 -1.3169  1.1587
  186MOL   H16441234   0.633   5.151   0.528  1.2342  1.0244 -1.8654
  186MOL   H16541235   0.541   5.577   0.619 -0.1105  0.8215 -1.8362
  186MOL   H16641236   0.390   5.578   0.446 -1.2679 -0.0711  1.7892
  186MOL   C16741237   8.244   5.314   0.493 -0.2427  0.1565 -0.4868
  186MOL   C16841238   0.114   5.371   0.463  1.1175 -0.3304 -0.2401
  186MOL   C16941239   0.183   5.334   0.345 -0.2473 -0.3978  0.0284
  186MOL   C17041240   0.124   5.251   0.251  0.2106  0.1462  0.3589
  186MOL   C17141241   0.001   5.187   0.282  0.7649 -0.3237 -0.2299
  186MOL   C17241242   8.188   5.218   0.407 -1.0576 -0.4109 -0.0534
  186MOL   O17341243   8.077   5.143   0.446  0.0714 -0.8374 -0.3456
  186MOL   H17441244   8.192   5.341   0.584 -0.5847 -0.0983 -0.6012
  186MOL   H17541245   0.155   5.436   0.539  2.7315 -1.6559  0.0377
  186MOL   H17641246   0.183   5.237   0.162  0.2215  0.3651  0.3312
  186MOL   H17741247   8.218   5.110   0.216 -0.1858  2.3059 -2.9236
  186MOL   C17841248   7.730   5.246   0.464 -0.1243  0.4646  0.2798
  186MOL   C17941249   7.858   5.199   0.503 -0.1847 -0.3355  0.2407
  186MOL   C18041250   7.957   5.194   0.405 -0.1450 -0.4180 -0.7676
  186MOL   C18141251   7.930   5.229   0.270  0.2068  0.9476 -0.8989
  186MOL   C18241252   7.803   5.270   0.238 -0.3074 -0.5923 -0.6938
  186MOL   C18341253   7.702   5.291   0.330 -0.5312  0.2086  0.5704
  186MOL   O18441254   7.578   5.330   0.286 -0.6342 -0.6179 -0.4742
  186MOL   H18541255   7.650   5.236   0.536 -1.2971 -0.4942 -1.1152
  186MOL   H18641256   7.881   5.162   0.602  0.3339 -0.0773  0.2154
  186MOL   H18741257   8.006   5.218   0.194  1.1676 -1.5850  0.3671
  186MOL   H18841258   7.780   5.281   0.134 -1.3769 -0.6487 -0.4711
  186MOL   C18941259   7.460   5.602   0.493 -0.4908  1.0868 -0.1144
  186MOL   C19041260   7.541   5.524   0.412 -0.2757 -0.1859 -0.2432
  186MOL   C19141261   7.497   5.397   0.371  0.4730  0.0488 -0.2718
  186MOL   C19241262   7.374   5.344   0.424  0.2117 -0.7045  0.5124
  186MOL   C19341263   7.290   5.427   0.494  0.2290  0.2294  0.0866
  186MOL   C19441264   7.329   5.555   0.530 -0.0794  0.1640  0.3788
  186MOL   O19541265   7.252   5.631   0.609 -0.4608 -0.0771  0.7310
  186MOL   H19641266   7.477   5.704   0.526 -1.1460  0.9415  0.6930
  186MOL   H19741267   7.634   5.560   0.371  0.1632 -0.6784  0.3076
  186MOL   H19841268   7.335   5.248   0.391 -0.5583 -0.7522  1.5409
  186MOL   H19941269   7.192   5.392   0.522 -0.1250  2.1027  1.2896
  186MOL   C20041270   7.348   5.539   0.966  0.1553  0.3363 -0.1209
  186MOL   C20141271   7.362   5.579   0.833 -0.1488 -0.0316 -0.1366
  186MOL   C20241272   7.247   5.614   0.748 -0.0113  0.3610  0.2245
  186MOL   C20341273   7.122   5.615   0.810 -0.1980  0.0677 -0.2821
  186MOL   C20441274   7.110   5.590   0.940 -0.0295 -0.0157 -0.0773
  186MOL   C20541275   7.216   5.552   1.024  0.6398 -0.1133 -0.5071
  186MOL   O20641276   7.192   5.508   1.159 -0.1702 -0.1444 -0.3079
  186MOL   H20741277   7.432   5.498   1.021  0.9808  1.1674 -0.7469
  186MOL   H20841278   7.461   5.568   0.790 -0.0750  2.6963 -0.7842
  186MOL   H20941279   7.041   5.655   0.751  0.2064 -1.6317 -2.0688
  186MOL   H21041280   7.009   5.591   0.978  0.0267  3.3448  0.1623
  186MOL   C21141281   7.309   5.595   1.498  0.1091  0.3340 -0.1666
  186MOL   C21241282   7.251   5.524   1.392  0.4505  0.4670  0.1137
  186MOL   C21341283   7.247   5.578   1.262 -0.3786 -0.3926 -0.0325
  186MOL   C21441284   7.284   5.711   1.247 -0.6204  0.1706 -0.2441
  186MOL   C21541285   7.335   5.789   1.354  0.0014  0.8410 -0.6185
  186MOL   C21641286   7.363   5.723   1.474  0.1404 -0.7183  0.3288
  186MOL   O21741287   7.432   5.785   1.569 -0.2091  0.4324 -0.4797
  186MOL   H21841288   7.323   5.535   1.587  3.1530 -0.5059 -1.1250
  186MOL   H21941289   7.208   5.425   1.400  0.1420  0.5544 -0.4353
  186MOL   H22041290   7.284   5.768   1.155  4.3217  1.5233  0.4098
  186MOL   H22141291   7.364   5.892   1.342 -0.5788  1.6897  4.3152
  186MOL   H22241292   7.463   5.731   1.640  0.0634  2.7815  1.2537
  187MOL     C141293   5.245   1.459   3.739  0.9875  0.2818  0.1306
  187MOL     C241294   5.173   1.420   3.856 -0.0002 -0.1981  0.2377
  187MOL     C341295   5.031   1.417   3.849 -0.4302  0.7504 -0.0178
  187MOL     C441296   4.971   1.428   3.721 -0.2949  0.3382  0.3859
  187MOL     C541297   5.046   1.452   3.604 -0.0493  1.1323 -0.2311
  187MOL     C641298   5.179   1.469   3.611 -0.4691  0.4174 -0.1952
  187MOL     O741299   5.251   1.489   3.498 -0.2394  0.4488 -0.0243
  187MOL     H841300   5.349   1.484   3.753  0.6633  0.3550  2.6812
  187MOL     H941301   5.227   1.412   3.949 -0.1936  1.2002  0.4745
  187MOL    H1041302   4.864   1.433   3.707 -0.2120 -0.0990 -0.4224
  187MOL    H1141303   5.004   1.472   3.507  2.3626  1.0522 -1.3244
  187MOL    H1241304   4.973   1.394   3.938  0.5021 -0.1379  0.3690
  187MOL    C1341305   5.301   1.834   3.386 -0.3287 -1.1078  0.1389
  187MOL    C1441306   5.235   1.718   3.426  0.2333 -1.0565  0.4214
  187MOL    C1541307   5.309   1.608   3.475 -0.3663  0.2579 -0.0415
  187MOL    C1641308   5.449   1.622   3.490 -0.0068 -0.7155 -0.4712
  187MOL    C1741309   5.516   1.733   3.436  0.3833  0.1295  0.0848
  187MOL    C1841310   5.444   1.839   3.380  0.0904  0.0086 -0.7929
  187MOL    O1941311   5.508   1.943   3.322  0.5912 -0.0888  0.0575
  187MOL    H2041312   5.251   1.914   3.333 -0.0483 -0.3125  1.0456
  187MOL    H2141313   5.135   1.701   3.389  0.8439  0.0002 -1.8561
  187MOL    H2241314   5.503   1.547   3.546  0.0050  0.6050  1.3177
  187MOL    H2341315   5.622   1.741   3.457  0.3360 -0.0426  0.3918
  187MOL    C2441316   5.701   2.168   3.524 -0.2446  0.5885  0.3840
  187MOL    C2541317   5.654   2.046   3.474 -0.1374  0.3993 -0.0808
  187MOL    C2641318   5.533   2.044   3.405 -0.6248 -0.6069  0.7474
  187MOL    C2741319   5.451   2.159   3.395 -0.0611  0.7978  0.2550
  187MOL    C2841320   5.495   2.275   3.461 -0.0050  0.5929  0.8994
  187MOL    C2941321   5.617   2.285   3.526 -0.0892 -0.1638  0.2578
  187MOL    O3041322   5.663   2.398   3.582 -0.1911  0.3278 -0.0691
  187MOL    H3141323   5.798   2.164   3.571 -0.2454 -0.3716  0.3113
  187MOL    H3241324   5.721   1.962   3.468  3.2906  3.1846 -2.2962
  187MOL    H3341325   5.364   2.150   3.332  1.6307 -0.6456 -1.9625
  187MOL    H3441326   5.436   2.366   3.461  0.5046  0.9261  0.3290
  187MOL    C3541327   5.695   2.637   3.298 -0.6780  0.4183 -0.4518
  187MOL    C3641328   5.700   2.518   3.371  0.4826 -0.3097  0.3404
  187MOL    C3741329   5.653   2.513   3.506 -0.6125  0.3162 -0.4112
  187MOL    C3841330   5.607   2.630   3.568 -0.3091  0.6549 -0.6656
  187MOL    C3941331   5.600   2.750   3.499  1.0335  0.2470 -0.0784
  187MOL    C4041332   5.645   2.752   3.364 -0.1540 -0.1198 -0.9237
  187MOL    O4141333   5.636   2.868   3.286 -0.0065  0.1295 -0.2772
  187MOL    H4241334   5.728   2.642   3.195  2.5049 -0.3864  0.4879
  187MOL    H4341335   5.732   2.425   3.327  1.5689 -0.6504  1.7890
  187MOL    H4441336   5.566   2.622   3.667 -3.0005  0.9335 -1.7013
  187MOL    H4541337   5.563   2.840   3.546 -1.9444 -0.6436 -0.6509
  187MOL    C4641338   5.774   3.150   3.482 -0.1209  0.1196 -0.0551
  187MOL    C4741339   5.766   3.028   3.413  0.3813  0.3567  0.0240
  187MOL    C4841340   5.645   2.990   3.348 -0.0178  0.0684  0.2113
  187MOL    C4941341   5.539   3.084   3.347 -0.2229  0.1442 -0.7848
  187MOL    C5041342   5.542   3.208   3.418  0.7598 -0.3283 -0.0164
  187MOL    C5141343   5.664   3.239   3.486 -1.1528 -0.2600  0.0604
  187MOL    O5241344   5.679   3.356   3.546 -0.3781 -0.3282 -0.1792
  187MOL    H5341345   5.873   3.177   3.517  0.7484 -2.4243 -0.4295
  187MOL    H5441346   5.856   2.971   3.394 -0.4482 -0.8864 -0.2664
  187MOL    H5541347   5.447   3.062   3.294 -0.0631 -0.5798 -0.7673
  187MOL    H5641348   5.460   3.278   3.410 -0.3850 -2.0491 -4.7768
  187MOL    C5741349   5.610   3.662   3.346 -0.9310 -0.7120  0.1084
  187MOL    C5841350   5.669   3.538   3.390 -0.8972  0.0994  0.1561
  187MOL    C5941351   5.617   3.463   3.495  0.2016 -0.4560  0.2204
  187MOL    C6041352   5.502   3.516   3.564  0.0558 -0.1522  1.0197
  187MOL    C6141353   5.445   3.637   3.516  0.3047 -0.2534  0.3956
  187MOL    C6241354   5.497   3.714   3.409  0.0790 -0.1700  0.5682
  187MOL    O6341355   5.431   3.828   3.373  0.2162  0.5296 -0.3766
  187MOL    H6441356   5.652   3.725   3.269 -0.8727 -0.2447  0.5218
  187MOL    H6541357   5.751   3.502   3.330 -0.8308 -0.3689  0.5320
  187MOL    H6641358   5.455   3.462   3.644 -3.9446  0.7506 -0.6172
  187MOL    H6741359   5.361   3.666   3.577 -0.7748 -1.9588 -0.2266
  187MOL    C6841360   5.477   4.108   3.608 -0.4213 -0.0458 -0.2832
  187MOL    C6941361   5.514   4.002   3.524 -0.3215 -0.0558  0.3493
  187MOL    C7041362   5.404   3.923   3.470 -0.3752  0.1898  0.9686
  187MOL    C7141363   5.271   3.941   3.515  0.3956 -0.4880 -0.5284
  187MOL    C7241364   5.245   4.036   3.621  0.2708  0.5907 -0.2757
  187MOL    C7341365   5.346   4.117   3.663 -0.1645 -0.6460  0.1521
  187MOL    O7441366   5.316   4.215   3.758  0.7967  0.4199  0.0276
  187MOL    H7541367   5.559   4.173   3.636  0.1994 -1.1577  0.5598
  187MOL    H7641368   5.614   3.989   3.485 -0.2502  0.0700  0.4896
  187MOL    H7741369   5.200   3.874   3.471  1.0985 -1.1664 -0.6330
  187MOL    H7841370   5.145   4.059   3.656  0.5267  0.0233  0.8563
  187MOL    C7941371   5.490   4.488   3.924 -0.4590  0.5730 -0.0007
  187MOL    C8041372   5.394   4.409   3.863  0.4736  0.2337  0.6412
  187MOL    C8141373   5.411   4.274   3.837  0.1950  0.6399  0.8706
  187MOL    C8241374   5.522   4.198   3.889  0.4755  0.2272 -0.2681
  187MOL    C8341375   5.609   4.275   3.968 -0.3861  0.0123 -0.4139
  187MOL    C8441376   5.601   4.417   3.970 -0.4616  0.4260 -0.5533
  187MOL    O8541377   5.713   4.481   4.026  0.1830 -0.2505  0.6277
  187MOL    H8641378   5.475   4.594   3.923 -0.1408  0.6432 -2.8645
  187MOL    H8741379   5.307   4.460   3.826 -0.0249 -0.3660  0.9716
  187MOL    H8841380   5.535   4.092   3.870 -0.5556 -0.4377  2.5836
  187MOL    H8941381   5.708   4.240   3.994  0.0909  1.1020 -0.7126
  187MOL    C9041382   5.991   4.696   3.939 -0.1201 -0.5162  0.7543
  187MOL    C9141383   5.869   4.653   3.986  0.1202  0.4064 -0.2304
  187MOL    C9241384   5.823   4.522   3.959  0.1196  0.3142  0.7308
  187MOL    C9341385   5.896   4.432   3.881 -0.8413  0.5924  0.0621
  187MOL    C9441386   6.013   4.477   3.813  0.2316  0.4240  0.1686
  187MOL    C9541387   6.055   4.613   3.844 -0.8122  0.8420  0.5821
  187MOL    O9641388   6.182   4.653   3.814  0.3883 -0.5137  0.2185
  187MOL    H9741389   6.020   4.790   3.985 -1.7381 -0.5880  1.9445
  187MOL    H9841390   5.805   4.707   4.054 -0.5473 -1.0953  0.3608
  187MOL    H9941391   5.857   4.332   3.875  1.3569 -0.2494 -0.3537
  187MOL   H10041392   6.059   4.403   3.748 -0.5404  0.6049 -0.5945
  187MOL   C10141393   6.361   4.497   3.520  0.0178 -0.1168 -0.3011
  187MOL   C10241394   6.310   4.522   3.647  0.0402  0.4214 -0.4126
  187MOL   C10341395   6.230   4.636   3.687 -0.2775  0.0447 -0.1101
  187MOL   C10441396   6.192   4.718   3.579  0.3747  0.2313  0.0888
  187MOL   C10541397   6.231   4.687   3.444 -0.0511  0.3132  0.0746
  187MOL   C10641398   6.323   4.579   3.413  0.5503  0.7304 -0.2587
  187MOL   O10741399   6.349   4.544   3.283  0.2959 -0.4766  0.7875
  187MOL   H10841400   6.423   4.409   3.508 -1.1127 -0.7017 -2.0788
  187MOL   H10941401   6.338   4.460   3.732 -0.6139  1.9098  0.9209
  187MOL   H11041402   6.124   4.799   3.599  0.1773 -0.1796  1.1146
  187MOL   H11141403   6.187   4.745   3.365 -0.1922  2.4229  1.6694
  187MOL   C11241404   6.119   4.297   3.120  0.2258 -0.4757  0.9171
  187MOL   C11341405   6.213   4.352   3.213  0.3620 -0.1719  0.3696
  187MOL   C11441406   6.245   4.491   3.204 -0.3455  1.0047 -0.5416
  187MOL   C11541407   6.187   4.568   3.105  0.4901 -0.4025  0.1710
  187MOL   C11641408   6.083   4.518   3.018  0.8599  0.1382 -0.7292
  187MOL   C11741409   6.051   4.381   3.029 -0.4030  0.4729 -0.5913
  187MOL   O11841410   5.949   4.321   2.948  0.0249  0.1350 -0.1495
  187MOL   H11941411   6.091   4.193   3.129 -0.4215 -0.2752  1.2838
  187MOL   H12041412   6.266   4.300   3.291 -0.1992 -0.6307  0.4470
  187MOL   H12141413   6.215   4.672   3.097  2.4564 -0.9423 -0.2359
  187MOL   H12241414   6.037   4.584   2.945  2.1049  0.6861 -1.0244
  187MOL   C12341415   6.113   4.152   2.667 -0.5847 -0.5561 -0.1937
  187MOL   C12441416   6.099   4.239   2.777  0.2624 -0.1918  0.4851
  187MOL   C12541417   5.979   4.227   2.852 -0.1446  0.2637  0.5833
  187MOL   C12641418   5.883   4.129   2.831 -0.1673  0.0956  0.9532
  187MOL   C12741419   5.900   4.039   2.719  0.7118  0.3325 -0.0244
  187MOL   C12841420   6.017   4.047   2.644  0.0268  0.0938  0.9251
  187MOL   O12941421   6.030   3.960   2.540  0.1199 -0.1471  0.3544
  187MOL   H13041422   6.190   4.168   2.593  1.4615 -2.6248  1.4138
  187MOL   H13141423   6.165   4.324   2.783  1.7273 -1.2897  0.0343
  187MOL   H13241424   5.786   4.128   2.879  0.8239  1.1029  3.0406
  187MOL   H13341425   5.828   3.960   2.702  0.1124  0.8741  0.0088
  187MOL   C13441426   6.334   3.762   2.430 -0.7562  0.5416  0.0521
  187MOL   C13541427   6.228   3.853   2.435  0.7536 -0.1717 -0.1859
  187MOL   C13641428   6.142   3.874   2.549  0.4193  0.0907  0.2073
  187MOL   C13741429   6.162   3.788   2.663  0.0221 -0.5898  0.1799
  187MOL   C13841430   6.266   3.698   2.657 -0.8934  1.3280  0.4084
  187MOL   C13941431   6.355   3.681   2.546  0.1246 -0.7895  0.5119
  187MOL   O14041432   6.468   3.601   2.558  0.2469 -0.6715 -0.4665
  187MOL   H14141433   6.399   3.740   2.347 -1.8159  1.5957 -1.0811
  187MOL   H14241434   6.213   3.915   2.347  4.9615  0.4469 -0.5647
  187MOL   H14341435   6.100   3.795   2.751  1.8374  1.5142  1.3559
  187MOL   H14441436   6.293   3.642   2.746 -2.0809  0.8175  0.4554
  187MOL   C14541437   6.524   3.262   2.684  0.3691 -0.0188  0.4107
  187MOL   C14641438   6.540   3.398   2.658  0.0572  0.0508  0.1981
  187MOL   C14741439   6.452   3.470   2.575  0.2116  0.5462  0.3536
  187MOL   C14841440   6.339   3.402   2.511  0.3016 -0.1563 -0.3320
  187MOL   C14941441   6.314   3.266   2.549  0.5190  0.3389 -0.1049
  187MOL   C15041442   6.410   3.195   2.633 -0.0425  0.2899 -0.2224
  187MOL   O15141443   6.380   3.063   2.652 -0.1747  0.1589 -0.9222
  187MOL   H15241444   6.591   3.212   2.753 -1.0361 -1.8202  0.5286
  187MOL   H15341445   6.631   3.444   2.695  0.7146  0.0854 -1.4121
  187MOL   H15441446   6.278   3.452   2.437 -0.6984  1.9293  1.8215
  187MOL   H15541447   6.228   3.220   2.504  1.3639  1.0913 -2.5573
  187MOL   C15641448   6.605   2.860   2.450 -1.6678 -0.5115 -0.6933
  187MOL   C15741449   6.505   2.950   2.478  0.7033 -0.0775 -0.1429
  187MOL   C15841450   6.476   2.973   2.615  0.1685  0.2584  0.1016
  187MOL   C15941451   6.538   2.906   2.720  0.1784 -0.8079 -0.1817
  187MOL   C16041452   6.633   2.813   2.692  0.2839  1.2212 -0.4945
  187MOL   C16141453   6.674   2.793   2.558 -0.0269  0.4527 -0.2054
  187MOL   O16241454   6.779   2.704   2.546  0.1603  0.1592  0.9055
  187MOL   H16341455   6.639   2.831   2.351 -0.4212 -1.6205  0.0388
  187MOL   H16441456   6.462   3.005   2.397  0.2296  0.1971  0.2972
  187MOL   H16541457   6.516   2.928   2.824  1.3685  0.3231 -0.1691
  187MOL   H16641458   6.685   2.768   2.776 -1.2273  2.0797  0.9307
  187MOL   C16741459   7.055   2.679   2.301 -0.2142  0.0709 -0.6496
  187MOL   C16841460   6.980   2.710   2.418  0.1022 -0.1971  0.2517
  187MOL   C16941461   6.844   2.677   2.430  0.7525  0.1509 -0.3765
  187MOL   C17041462   6.785   2.609   2.322 -0.4219 -0.4295  0.1284
  187MOL   C17141463   6.860   2.566   2.215 -0.5594 -0.2871  0.4613
  187MOL   C17241464   6.994   2.605   2.199 -0.1229  0.0480 -0.0020
  187MOL   O17341465   7.058   2.576   2.081 -0.2580  0.2654  0.6865
  187MOL   H17441466   7.161   2.701   2.291 -0.2903  1.1066  0.7451
  187MOL   H17541467   7.036   2.757   2.498  0.0242 -0.7913  0.6568
  187MOL   H17641468   6.681   2.578   2.321 -0.2419 -1.0632  0.5404
  187MOL   H17741469   6.802   2.513   2.142 -1.4603  0.4544  0.6262
  187MOL   C17841470   7.322   2.328   2.129  0.4185 -0.5674  0.5569
  187MOL   C17941471   7.197   2.389   2.138  0.5417 -0.2391 -0.2333
  187MOL   C18041472   7.183   2.520   2.086 -0.2879 -0.3777  0.2761
  187MOL   C18141473   7.288   2.587   2.023 -0.0933  0.0974  0.2228
  187MOL   C18241474   7.413   2.525   2.030  0.5723 -0.3520 -0.7564
  187MOL   C18341475   7.439   2.397   2.083  0.2321 -0.6379  0.2193
  187MOL   O18441476   7.563   2.339   2.085  0.2747  0.1668  0.6652
  187MOL   H18541477   7.353   2.233   2.170 -2.8066 -1.4736  0.9808
  187MOL   H18641478   7.115   2.332   2.180 -1.1049 -2.5226 -6.0488
  187MOL   H18741479   7.271   2.682   1.974  0.3185  0.5103  0.8771
  187MOL   H18841480   7.488   2.586   1.981 -0.6064  0.4907 -1.5361
  187MOL   C18941481   7.574   2.048   1.861  0.1255 -0.1056  0.6298
  187MOL   C19041482   7.566   2.185   1.900  0.5774  0.3194 -0.4035
  187MOL   C19141483   7.577   2.212   2.038  0.1903  0.0372  0.4534
  187MOL   C19241484   7.610   2.112   2.130  0.3620  0.2581  0.3436
  187MOL   C19341485   7.615   1.973   2.094 -0.2103  0.2088 -0.0635
  187MOL   C19441486   7.594   1.942   1.958 -0.5700  0.1876 -0.0378
  187MOL   O19541487   7.614   1.810   1.915  0.1271  0.1329 -0.4853
  187MOL   H19641488   7.572   2.021   1.756  2.3376 -0.1515  0.5799
  187MOL   H19741489   7.555   2.271   1.835  2.2424  0.9030  0.0485
  187MOL   H19841490   7.621   2.140   2.234  1.4440  0.8556  0.0774
  187MOL   H19941491   7.654   1.892   2.153  2.2667  1.3669 -0.0603
  187MOL   C20041492   7.293   1.635   1.887  0.5217 -0.6372  0.2815
  187MOL   C20141493   7.409   1.693   1.937  0.1856  0.4125 -0.0340
  187MOL   C20241494   7.505   1.757   1.857  0.1935 -0.6048 -0.5746
  187MOL   C20341495   7.486   1.763   1.715  0.1277 -0.2537 -0.2143
  187MOL   C20441496   7.370   1.701   1.660  0.4444 -0.5426 -0.4888
  187MOL   C20541497   7.276   1.645   1.749  0.8847 -0.3468 -0.0513
  187MOL   O20641498   7.155   1.594   1.699  0.0825 -0.3800  0.1471
  187MOL   H20741499   7.221   1.597   1.957  0.6052  1.0236  1.2909
  187MOL   H20841500   7.425   1.684   2.043  0.0558 -0.8605 -0.1132
  187MOL   H20941501   7.570   1.807   1.663  0.5137  0.0760  0.6862
  187MOL   H21041502   7.358   1.708   1.553  0.1154 -0.7957 -0.4663
  187MOL   C21141503   7.232   1.245   1.578 -0.0703 -0.2476 -0.4136
  187MOL   C21241504   7.237   1.382   1.598 -1.0485  0.8565 -0.0180
  187MOL   C21341505   7.152   1.455   1.681  0.8095 -0.0677 -0.0183
  187MOL   C21441506   7.051   1.382   1.748  0.3296 -0.1238 -0.9186
  187MOL   C21541507   7.035   1.248   1.725 -0.2281  0.3610  0.0555
  187MOL   C21641508   7.125   1.180   1.641 -0.4343  0.6661  0.3674
  187MOL   O21741509   7.110   1.046   1.630 -0.4818  0.6530  0.0555
  187MOL   H21841510   7.302   1.191   1.516 -0.6398 -2.1054  0.5249
  187MOL   H21941511   7.309   1.449   1.553  0.3630  1.4808  3.0194
  187MOL   H22041512   6.974   1.433   1.803  0.0045 -2.0935  0.4970
  187MOL   H22141513   6.961   1.188   1.777  0.2548  0.4407  0.8495
  187MOL   H22241514   7.169   1.015   1.563 -0.0635  1.0980  0.2121
  188MOL     C141515   3.341   0.110   8.197  0.1974  0.1491 -0.8663
  188MOL     C241516   3.456   0.134   8.106  0.6699 -0.1831  0.4880
  188MOL     C341517   3.582   0.173   8.159 -0.1918 -0.3085  0.3273
  188MOL     C441518   3.591   0.193   0.043 -0.5607  0.0980  0.0288
  188MOL     C541519   3.485   0.169   0.132  0.4065  0.1707 -0.1258
  188MOL     C641520   3.361   0.131   0.082 -0.2867 -0.2633 -0.1666
  188MOL     O741521   3.253   0.125   0.167  0.3096  0.1392 -1.1890
  188MOL     H841522   3.243   0.079   8.166 -1.0770  1.9969  1.1677
  188MOL     H941523   3.445   0.117   8.000  1.6186 -2.6193  0.7564
  188MOL    H1041524   3.684   0.228   0.086  0.1238 -0.3619 -1.0494
  188MOL    H1141525   3.501   0.180   0.238  2.2243 -0.4289 -0.3130
  188MOL    H1241526   3.663   0.198   8.092  0.3487  1.5124  1.6381
  188MOL    C1341527   2.903   0.124   0.041 -0.1536  0.1308  0.5061
  188MOL    C1441528   3.021   0.171   0.093 -0.1983 -0.1935 -0.4533
  188MOL    C1541529   3.126   0.084   0.120  0.0436  0.8967 -0.5728
  188MOL    C1641530   3.111   8.200   0.080  0.0187  0.1089  0.3716
  188MOL    C1741531   2.992   8.163   0.019  0.0958 -0.2872  0.0266
  188MOL    C1841532   2.884   8.248   8.252  0.0534  0.0891  0.2706
  188MOL    O1941533   2.774   8.197   8.190 -0.2261  0.6445  0.1437
  188MOL    H2041534   2.823   0.197   0.043  0.0828  0.3556  1.7743
  188MOL    H2141535   3.030   0.276   0.120  0.8858 -0.3991  0.0196
  188MOL    H2241536   3.189   8.128   0.102 -0.4282  0.0256  1.7402
  188MOL    H2341537   2.989   8.063   8.231  3.2645  0.1747 -1.5174
  188MOL    C2441538   2.423   0.057   8.158  0.7796 -0.5122  0.6384
  188MOL    C2541539   2.541   0.002   8.212  0.0892  0.2563  0.3772
  188MOL    C2641540   2.666   0.024   8.153 -0.2544 -0.2383  0.4822
  188MOL    C2741541   2.672   0.116   8.045 -0.1333 -0.4151 -0.0117
  188MOL    C2841542   2.552   0.179   7.996  0.5484 -0.8876  0.4772
  188MOL    C2941543   2.426   0.152   8.054 -0.4205  0.2791 -0.3178
  188MOL    O3041544   2.318   0.203   7.990 -0.2945  0.0482  0.1769
  188MOL    H3141545   2.332   0.037   8.212 -0.1396  2.0290  0.1209
  188MOL    H3241546   2.527   8.198   0.048  1.1923 -0.1066  0.3226
  188MOL    H3341547   2.770   0.136   8.004 -0.9735  0.7159 -1.5242
  188MOL    H3441548   2.563   0.238   7.907 -1.3079 -1.3167 -0.0642
  188MOL    C3541549   1.982   0.122   8.108  0.1778 -0.6222 -0.4023
  188MOL    C3641550   2.106   0.116   8.044  0.4201  0.3171  0.4964
  188MOL    C3741551   2.195   0.218   8.055 -0.2577 -0.5214  1.0149
  188MOL    C3841552   2.171   0.336   8.127  0.5594 -0.1538 -0.4245
  188MOL    C3941553   2.048   0.346   8.196 -0.2547  0.5609  0.5627
  188MOL    C4041554   1.952   0.240   8.186 -0.0750 -0.0841 -0.3800
  188MOL    O4141555   1.831   0.237   8.253  0.4806 -0.0734  0.7156
  188MOL    H4241556   1.905   0.047   8.096 -0.2880 -0.0805 -0.8074
  188MOL    H4341557   2.139   0.030   7.987 -2.8042 -0.2757 -0.5661
  188MOL    H4441558   2.247   0.413   8.135  0.1265  0.5100 -2.2921
  188MOL    H4541559   2.030   0.438   8.250  2.0551  2.5085 -1.8555
  188MOL    C4641560   1.603   0.504   0.116  1.0458 -0.1171  0.3391
  188MOL    C4741561   1.697   0.406   0.114  0.7216  0.0111 -0.0509
  188MOL    C4841562   1.750   0.349   8.254 -0.4849 -0.1649 -0.2719
  188MOL    C4941563   1.708   0.398   8.127 -0.6358 -0.1252  0.1607
  188MOL    C5041564   1.610   0.503   8.120 -0.5179 -0.2365  0.4786
  188MOL    C5141565   1.555   0.553   8.243  0.7887 -0.3521  0.3551
  188MOL    O5241566   1.455   0.656   8.247  0.1361 -0.5788  0.0131
  188MOL    H5341567   1.569   0.529   0.215  1.5014  0.4030  0.3697
  188MOL    H5441568   1.744   0.362   0.201 -2.1986 -1.8821  0.6529
  188MOL    H5541569   1.738   0.353   8.033 -0.3902 -0.1741  0.2635
  188MOL    H5641570   1.581   0.544   8.025  0.0425 -1.6993 -0.3282
  188MOL    C5741571   1.491   0.906   7.979  0.3757  0.7898  0.6494
  188MOL    C5841572   1.524   0.815   8.081 -0.8186  0.1176 -0.0791
  188MOL    C5941573   1.429   0.727   8.132 -0.1175  0.4562  0.2550
  188MOL    C6041574   1.301   0.717   8.073  0.0314 -0.0747 -0.3099
  188MOL    C6141575   1.272   0.802   7.966  0.3248  0.0395 -0.0195
  188MOL    C6241576   1.360   0.901   7.919 -0.4044 -0.7094  0.6508
  188MOL    O6341577   1.334   0.979   7.807 -0.5076 -0.5506 -0.1741
  188MOL    H6441578   1.563   0.975   7.937  0.3130 -0.3188 -1.3367
  188MOL    H6541579   1.624   0.819   8.123 -0.9597  0.0203  0.2712
  188MOL    H6641580   1.227   0.656   8.120  1.3725  0.8025  3.1032
  188MOL    H6741581   1.173   0.804   7.924 -0.2134 -1.4280  1.1546
  188MOL    C6841582   1.047   1.236   7.823 -0.3672 -0.3129  0.3202
  188MOL    C6941583   1.114   1.111   7.828  0.5222 -0.2838 -0.8063
  188MOL    C7041584   1.260   1.102   7.823  0.0510  0.2160  0.6239
  188MOL    C7141585   1.333   1.216   7.836  0.0117 -1.1785 -0.2959
  188MOL    C7241586   1.267   1.341   7.823 -0.3765  0.3742  0.4174
  188MOL    C7341587   1.128   1.348   7.823 -0.4343 -0.0640 -0.9251
  188MOL    O7441588   1.080   1.474   7.804 -0.0639 -0.2010  0.1401
  188MOL    H7541589   0.940   1.252   7.824 -0.1667  1.3253 -1.3331
  188MOL    H7641590   1.055   1.021   7.818  0.2265  0.0777 -2.4797
  188MOL    H7741591   1.441   1.222   7.831 -0.1209  3.2458 -0.1244
  188MOL    H7841592   1.331   1.428   7.817  0.2084 -0.0504  0.4714
  188MOL    C7941593   0.909   1.604   8.111  0.9849  0.0745 -0.3894
  188MOL    C8041594   1.011   1.553   8.025  0.3426 -0.1114  0.6587
  188MOL    C8141595   0.977   1.510   7.886 -0.5020  0.3584  0.0180
  188MOL    C8241596   0.843   1.505   7.847 -0.4410 -0.1051 -0.1396
  188MOL    C8341597   0.748   1.563   7.929  0.2257  0.3510  0.0749
  188MOL    C8441598   0.776   1.612   8.063  1.0369  0.3763 -0.0384
  188MOL    O8541599   0.671   1.649   8.144  0.2431 -0.4497  0.1038
  188MOL    H8641600   0.942   1.626   8.212  0.8636 -1.0527 -0.0992
  188MOL    H8741601   1.108   1.540   8.071 -0.4287 -1.7451  1.8636
  188MOL    H8841602   0.816   1.469   7.748 -1.4151 -1.0831  0.4680
  188MOL    H8941603   0.649   1.564   7.886  0.7485  0.4205 -1.1510
  188MOL    C9041604   0.706   1.888   0.174  0.3492 -0.0108  0.7021
  188MOL    C9141605   0.686   1.836   0.041 -0.6967 -0.2719 -0.0664
  188MOL    C9241606   0.693   1.697   0.014 -0.9384 -0.4390 -0.4055
  188MOL    C9341607   0.684   1.606   0.124 -0.4796 -0.5079 -0.0176
  188MOL    C9441608   0.686   1.658   0.258 -0.4378  0.2686  0.3262
  188MOL    C9541609   0.696   1.798   0.280 -0.2009  0.2593  0.3900
  188MOL    O9641610   0.715   1.850   0.406  0.3192 -0.7219  0.1468
  188MOL    H9741611   0.701   1.995   0.190 -1.1998 -0.2912  2.2609
  188MOL    H9841612   0.666   1.902   8.212  0.4665 -1.5907 -1.4203
  188MOL    H9941613   0.684   1.500   0.103  0.7568 -0.5453  0.1387
  188MOL   H10041614   0.680   1.594   0.345 -1.6926 -0.5904 -0.3797
  188MOL   C10141615   0.944   1.727   0.672  0.2347  0.3267 -0.3183
  188MOL   C10241616   0.832   1.758   0.599  0.9212 -0.3933 -0.4830
  188MOL   C10341617   0.833   1.805   0.469  0.3543 -0.2841  0.3906
  188MOL   C10441618   0.960   1.802   0.403  0.4188  0.6170  0.6166
  188MOL   C10541619   1.077   1.781   0.476 -0.4612  0.6868  0.4720
  188MOL   C10641620   1.070   1.736   0.607 -0.4831 -0.6971  0.3598
  188MOL   O10741621   1.181   1.712   0.681 -0.0487 -0.0814 -0.2348
  188MOL   H10841622   0.939   1.698   0.776 -0.0866  1.3588 -0.0381
  188MOL   H10941623   0.739   1.745   0.654  1.0050  0.8029 -0.0604
  188MOL   H11041624   0.972   1.824   0.298 -2.6154 -2.9144 -0.5652
  188MOL   H11141625   1.176   1.792   0.436 -0.5473  1.1416  0.3822
  188MOL   C11241626   1.329   2.032   0.787 -0.0163  0.4818  0.2349
  188MOL   C11341627   1.236   1.938   0.736  0.0703  0.9611  0.5107
  188MOL   C11441628   1.272   1.808   0.699 -0.4075  0.2295  0.0432
  188MOL   C11541629   1.407   1.775   0.712  0.2353 -0.3572 -0.6591
  188MOL   C11641630   1.504   1.867   0.759 -0.3031 -0.5883  0.2510
  188MOL   C11741631   1.467   1.998   0.800  0.6758 -0.6168  0.1433
  188MOL   O11841632   1.565   2.089   0.837  0.6664 -0.3839  0.4456
  188MOL   H11941633   1.283   2.125   0.817  1.1041  0.7592  1.0988
  188MOL   H12041634   1.132   1.965   0.721 -1.0949 -3.1747  0.6043
  188MOL   H12141635   1.446   1.679   0.681  1.8859 -0.1105  0.6055
  188MOL   H12241636   1.606   1.833   0.769 -0.1528 -1.4293 -3.6323
  188MOL   C12341637   1.540   2.383   0.606  0.6613 -0.3528 -0.4329
  188MOL   C12441638   1.515   2.297   0.718 -0.2483  0.4975  0.5315
  188MOL   C12541639   1.597   2.184   0.744 -0.8788 -0.5457  0.8631
  188MOL   C12641640   1.704   2.155   0.657 -0.4165 -0.5267 -1.0725
  188MOL   C12741641   1.736   2.248   0.552 -0.9614  0.2237  0.4042
  188MOL   C12841642   1.653   2.355   0.524  1.0393 -0.2963 -1.2425
  188MOL   O12941643   1.666   2.425   0.411  0.6216 -0.8342  0.6019
  188MOL   H13041644   1.467   2.458   0.582  1.3754  0.7487  0.7492
  188MOL   H13141645   1.425   2.309   0.776  0.6174  3.7529  1.2916
  188MOL   H13241646   1.774   2.076   0.681 -0.0991 -0.2222 -0.9872
  188MOL   H13341647   1.831   2.241   0.501 -0.6666 -0.5409  1.0506
  188MOL   C13441648   1.414   2.374   0.149  1.2766  0.1607 -0.3804
  188MOL   C13541649   1.484   2.434   0.256 -0.3806  0.0085  0.2403
  188MOL   C13641650   1.600   2.374   0.302  0.0615 -0.3306  0.1673
  188MOL   C13741651   1.648   2.257   0.234 -0.5493 -0.1508  0.0999
  188MOL   C13841652   1.572   2.194   0.135  0.3896 -0.1342 -0.1112
  188MOL   C13941653   1.453   2.253   0.090 -0.1548 -0.5109 -0.1107
  188MOL   O14041654   1.377   2.186   8.252 -0.1550 -1.0060  0.1741
  188MOL   H14141655   1.329   2.424   0.106  0.9709 -0.4551 -0.5031
  188MOL   H14241656   1.457   2.532   0.292  2.5690  1.0271 -0.2386
  188MOL   H14341657   1.744   2.210   0.252  0.2474  1.2811 -0.2899
  188MOL   H14441658   1.609   2.105   0.087 -1.0855 -0.5274 -0.5519
  188MOL   C14541659   1.245   2.230   7.913  0.2570  0.1223  0.1202
  188MOL   C14641660   1.244   2.217   8.051  0.6094  0.0347 -0.2927
  188MOL   C14741661   1.370   2.214   8.118  0.5837  0.3190 -0.0759
  188MOL   C14841662   1.489   2.229   8.039  0.4697  0.8538  0.6506
  188MOL   C14941663   1.484   2.236   7.899 -0.2459 -0.3408 -0.5849
  188MOL   C15041664   1.363   2.231   7.839  0.4515 -0.1243 -0.3560
  188MOL   O15141665   1.357   2.248   7.705  0.1523  0.4404  0.0588
  188MOL   H15241666   1.148   2.228   7.865 -0.3692 -1.9082  1.4142
  188MOL   H15341667   1.149   2.200   8.099  1.4673 -1.3112  0.9927
  188MOL   H15441668   1.585   2.236   8.087  0.3215 -1.6620  1.3625
  188MOL   H15541669   1.574   2.231   7.839 -0.2899 -0.0723 -0.6751
  188MOL   C15641670   1.078   2.058   7.526  0.4636  0.5924 -0.5264
  188MOL   C15741671   1.147   2.163   7.589 -0.1956 -0.1175 -0.3381
  188MOL   C15841672   1.283   2.148   7.637  0.7216 -0.2119 -0.1143
  188MOL   C15941673   1.343   2.025   7.602  0.9359  0.0152  0.6250
  188MOL   C16041674   1.275   1.923   7.530 -0.0019 -0.0589 -0.3106
  188MOL   C16141675   1.141   1.938   7.491  0.0975  0.1292 -0.5904
  188MOL   O16241676   1.069   1.842   7.428 -0.4258  0.3791 -0.4838
  188MOL   H16341677   0.973   2.071   7.504 -0.4754 -1.1326  2.6418
  188MOL   H16441678   1.100   2.252   7.630 -0.2768 -0.2536 -0.1383
  188MOL   H16541679   1.448   2.016   7.623  0.3742 -1.8766  2.6706
  188MOL   H16641680   1.328   1.829   7.516 -0.8655 -0.9768  2.3459
  188MOL   C16741681   1.198   1.506   7.344 -1.1202  0.2892 -0.6746
  188MOL   C16841682   1.139   1.610   7.418 -0.7793  0.2111  0.0798
  188MOL   C16941683   1.139   1.740   7.367  0.0925 -0.0679 -0.1473
  188MOL   C17041684   1.209   1.769   7.254  0.6353  0.0617  0.3291
  188MOL   C17141685   1.275   1.665   7.182  0.0904  0.0277 -0.2604
  188MOL   C17241686   1.276   1.536   7.230 -0.3660  0.0868 -0.4065
  188MOL   O17341687   1.353   1.442   7.166 -0.6652 -0.3220 -0.1304
  188MOL   H17441688   1.206   1.409   7.390  0.8361  1.3750  1.3308
  188MOL   H17541689   1.070   1.583   7.496 -0.5082 -0.3922  0.1109
  188MOL   H17641690   1.230   1.872   7.227  1.5055  0.2388  1.6695
  188MOL   H17741691   1.340   1.692   7.100  1.3371 -0.8847  0.4178
  188MOL   C17841692   1.705   1.441   7.059 -1.0480  0.1479 -0.7836
  188MOL   C17941693   1.564   1.423   7.054  0.0709 -0.5140  0.0817
  188MOL   C18041694   1.486   1.466   7.160  1.0356  0.9306  0.4267
  188MOL   C18141695   1.547   1.537   7.263  0.4090 -0.1793 -0.1638
  188MOL   C18241696   1.680   1.577   7.263 -0.2245  0.0391  0.5693
  188MOL   C18341697   1.763   1.524   7.160 -0.0272 -0.1564  0.1117
  188MOL   O18441698   1.896   1.555   7.160 -0.3689  0.4118  0.0884
  188MOL   H18541699   1.773   1.404   6.983  1.8387  0.0863  1.7492
  188MOL   H18641700   1.519   1.371   6.972  2.5546 -0.2394 -1.5074
  188MOL   H18741701   1.492   1.559   7.353 -2.1004  0.0819 -1.7209
  188MOL   H18841702   1.728   1.634   7.341  0.3918 -0.0385  0.2570
  188MOL   C18941703   2.175   1.300   7.132 -0.4299  0.2688  0.1245
  188MOL   C19041704   2.079   1.399   7.102  0.4645 -0.0014 -0.9847
  188MOL   C19141705   1.983   1.449   7.194  0.0121  0.4548  0.7636
  188MOL   C19241706   1.985   1.388   7.321  0.0530 -0.1613 -0.2867
  188MOL   C19341707   2.068   1.280   7.349  0.3207  0.3762 -0.1371
  188MOL   C19441708   2.164   1.237   7.255  0.5591 -0.2354 -0.4461
  188MOL   O19541709   2.263   1.145   7.283 -0.5346  0.0405 -0.2315
  188MOL   H19641710   2.246   1.265   7.059 -1.3450  0.6137 -0.9463
  188MOL   H19741711   2.082   1.435   7.001 -0.7595  0.5166 -0.8483
  188MOL   H19841712   1.912   1.421   7.393 -0.2673 -0.2954 -0.5484
  188MOL   H19941713   2.066   1.236   7.448 -0.4876  0.4652 -0.1124
  188MOL   C20041714   2.296   1.019   7.626 -0.4577  1.0662 -0.1075
  188MOL   C20141715   2.244   1.037   7.497 -0.0580 -0.1205  0.0081
  188MOL   C20241716   2.307   1.132   7.412  0.6924  0.0968 -0.3240
  188MOL   C20341717   2.423   1.203   7.449 -0.7279  0.7960  0.2212
  188MOL   C20441718   2.480   1.179   7.576  0.6567  0.0795  0.0198
  188MOL   C20541719   2.409   1.090   7.664 -0.1126 -0.3544  0.0795
  188MOL   O20641720   2.458   1.066   7.791  0.3165  0.3425  0.0393
  188MOL   H20741721   2.244   0.961   7.700  1.3653  0.2071  0.4995
  188MOL   H20841722   2.162   0.979   7.459  1.9819 -3.1385  0.0636
  188MOL   H20941723   2.470   1.260   7.369 -2.2292 -0.6499 -1.7390
  188MOL   H21041724   2.572   1.228   7.605 -0.2129  1.6880  0.1112
  188MOL   C21141725   2.693   1.235   8.020  0.1090  0.5832  0.1829
  188MOL   C21241726   2.611   1.132   7.962  0.3539  0.0431 -0.1028
  188MOL   C21341727   2.514   1.165   7.871  0.5844 -0.2949  0.2374
  188MOL   C21441728   2.475   1.301   7.857  0.3268 -0.2803 -0.8790
  188MOL   C21541729   2.550   1.403   7.918  0.2747 -0.3812  0.2214
  188MOL   C21641730   2.659   1.371   8.002 -0.0138  1.0290  1.3162
  188MOL   O21741731   2.718   1.475   8.069 -0.6383 -0.2330  0.2775
  188MOL   H21841732   2.775   1.199   8.080  1.5500  0.5989 -1.7225
  188MOL   H21941733   2.637   1.027   7.965  0.7379  0.1107 -0.9882
  188MOL   H22041734   2.382   1.324   7.806  0.6110  1.7612 -0.5440
  188MOL   H22141735   2.515   1.505   7.909  2.9329  0.3900 -2.1226
  188MOL   H22241736   2.765   1.451   8.147 -0.4733 -1.5970 -0.2217
  189MOL     C141737   2.202   7.024   0.685 -0.7505  0.5139  0.3856
  189MOL     C241738   2.187   7.136   0.609 -0.6184 -0.4095  0.2972
  189MOL     C341739   2.076   7.223   0.630 -0.1484  0.4837 -0.1282
  189MOL     C441740   1.970   7.182   0.715 -0.5019 -0.9239 -0.1577
  189MOL     C541741   1.981   7.058   0.786  0.2641  0.5879 -0.3305
  189MOL     C641742   2.099   6.986   0.781 -0.8718  0.1973 -0.5116
  189MOL     O741743   2.123   6.868   0.844  0.0983  0.3369 -0.2936
  189MOL     H841744   2.292   6.964   0.688 -0.8315  0.3910  0.3717
  189MOL     H941745   2.268   7.156   0.542 -0.7285  0.8853  0.5478
  189MOL    H1041746   1.880   7.240   0.726 -1.5904 -2.4902 -0.5962
  189MOL    H1141747   1.900   7.028   0.850 -0.0084  0.7411 -0.6007
  189MOL    H1241748   2.073   7.323   0.588  0.7187  0.0293 -1.2938
  189MOL    C1341749   1.860   6.721   1.060  0.3729 -0.9896  0.3763
  189MOL    C1441750   1.931   6.758   0.943  0.6801  0.6770 -0.2674
  189MOL    C1541751   2.052   6.826   0.954 -0.9465 -0.7233 -0.0371
  189MOL    C1641752   2.117   6.838   1.082 -0.4797  0.3001 -0.6664
  189MOL    C1741753   2.056   6.793   1.199  0.1077  0.0262  0.0435
  189MOL    C1841754   1.923   6.731   1.184  0.3558 -0.3708  0.1648
  189MOL    O1941755   1.856   6.682   1.291  0.7170  0.5003  0.3924
  189MOL    H2041756   1.762   6.675   1.057  0.8300 -1.8811 -1.5397
  189MOL    H2141757   1.892   6.744   0.843  2.2117 -0.4443 -0.7200
  189MOL    H2241758   2.212   6.889   1.088 -1.1497  1.6598 -1.5505
  189MOL    H2341759   2.104   6.798   1.295 -1.9078  1.6062  1.0159
  189MOL    C2441760   1.845   6.388   1.512  0.6379 -0.1708  0.1185
  189MOL    C2541761   1.812   6.513   1.460 -0.1182 -0.3358  0.5085
  189MOL    C2641762   1.885   6.553   1.343 -0.2416 -0.0022  0.1443
  189MOL    C2741763   1.976   6.467   1.279  0.2401  0.7883 -0.4831
  189MOL    C2841764   1.996   6.334   1.328 -0.5553  0.1665 -0.0539
  189MOL    C2941765   1.941   6.303   1.452  0.3086 -0.0309 -0.9885
  189MOL    O3041766   1.973   6.191   1.532  0.1111 -0.2029 -0.2257
  189MOL    H3141767   1.804   6.364   1.609 -1.7910  0.1985 -0.7938
  189MOL    H3241768   1.737   6.570   1.511  0.6467  2.1553 -1.0857
  189MOL    H3341769   2.038   6.484   1.193  0.0971 -0.7812 -0.8997
  189MOL    H3441770   2.073   6.276   1.279 -0.1223 -0.2987  1.1643
  189MOL    C3541771   1.911   5.879   1.351  0.2854 -0.2255 -0.4817
  189MOL    C3641772   1.890   6.009   1.392 -0.3763  0.5445 -0.5107
  189MOL    C3741773   1.985   6.067   1.479 -0.4872  0.1615  0.6742
  189MOL    C3841774   2.102   5.990   1.509 -0.2217  0.1131 -0.4349
  189MOL    C3941775   2.121   5.859   1.461  0.0283 -0.2951  0.5255
  189MOL    C4041776   2.025   5.805   1.378 -0.1805  0.9851  0.0794
  189MOL    O4141777   2.055   5.679   1.326  0.0275  0.3288 -0.0145
  189MOL    H4241778   1.831   5.841   1.288 -1.7917  1.4382  1.0830
  189MOL    H4341779   1.801   6.065   1.369  0.9585  2.7597 -0.4606
  189MOL    H4441780   2.178   6.037   1.571 -1.0030  2.1029 -0.9537
  189MOL    H4541781   2.216   5.816   1.490 -0.3276 -0.6295  1.1904
  189MOL    C4641782   1.828   5.419   1.203  0.1063 -0.2801 -0.3507
  189MOL    C4741783   1.913   5.491   1.292 -0.0029 -0.5273 -0.3672
  189MOL    C4841784   1.972   5.614   1.243  0.5776  0.1155  0.3806
  189MOL    C4941785   1.959   5.658   1.108 -0.3350 -0.4609 -0.5541
  189MOL    C5041786   1.874   5.581   1.027  0.3346  0.0864 -0.5740
  189MOL    C5141787   1.806   5.466   1.074 -0.1979  0.2491  0.2844
  189MOL    O5241788   1.714   5.412   0.985 -0.2132 -0.4599  0.3258
  189MOL    H5341789   1.773   5.334   1.240 -0.2428 -0.1596 -0.5960
  189MOL    H5441790   1.926   5.453   1.392 -0.3581 -0.1232 -0.1642
  189MOL    H5541791   2.022   5.735   1.065 -0.0238 -1.9407 -2.8034
  189MOL    H5641792   1.876   5.617   0.925  2.2071 -1.3432 -1.0558
  189MOL    C5741793   1.835   5.071   0.895  0.2063 -0.0199 -0.0238
  189MOL    C5841794   1.831   5.204   0.949 -0.0598 -0.2678  0.2590
  189MOL    C5941795   1.724   5.286   0.931  0.3356  0.1307 -0.5407
  189MOL    C6041796   1.620   5.243   0.850 -0.4124  0.9302  0.1645
  189MOL    C6141797   1.625   5.113   0.784  0.0893  0.8283 -0.4910
  189MOL    C6241798   1.729   5.022   0.816 -0.4004 -0.5887 -0.1570
  189MOL    O6341799   1.745   4.894   0.758  0.2487 -0.6604  0.1870
  189MOL    H6441800   1.926   5.014   0.911 -0.1807  0.0794  2.7301
  189MOL    H6541801   1.913   5.232   1.014 -0.3406 -0.8191  0.8601
  189MOL    H6641802   1.542   5.315   0.831 -1.3819  0.2017  1.2903
  189MOL    H6741803   1.540   5.105   0.716 -1.0405  0.2601  0.9663
  189MOL    C6841804   1.889   4.752   0.455  0.2311 -0.4389  0.1927
  189MOL    C6941805   1.806   4.771   0.566 -0.4959  0.2707  0.0580
  189MOL    C7041806   1.811   4.891   0.638 -0.4916  0.4632  0.3124
  189MOL    C7141807   1.885   5.000   0.584  0.3722 -0.6470 -0.1029
  189MOL    C7241808   1.954   4.988   0.466 -0.5670  0.3375  0.1993
  189MOL    C7341809   1.955   4.867   0.397 -0.3311 -0.2240  0.2697
  189MOL    O7441810   2.019   4.864   0.281 -0.0351  0.1609  0.3038
  189MOL    H7541811   1.893   4.653   0.412  1.3960 -0.6382  0.7455
  189MOL    H7641812   1.752   4.686   0.603 -0.1289  1.2671  3.0253
  189MOL    H7741813   1.901   5.088   0.644 -2.7438 -0.9289  1.2375
  189MOL    H7841814   2.021   5.067   0.437  0.8345 -0.4711  1.1627
  189MOL    C7941815   2.267   4.604   0.205  0.8705 -0.1462 -0.2607
  189MOL    C8041816   2.146   4.668   0.227  1.0198  0.4206 -0.7278
  189MOL    C8141817   2.136   4.802   0.275 -1.3599  0.3597  0.0405
  189MOL    C8241818   2.254   4.882   0.283  0.0122 -0.2818  0.2002
  189MOL    C8341819   2.377   4.823   0.247 -0.2038  0.2922  0.6680
  189MOL    C8441820   2.384   4.685   0.213 -0.6953  0.0496 -0.9268
  189MOL    O8541821   2.510   4.627   0.186 -0.2415  0.0894  0.6968
  189MOL    H8641822   2.265   4.501   0.173 -1.3984 -0.0123 -0.6313
  189MOL    H8741823   2.056   4.609   0.221  0.8833  0.7372 -1.9271
  189MOL    H8841824   2.252   4.987   0.310  1.0432 -0.5299  1.2921
  189MOL    H8941825   2.465   4.885   0.260  0.4939 -0.6956  0.7677
  189MOL    C9041826   2.542   4.417   8.135 -0.1082  0.4966 -0.5937
  189MOL    C9141827   2.513   4.462   0.011 -0.7420  0.2106 -1.4945
  189MOL    C9241828   2.538   4.593   0.056 -0.1526  0.0586 -0.1746
  189MOL    C9341829   2.598   4.682   8.213  0.3001 -0.0578 -0.2823
  189MOL    C9441830   2.625   4.639   8.085  0.4177  0.6389 -0.2858
  189MOL    C9541831   2.601   4.508   8.046 -0.1826 -0.0220  0.0223
  189MOL    O9641832   2.622   4.470   7.909 -0.2275  0.7817 -0.2746
  189MOL    H9741833   2.516   4.317   8.103 -0.9889  0.6512 -0.3749
  189MOL    H9841834   2.471   4.383   0.072  1.5846  0.8059  0.9880
  189MOL    H9941835   2.628   4.781   8.246  0.4142  0.3775 -1.6430
  189MOL   H10041836   2.658   4.708   8.009  0.1568  1.4499  0.3268
  189MOL   C10141837   2.553   4.715   7.638 -0.9288  0.6579  0.0497
  189MOL   C10241838   2.624   4.642   7.739  0.0972 -0.1077  0.0925
  189MOL   C10341839   2.554   4.547   7.817  0.6221 -0.4036  0.3251
  189MOL   C10441840   2.414   4.546   7.808 -0.4966  0.2734 -0.3779
  189MOL   C10541841   2.344   4.630   7.716  0.7270 -0.0517 -0.2937
  189MOL   C10641842   2.415   4.717   7.629 -0.1777 -0.0874  0.3082
  189MOL   O10741843   2.352   4.803   7.543  0.2800  0.0548  0.3278
  189MOL   H10841844   2.606   4.781   7.571 -1.5326 -1.2369 -2.3412
  189MOL   H10941845   2.731   4.646   7.752  0.1106 -0.5514  0.0938
  189MOL   H11041846   2.367   4.473   7.872  0.0999 -0.1022 -0.3703
  189MOL   H11141847   2.238   4.643   7.727  0.9500 -0.0701  2.0112
  189MOL   C11241848   2.373   4.866   7.176  0.4851 -0.1578  0.5437
  189MOL   C11341849   2.371   4.885   7.318 -0.2164 -0.6561 -0.0704
  189MOL   C11441850   2.353   4.779   7.409 -1.1438  0.7118 -0.8040
  189MOL   C11541851   2.346   4.649   7.357  0.2933 -0.1121  0.2361
  189MOL   C11641852   2.360   4.624   7.225  0.0786 -0.2545 -0.1758
  189MOL   C11741853   2.378   4.729   7.131 -0.0672 -0.5175 -1.0912
  189MOL   O11841854   2.397   4.711   6.994 -0.4383  0.1877  0.1751
  189MOL   H11941855   2.391   4.945   7.105 -2.0438 -0.3479 -0.3485
  189MOL   H12041856   2.384   4.982   7.363  1.7136 -0.2735 -1.3874
  189MOL   H12141857   2.335   4.563   7.422 -2.5455  1.1324  1.4746
  189MOL   H12241858   2.373   4.525   7.184 -0.7181  1.1086 -3.9174
  189MOL   C12341859   2.082   4.584   6.832  0.4280  0.0422 -0.0234
  189MOL   C12441860   2.179   4.669   6.894 -0.1999 -0.7245  0.0343
  189MOL   C12541861   2.306   4.623   6.939  0.0058 -0.2396  0.0589
  189MOL   C12641862   2.340   4.483   6.911  0.1056  0.4792 -0.5384
  189MOL   C12741863   2.243   4.404   6.841  0.4856  0.1201 -0.7255
  189MOL   C12841864   2.113   4.451   6.808  0.3532 -0.6778  0.5134
  189MOL   O12941865   2.033   4.366   6.738 -0.5150 -0.3875  0.2801
  189MOL   H13041866   1.987   4.623   6.798  1.4987  0.7603 -2.3524
  189MOL   H13141867   2.150   4.772   6.908 -2.1243 -1.4818  1.8057
  189MOL   H13241868   2.432   4.438   6.945 -1.6221 -3.0165 -0.3204
  189MOL   H13341869   2.262   4.299   6.829  0.2553 -0.4024  2.9245
  189MOL   C13441870   1.755   4.235   6.954  0.0840  0.9114 -0.5279
  189MOL   C13541871   1.888   4.261   6.901 -0.1241  0.2390  0.0098
  189MOL   C13641872   1.909   4.343   6.788 -0.2669  0.4046  0.3276
  189MOL   C13741873   1.794   4.376   6.716  0.4745  0.3988 -0.1535
  189MOL   C13841874   1.661   4.357   6.761 -0.4369 -0.5934  0.1467
  189MOL   C13941875   1.647   4.279   6.876 -0.9544  0.1908  0.4850
  189MOL   O14041876   1.521   4.240   6.910 -0.2875  0.0285  0.3997
  189MOL   H14141877   1.750   4.178   7.046  2.3513  0.0073 -0.9053
  189MOL   H14241878   1.975   4.220   6.950 -0.3662  0.3562  0.5403
  189MOL   H14341879   1.800   4.432   6.624  0.5480 -1.0110 -1.0300
  189MOL   H14441880   1.581   4.409   6.709 -0.5348  1.3474  2.1574
  189MOL   C14541881   1.526   3.871   6.834 -0.1412 -0.4577  0.4063
  189MOL   C14641882   1.566   4.001   6.869  0.3786  0.2339 -0.1624
  189MOL   C14741883   1.480   4.111   6.887  0.2079 -0.1344 -0.0559
  189MOL   C14841884   1.337   4.080   6.886 -0.0357 -0.4497 -0.2324
  189MOL   C14941885   1.295   3.947   6.851 -0.3430  0.2605  0.5666
  189MOL   C15041886   1.387   3.839   6.837 -0.8282  0.2225  0.1041
  189MOL   O15141887   1.347   3.712   6.818  0.0622 -0.1224  0.2324
  189MOL   H15241888   1.604   3.800   6.813 -1.5068 -1.5858 -1.0063
  189MOL   H15341889   1.674   4.010   6.876  0.2873 -0.1290  2.4399
  189MOL   H15441890   1.274   4.164   6.913  1.3053  0.2257  0.8809
  189MOL   H15541891   1.190   3.924   6.840  0.0893 -1.2731 -0.3827
  189MOL   C15641892   1.030   3.661   6.616  0.1934 -0.1785  0.4144
  189MOL   C15741893   1.121   3.687   6.723  0.0656  0.0211 -0.4165
  189MOL   C15841894   1.260   3.690   6.708  0.3099  0.0927 -0.5858
  189MOL   C15941895   1.313   3.665   6.581 -0.2076  0.3050 -0.1654
  189MOL   C16041896   1.232   3.635   6.471 -0.5487 -0.3911 -0.0352
  189MOL   C16141897   1.088   3.629   6.494  0.0343  0.4292  0.1987
  189MOL   O16241898   1.011   3.603   6.385  0.2251  0.1059  0.3448
  189MOL   H16341899   0.924   3.672   6.626  0.3814  1.9274  0.3900
  189MOL   H16441900   1.097   3.689   6.828  1.6781  0.6746 -0.0487
  189MOL   H16541901   1.418   3.688   6.565  0.2989 -0.0272  2.4119
  189MOL   H16641902   1.268   3.604   6.374 -1.5054 -2.5224  0.2710
  189MOL   C16741903   0.923   3.899   6.175 -0.8412 -0.5010 -0.1184
  189MOL   C16841904   0.930   3.811   6.286 -0.3176 -0.1337  0.4625
  189MOL   C16941905   1.010   3.694   6.280 -0.1101 -0.4587 -0.4885
  189MOL   C17041906   1.074   3.656   6.159  0.7438  0.4457  0.1957
  189MOL   C17141907   1.062   3.748   6.047 -0.4803 -0.2942 -0.1650
  189MOL   C17241908   0.991   3.871   6.056 -0.4282  0.0146  0.4928
  189MOL   O17341909   0.977   3.948   5.944  0.3617  0.1591  0.9041
  189MOL   H17441910   0.851   3.978   6.180 -0.4172 -0.0677 -0.7884
  189MOL   H17541911   0.866   3.824   6.371  0.4552  1.7245  0.7913
  189MOL   H17641912   1.127   3.563   6.149 -1.7162 -0.9788 -0.1148
  189MOL   H17741913   1.111   3.726   5.953 -0.2277 -1.6422  0.2549
  189MOL   C17841914   0.702   3.979   5.701 -0.0695  0.2431 -0.2097
  189MOL   C17941915   0.782   4.003   5.816 -0.3719 -0.0419  0.0278
  189MOL   C18041916   0.885   3.913   5.850 -0.6404 -0.4731  0.6526
  189MOL   C18141917   0.891   3.789   5.782 -0.1140 -0.3486 -0.4382
  189MOL   C18241918   0.805   3.761   5.674 -0.2825 -0.5168 -0.0806
  189MOL   C18341919   0.716   3.858   5.628 -0.2697 -0.6744 -0.2345
  189MOL   O18441920   0.646   3.842   5.509 -0.3867 -0.3126 -0.3636
  189MOL   H18541921   0.618   4.047   5.687  0.2865  0.1169 -3.2841
  189MOL   H18641922   0.761   4.091   5.875 -0.3588 -0.6647  0.9778
  189MOL   H18741923   0.964   3.715   5.813  2.5062  2.0895 -0.5578
  189MOL   H18841924   0.818   3.670   5.616  1.5096 -1.1313  1.2441
  189MOL   C18941925   0.493   3.518   5.458  0.3069 -0.0722 -0.7186
  189MOL   C19041926   0.591   3.617   5.463 -1.1393  0.2990 -0.5203
  189MOL   C19141927   0.552   3.746   5.505 -0.7991  0.3655  0.1536
  189MOL   C19241928   0.422   3.773   5.549  0.3038  0.2018 -0.6991
  189MOL   C19341929   0.328   3.674   5.541 -0.0557  0.2117 -0.8443
  189MOL   C19441930   0.361   3.544   5.497  0.0477  0.2685 -0.5578
  189MOL   O19541931   0.252   3.452   5.500  0.2014  0.0321  0.6423
  189MOL   H19641932   0.523   3.420   5.423 -0.0170 -0.2402 -0.5310
  189MOL   H19741933   0.692   3.594   5.430 -0.8657  2.6710 -1.4613
  189MOL   H19841934   0.410   3.876   5.581 -0.2258 -0.8000  2.4759
  189MOL   H19941935   0.225   3.692   5.569  0.2543  0.2335  0.2980
  189MOL   C20041936   0.274   3.260   5.192  0.0805  0.5130  0.2195
  189MOL   C20141937   0.276   3.372   5.274 -0.2387 -0.3788 -0.0779
  189MOL   C20241938   0.254   3.349   5.413 -0.4878 -0.1294  0.5001
  189MOL   C20341939   0.230   3.223   5.467  0.2307 -0.5425 -0.6224
  189MOL   C20441940   0.228   3.112   5.382  0.6224  0.4181  0.4475
  189MOL   C20541941   0.261   3.127   5.249 -0.3514 -0.0159  0.1522
  189MOL   O20641942   0.290   3.014   5.181  0.4748  0.5548  0.0210
  189MOL   H20741943   0.304   3.274   5.089  0.2772 -3.6425 -0.3939
  189MOL   H20841944   0.291   3.475   5.245  1.4608 -0.5652  0.0676
  189MOL   H20941945   0.206   3.219   5.572 -2.7652  1.0606 -1.2090
  189MOL   H21041946   0.218   3.016   5.431  0.3527  1.1591  1.8721
  189MOL   C21141947   0.137   3.021   4.837 -0.4170  0.1962  0.0393
  189MOL   C21241948   0.154   3.043   4.976  0.3678  0.2967 -0.6047
  189MOL   C21341949   0.271   3.005   5.043 -0.8372  0.4479  0.2544
  189MOL   C21441950   0.379   2.952   4.969  0.4407 -0.5309  0.2351
  189MOL   C21541951   0.368   2.938   4.828 -0.2741 -0.5982 -0.1255
  189MOL   C21641952   0.246   2.966   4.762 -0.0405 -0.3883  0.5252
  189MOL   O21741953   0.235   2.949   4.627 -0.2392 -0.5246  0.0697
  189MOL   H21841954   0.041   3.049   4.796  0.3749  1.1660 -1.1695
  189MOL   H21941955   0.067   3.073   5.032  1.4648 -0.4792  1.5656
  189MOL   H22041956   0.476   2.940   5.016 -0.4186 -0.0119  2.2055
  189MOL   H22141957   0.459   2.908   4.778  1.0208  1.2970  0.9931
  189MOL   H22241958   0.307   2.921   4.573 -1.7602 -1.2531 -1.6547
  190MOL     C141959   1.763   2.107   1.135  0.5663  0.3617  0.0201
  190MOL     C241960   1.687   2.106   1.253 -0.2133 -0.9272 -0.1865
  190MOL     C341961   1.635   2.227   1.295  0.3448 -0.1205  0.4131
  190MOL     C441962   1.650   2.345   1.219 -0.0385 -1.1640 -0.4266
  190MOL     C541963   1.731   2.343   1.108 -0.7764  0.7481 -0.5373
  190MOL     C641964   1.793   2.226   1.064 -1.1623  0.0701 -0.1861
  190MOL     O741965   1.874   2.213   0.950  0.0620 -0.2947  0.3162
  190MOL     H841966   1.811   2.017   1.099  1.0777  0.6801 -0.0901
  190MOL     H941967   1.679   2.015   1.311 -2.2091  0.4949  1.8182
  190MOL    H1041968   1.613   2.439   1.256  0.5628 -0.8243 -0.6913
  190MOL    H1141969   1.751   2.435   1.055 -1.0883 -0.5375 -2.9531
  190MOL    H1241970   1.587   2.219   1.392 -0.7467 -1.3009 -0.2045
  190MOL    C1341971   2.177   2.376   1.065 -0.7798  0.6708  0.5238
  190MOL    C1441972   2.070   2.282   1.052  0.2457 -0.4442 -0.0847
  190MOL    C1541973   1.976   2.300   0.945  0.0209 -0.3230  0.1905
  190MOL    C1641974   1.991   2.406   0.855  0.4217  0.1296  0.4589
  190MOL    C1741975   2.102   2.492   0.865  0.3695  1.1490 -0.6530
  190MOL    C1841976   2.195   2.479   0.974 -0.0478  0.0578 -1.3388
  190MOL    O1941977   2.293   2.567   1.000 -0.1430 -0.2130  0.5103
  190MOL    H2041978   2.247   2.370   1.147  0.8395 -0.7403 -0.9149
  190MOL    H2141979   2.078   2.195   1.117 -1.5142 -0.5205  0.0537
  190MOL    H2241980   1.937   2.409   0.762 -0.5008  0.5815  0.9898
  190MOL    H2341981   2.125   2.571   0.796  0.3966  1.5988 -0.1287
  190MOL    C2441982   2.553   2.636   0.742 -0.1561 -0.0730  0.9240
  190MOL    C2541983   2.433   2.650   0.816 -0.0051 -0.1652  0.3330
  190MOL    C2641984   2.407   2.556   0.919 -1.1133 -0.3805  0.2655
  190MOL    C2741985   2.501   2.455   0.945 -0.2351  0.6160  0.5423
  190MOL    C2841986   2.614   2.435   0.860 -0.1129  0.8585 -0.1880
  190MOL    C2941987   2.637   2.526   0.754 -0.2781 -0.0589  0.5495
  190MOL    O3041988   2.734   2.500   0.657 -0.8296  0.8098  0.3572
  190MOL    H3141989   2.563   2.697   0.653 -1.2903 -2.7424 -1.0865
  190MOL    H3241990   2.377   2.741   0.800 -1.8493 -1.3864 -0.2641
  190MOL    H3341991   2.481   2.380   1.020 -1.5081  0.9308  0.5342
  190MOL    H3441992   2.682   2.351   0.860  2.5654  2.9470  1.3243
  190MOL    C3541993   2.597   2.202   0.500 -0.0620  0.1600  0.1390
  190MOL    C3641994   2.604   2.313   0.577 -0.0350 -0.5143  0.7873
  190MOL    C3741995   2.721   2.392   0.577 -0.0294 -0.1513 -0.3868
  190MOL    C3841996   2.833   2.354   0.499 -0.4243 -0.6769 -0.0765
  190MOL    C3941997   2.818   2.246   0.411  0.1561  0.0265  0.0743
  190MOL    C4041998   2.702   2.164   0.416  0.3103 -0.1747 -0.0653
  190MOL    O4141999   2.698   2.052   0.340  0.4919  0.0334 -0.1041
  190MOL    H4242000   2.504   2.146   0.496 -0.8947  1.3514  2.2874
  190MOL    H4342001   2.517   2.330   0.638  0.0826  1.9970  0.2992
  190MOL    H4442002   2.924   2.413   0.495 -1.6990  1.4343  1.1368
  190MOL    H4542003   2.891   2.216   0.337 -1.2358  0.1414 -1.3858
  190MOL    C4642004   2.825   2.016   8.244  0.0001  0.1002  0.4013
  190MOL    C4742005   2.807   2.002   0.128 -0.5064 -0.3226  0.4262
  190MOL    C4842006   2.701   2.066   0.204  0.4109 -0.2012  0.3913
  190MOL    C4942007   2.606   2.146   0.139 -0.8804  0.4167  0.3372
  190MOL    C5042008   2.617   2.157   8.252 -0.7372 -0.1717 -0.5794
  190MOL    C5142009   2.723   2.096   8.179 -1.1409  0.3071  0.0078
  190MOL    O5242010   2.735   2.114   8.045  0.2099  0.2277  0.1117
  190MOL    H5342011   2.895   1.954   8.190  0.0951 -2.6079  3.5233
  190MOL    H5442012   2.872   1.929   0.173 -1.6174 -0.3803  1.9874
  190MOL    H5542013   2.539   2.198   0.206  1.1167  0.5114  2.3055
  190MOL    H5642014   2.548   2.218   8.196 -1.9336 -0.4678  0.5595
  190MOL    C5742015   2.790   2.464   7.962 -0.2333  0.0277  0.0816
  190MOL    C5842016   2.726   2.347   8.008 -0.4978 -0.8061 -0.4045
  190MOL    C5942017   2.798   2.231   8.011  0.1689  0.4383  0.2168
  190MOL    C6042018   2.930   2.225   7.963 -0.1404  0.3309  0.6359
  190MOL    C6142019   2.997   2.342   7.923 -0.0116  0.0420  0.2941
  190MOL    C6242020   2.927   2.468   7.925  0.0254 -0.0401 -0.3653
  190MOL    O6342021   2.978   2.587   7.875 -0.2368 -0.1821 -0.0661
  190MOL    H6442022   2.734   2.556   7.960 -2.3298 -1.1754  1.0329
  190MOL    H6542023   2.620   2.332   8.017 -0.5850  1.3164  3.5928
  190MOL    H6642024   2.976   2.130   7.941 -2.0377 -0.4772  0.1005
  190MOL    H6742025   3.097   2.334   7.884  0.0910  0.3508  0.4882
  190MOL    C6842026   2.829   2.679   7.561  0.2856  0.1716  0.1586
  190MOL    C6942027   2.841   2.654   7.697  0.0480 -0.4331 -0.3529
  190MOL    C7042028   2.963   2.601   7.740  0.4848 -0.0548  0.2932
  190MOL    C7142029   3.061   2.570   7.652 -0.4439  0.2426 -0.4205
  190MOL    C7242030   3.056   2.598   7.516 -0.1322 -0.4775  0.4730
  190MOL    C7342031   2.939   2.657   7.475  0.4562  0.0414  0.0048
  190MOL    O7442032   2.929   2.690   7.344 -0.9899 -0.3058  0.1781
  190MOL    H7542033   2.737   2.718   7.522  0.4036 -1.0475 -1.4027
  190MOL    H7642034   2.772   2.685   7.774  1.2565  2.2011 -0.2858
  190MOL    H7742035   3.143   2.513   7.694 -2.6593 -1.5572  1.6243
  190MOL    H7842036   3.142   2.584   7.451 -0.4177 -0.8026  0.1614
  190MOL    C7942037   2.629   2.647   7.140 -0.2934  0.3701  0.0681
  190MOL    C8042038   2.743   2.616   7.222 -0.5595 -0.9089  0.2191
  190MOL    C8142039   2.815   2.723   7.281 -0.3214  0.8253  0.6689
  190MOL    C8242040   2.770   2.857   7.271  0.6065  0.3210  0.5663
  190MOL    C8342041   2.648   2.880   7.205 -0.0415  0.2450 -0.8604
  190MOL    C8442042   2.590   2.779   7.132  0.9050 -0.1420 -0.5078
  190MOL    O8542043   2.479   2.814   7.064  0.1971  0.0287  0.0431
  190MOL    H8642044   2.573   2.570   7.088  0.9275  0.6109 -1.6535
  190MOL    H8742045   2.769   2.512   7.222  0.1502 -0.7791 -2.2104
  190MOL    H8842046   2.811   2.944   7.318 -0.4276  0.3296  1.4755
  190MOL    H8942047   2.615   2.983   7.212 -0.8111 -0.0558  0.0536
  190MOL    C9042048   2.192   2.605   7.182  0.8538 -0.5209 -0.3692
  190MOL    C9142049   2.316   2.677   7.191 -0.3538  0.0031  0.2321
  190MOL    C9242050   2.365   2.741   7.073  0.1891  0.7635 -0.1118
  190MOL    C9342051   2.287   2.731   6.958  0.4507  0.2850  0.2213
  190MOL    C9442052   2.165   2.660   6.952 -0.0782  0.4743  0.5656
  190MOL    C9542053   2.116   2.596   7.065 -0.1810  0.3642  0.2903
  190MOL    O9642054   1.997   2.520   7.059 -0.4838 -0.0562  0.1689
  190MOL    H9742055   2.154   2.556   7.271 -0.6674 -0.3680 -0.9196
  190MOL    H9842056   2.371   2.689   7.284  1.0812  0.0187 -0.6098
  190MOL    H9942057   2.314   2.771   6.862 -2.5126 -1.4071 -1.4098
  190MOL   H10042058   2.123   2.647   6.853 -2.1120  1.8304  1.2368
  190MOL   C10142059   1.703   2.739   7.071  0.3864 -1.0513 -0.2076
  190MOL   C10242060   1.820   2.672   7.106  0.2470  1.0758 -0.5857
  190MOL   C10342061   1.884   2.584   7.016 -0.0169  0.2171 -0.1825
  190MOL   C10442062   1.824   2.558   6.895  0.5128  0.2288  0.1817
  190MOL   C10542063   1.705   2.627   6.856  0.0600  0.2155 -0.1427
  190MOL   C10642064   1.646   2.717   6.943  0.4077  0.9348  0.1736
  190MOL   O10742065   1.532   2.786   6.912  0.1272 -0.4228 -0.2473
  190MOL   H10842066   1.667   2.811   7.143 -2.3057 -2.5863  0.0390
  190MOL   H10942067   1.866   2.690   7.202 -1.8392 -1.2987  0.9122
  190MOL   H11042068   1.873   2.495   6.822  2.6078 -0.0960  1.8412
  190MOL   H11142069   1.653   2.601   6.765 -2.1405  0.2996  1.0371
  190MOL   C11242070   1.349   2.849   6.598  0.4514  0.4405  0.4844
  190MOL   C11342071   1.378   2.800   6.725 -0.4955  0.6652  0.1609
  190MOL   C11442072   1.503   2.827   6.784 -0.2124  0.0421  0.5144
  190MOL   C11542073   1.596   2.904   6.719 -0.0687 -0.3482 -0.1790
  190MOL   C11642074   1.572   2.958   6.592  0.4079  0.1172 -0.1688
  190MOL   C11742075   1.451   2.920   6.531 -0.0116 -0.7353  0.0009
  190MOL   O11842076   1.437   2.969   6.408 -0.2621  0.1039 -0.1364
  190MOL   H11942077   1.252   2.834   6.553 -0.8689 -0.4121  3.4837
  190MOL   H12042078   1.313   2.735   6.781  1.8953 -2.1130 -0.1193
  190MOL   H12142079   1.693   2.924   6.763 -0.3674 -0.5066  0.5713
  190MOL   H12242080   1.654   3.015   6.550  0.3598  1.4735  1.5289
  190MOL   C12342081   1.563   2.762   6.132  0.0478  0.8622 -0.3011
  190MOL   C12442082   1.555   2.834   6.253  0.9720 -0.9660 -0.4012
  190MOL   C12542083   1.436   2.883   6.302 -0.2614  0.2316 -0.2346
  190MOL   C12642084   1.314   2.839   6.242  0.0322  0.7328  0.4971
  190MOL   C12742085   1.322   2.764   6.121 -0.5673  0.3174  0.3535
  190MOL   C12842086   1.447   2.718   6.064 -0.7134  0.1931  1.0881
  190MOL   O12942087   1.452   2.633   5.955  0.4136  0.5174 -0.0930
  190MOL   H13042088   1.662   2.733   6.099  0.1083 -1.2240  1.6079
  190MOL   H13142089   1.643   2.863   6.308 -1.3921  1.6662  2.1633
  190MOL   H13242090   1.212   2.855   6.274 -0.5266 -0.3875 -0.6899
  190MOL   H13342091   1.237   2.727   6.067  0.0853  0.5977 -0.8773
  190MOL   C13442092   1.450   2.292   6.080 -0.5306  0.1375 -0.3531
  190MOL   C13542093   1.477   2.427   6.079  0.5698  0.9530 -0.2609
  190MOL   C13642094   1.410   2.502   5.971 -0.2392  0.2576  0.1553
  190MOL   C13742095   1.333   2.434   5.877 -0.4782 -0.5934 -0.0428
  190MOL   C13842096   1.315   2.295   5.875  0.0317  0.4354 -0.7296
  190MOL   C13942097   1.368   2.227   5.988 -0.1393  0.1975 -0.0129
  190MOL   O14042098   1.341   2.092   6.012 -0.1383  0.1325  0.2793
  190MOL   H14142099   1.484   2.237   6.167 -0.8682  1.5631  0.7095
  190MOL   H14242100   1.533   2.474   6.159 -0.2407  0.4492  0.6220
  190MOL   H14342101   1.271   2.491   5.809  3.6279  1.6688 -2.0377
  190MOL   H14442102   1.236   2.247   5.818  0.1919 -0.5686 -0.1239
  190MOL   C14542103   1.241   1.882   6.310 -0.6655 -0.0201  0.1868
  190MOL   C14642104   1.304   1.918   6.185 -0.6171 -0.4190 -0.0886
  190MOL   C14742105   1.275   2.046   6.130 -0.3367  0.3931 -0.1464
  190MOL   C14842106   1.182   2.128   6.185  0.2750 -0.2655  0.1473
  190MOL   C14942107   1.125   2.092   6.305  0.1569  0.5326 -0.3936
  190MOL   C15042108   1.153   1.976   6.369 -0.1883  0.0579  0.3317
  190MOL   O15142109   1.098   1.942   6.489 -0.2755 -0.3734 -0.3832
  190MOL   H15242110   1.264   1.790   6.362 -0.6307  1.2148  2.4155
  190MOL   H15342111   1.374   1.855   6.132  2.4689  3.0893 -0.3992
  190MOL   H15442112   1.162   2.226   6.145  1.2108  0.5450  1.5869
  190MOL   H15542113   1.050   2.154   6.352  0.6496  0.7167  0.1507
  190MOL   C15642114   0.750   1.861   6.408 -0.0340 -0.1671  0.2690
  190MOL   C15742115   0.869   1.934   6.426  0.0051  0.3438  0.6333
  190MOL   C15842116   0.982   1.877   6.483  0.2287  0.1495 -0.0432
  190MOL   C15942117   0.977   1.748   6.529 -0.0140  0.2136  0.3266
  190MOL   C16042118   0.860   1.674   6.516 -0.1010 -0.1845  0.0990
  190MOL   C16142119   0.741   1.733   6.464 -0.4455  0.3208 -0.2438
  190MOL   O16242120   0.641   1.648   6.443 -0.4859  0.7171  0.1464
  190MOL   H16342121   0.669   1.907   6.353  0.8421  1.2086  0.1002
  190MOL   H16442122   0.866   2.039   6.397  0.9610  0.4892  1.0562
  190MOL   H16542123   1.065   1.696   6.563  0.0016 -0.8580 -1.2998
  190MOL   H16642124   0.856   1.576   6.560 -1.3362  0.4634  1.5061
  190MOL   C16742125   0.487   1.542   6.765  0.0371 -0.3709  0.3755
  190MOL   C16842126   0.542   1.629   6.665 -0.3147 -0.0318 -0.4650
  190MOL   C16942127   0.589   1.576   6.545 -0.2231 -0.2564 -0.6249
  190MOL   C17042128   0.594   1.433   6.535  0.2141  0.0872 -0.7336
  190MOL   C17142129   0.536   1.346   6.630  0.0394 -0.0909  0.0701
  190MOL   C17242130   0.487   1.403   6.751  0.2239  0.2162 -0.0509
  190MOL   O17342131   0.410   1.335   6.844  0.2164  0.0897 -0.2113
  190MOL   H17442132   0.453   1.589   6.856  2.7167 -0.6167  1.5432
  190MOL   H17542133   0.551   1.735   6.687 -0.1858 -0.4329  1.5485
  190MOL   H17642134   0.627   1.383   6.446 -1.0142 -1.4439 -0.3551
  190MOL   H17742135   0.531   1.239   6.611  1.1261 -0.1729  0.2330
  190MOL   C17842136   0.604   1.075   7.016  0.3444  0.3130 -0.5200
  190MOL   C17942137   0.575   1.187   6.943 -0.4144  0.6170  0.5674
  190MOL   C18042138   0.444   1.212   6.894 -0.0522  0.3594 -0.7009
  190MOL   C18142139   0.352   1.106   6.903  0.2071 -0.1553 -0.5375
  190MOL   C18242140   0.381   0.988   6.972  1.0556  0.2437 -0.6619
  190MOL   C18342141   0.508   0.974   7.028  0.0689 -0.2072 -0.6251
  190MOL   O18442142   0.539   0.866   7.104  0.2432  0.0113 -0.0528
  190MOL   H18542143   0.703   1.070   7.059 -0.1048 -0.7063  0.4298
  190MOL   H18642144   0.647   1.267   6.937  1.2397 -0.8986 -0.1418
  190MOL   H18742145   0.252   1.120   6.864  0.3727  3.7139  0.1943
  190MOL   H18842146   0.307   0.911   6.987 -1.0573  2.1491 -0.9773
  190MOL   C18942147   0.633   0.832   7.455 -0.4180 -1.0540  0.8770
  190MOL   C19042148   0.639   0.838   7.313 -0.4003  0.2599  0.0837
  190MOL   C19142149   0.530   0.875   7.239  0.2106  0.3180  0.5148
  190MOL   C19242150   0.412   0.923   7.299  0.8826 -0.1094 -0.0223
  190MOL   C19342151   0.415   0.936   7.436 -0.2632  0.2708  0.0606
  190MOL   C19442152   0.517   0.880   7.519 -0.0932 -0.3829  0.3824
  190MOL   O19542153   0.507   0.888   7.658 -0.3357  0.1046 -0.5253
  190MOL   H19642154   0.718   0.800   7.514 -0.2616 -0.8698  0.7519
  190MOL   H19742155   0.728   0.803   7.263 -1.2948 -1.0503 -0.5996
  190MOL   H19842156   0.327   0.948   7.237  0.3123  0.3999  0.9604
  190MOL   H19942157   0.337   0.988   7.489 -1.4427  1.0064 -2.3207
  190MOL   C20042158   0.329   0.687   7.917  0.4115 -0.0518  0.1890
  190MOL   C20142159   0.358   0.793   7.827 -0.2682 -0.4230  0.1369
  190MOL   C20242160   0.467   0.785   7.739 -0.2045 -0.0615 -0.2431
  190MOL   C20342161   0.545   0.665   7.741 -0.2039  0.1728  0.5734
  190MOL   C20442162   0.516   0.559   7.827 -0.1643  0.5812 -0.5125
  190MOL   C20542163   0.416   0.573   7.924 -0.1142 -0.7319  0.2898
  190MOL   O20642164   0.390   0.468   8.014  0.0606  0.4302 -0.1654
  190MOL   H20742165   0.244   0.685   7.985  1.7521 -0.0761  1.8903
  190MOL   H20842166   0.297   0.883   7.826  0.2412 -0.0827 -1.1625
  190MOL   H20942167   0.637   0.656   7.686  1.1249 -0.7928  2.9042
  190MOL   H21042168   0.568   0.464   7.827 -0.5413  0.3739 -2.0946
  190MOL   C21142169   0.137   0.464   0.034 -0.0454 -0.5318 -0.3017
  190MOL   C21242170   0.256   0.461   8.216 -0.5407  0.3650 -0.1732
  190MOL   C21342171   0.268   0.453   8.076  0.5326 -0.2500  0.0394
  190MOL   C21442172   0.151   0.439   8.004 -0.1503  0.3019 -0.4775
  190MOL   C21542173   0.027   0.427   8.072 -0.1996 -1.0544  0.3286
  190MOL   C21642174   0.020   0.437   8.214  0.2267 -0.4202  0.4051
  190MOL   O21742175   8.155   0.423   0.017 -0.0604  0.0931 -0.4370
  190MOL   H21842176   0.127   0.480   0.141  0.3877 -0.1276 -0.3214
  190MOL   H21942177   0.348   0.474   0.017 -0.9243  0.2175  0.5151
  190MOL   H22042178   0.158   0.449   7.897 -1.6544  1.2462 -0.4915
  190MOL   H22142179   8.190   0.411   8.016 -0.2670 -0.4810  0.2703
  190MOL   H22242180   8.088   0.392   8.212 -2.0137 -2.0114  2.7503
  191MOL     C142181   8.100   4.371   0.197 -0.0285 -0.1975 -0.1149
  191MOL     C242182   8.087   4.506   0.199 -0.0423  0.3341 -0.3397
  191MOL     C342183   7.958   4.564   0.188 -0.3280 -0.2724 -0.4908
  191MOL     C442184   7.847   4.474   0.171  0.2520  0.4795  1.4056
  191MOL     C542185   7.862   4.334   0.154 -0.4397 -0.4822  0.2556
  191MOL     C642186   7.994   4.282   0.167  0.3391 -0.3944 -0.1081
  191MOL     O742187   8.016   4.149   0.171  0.1528 -0.5722  0.6930
  191MOL     H842188   8.195   4.319   0.205  0.1595 -0.0618 -1.3622
  191MOL     H942189   8.174   4.569   0.203  0.2798 -0.1267  0.0055
  191MOL    H1042190   7.747   4.514   0.177  0.5424  1.3737  0.4743
  191MOL    H1142191   7.773   4.273   0.144  0.2160 -1.3102 -0.7149
  191MOL    H1242192   7.942   4.670   0.201  0.1631 -0.1583 -0.7698
  191MOL    C1342193   8.087   3.872   8.198  0.0538 -0.5047 -0.3078
  191MOL    C1442194   8.081   3.956   0.058 -0.1752  0.6419  0.1926
  191MOL    C1542195   8.032   4.087   0.054 -0.3934  0.3723  0.3567
  191MOL    C1642196   7.996   4.143   8.180  0.1879  0.2116  0.5803
  191MOL    C1742197   8.001   4.059   8.065 -0.6694  0.2075 -0.2044
  191MOL    C1842198   8.052   3.927   8.074  0.5749  0.1596  0.5048
  191MOL    O1942199   8.065   3.855   7.957  0.3068  0.2777 -0.3844
  191MOL    H2042200   8.128   3.773   8.206 -0.8786 -0.8190  0.6720
  191MOL    H2142201   8.118   3.907   0.146 -1.2848  0.1446  0.3961
  191MOL    H2242202   7.956   4.242   8.163 -2.2469 -1.0684 -1.5063
  191MOL    H2342203   7.965   4.099   7.972 -3.0703  0.4943  0.7974
  191MOL    C2442204   0.178   3.765   7.944 -0.1671 -0.5407 -0.2200
  191MOL    C2542205   0.062   3.836   7.984 -0.2997 -0.8919  0.5581
  191MOL    C2642206   8.185   3.789   7.938 -0.0117  0.0017  0.0278
  191MOL    C2742207   8.180   3.685   7.840  1.2025  0.1452  0.0240
  191MOL    C2842208   0.046   3.618   7.799 -0.0418  0.6921  0.2615
  191MOL    C2942209   0.170   3.651   7.857  0.4046  0.2204 -0.1193
  191MOL    O3042210   0.277   3.568   7.838  0.1620  0.9285  0.4666
  191MOL    H3142211   0.275   3.805   7.969 -1.2492  0.7321  2.0703
  191MOL    H3242212   0.068   3.934   8.030  0.1871 -0.8047  0.3070
  191MOL    H3342213   8.086   3.654   7.796  1.5924 -0.5167 -0.3589
  191MOL    H3442214   0.038   3.527   7.742 -0.3412  1.6738 -1.3182
  191MOL    C3542215   0.285   3.359   8.141  0.2406 -0.3150  0.2151
  191MOL    C3642216   0.260   3.473   8.067  0.0332 -0.0248  0.0154
  191MOL    C3742217   0.280   3.459   7.928 -0.7338 -0.1067 -0.7019
  191MOL    C3842218   0.294   3.332   7.865 -1.0002 -0.2697 -0.4377
  191MOL    C3942219   0.313   3.218   7.941 -0.3945  1.1367 -0.2642
  191MOL    C4042220   0.313   3.233   8.084 -0.0032 -0.6253 -0.2317
  191MOL    O4142221   0.327   3.132   8.171  0.1289  0.1906  0.5040
  191MOL    H4242222   0.278   3.374   8.248  0.6472 -1.9645  0.4744
  191MOL    H4342223   0.257   3.568   8.118 -0.1885 -0.3962  0.6938
  191MOL    H4442224   0.288   3.330   7.757  1.2855  0.3989 -0.6049
  191MOL    H4542225   0.342   3.124   7.895 -1.1064  2.4537 -3.5202
  191MOL    C4642226   0.695   3.109   8.216  0.0771  0.4560 -0.1048
  191MOL    C4742227   0.568   3.161   8.224  0.6869 -0.5079 -0.7537
  191MOL    C4842228   0.458   3.082   8.181  0.8102  0.2075  0.0403
  191MOL    C4942229   0.477   2.948   8.131  0.2208  0.4239  0.2568
  191MOL    C5042230   0.605   2.900   8.117 -0.2447  0.1608  0.1997
  191MOL    C5142231   0.716   2.979   8.167 -0.4648  0.2354  0.0346
  191MOL    O5242232   0.846   2.936   8.142 -0.3529  0.7236 -0.0834
  191MOL    H5342233   0.780   3.172   8.240 -0.2931  1.3631 -1.1162
  191MOL    H5442234   0.559   3.261   0.011  0.4267 -0.8841  0.1200
  191MOL    H5542235   0.399   2.882   8.097  0.4390  0.1161  0.3481
  191MOL    H5642236   0.619   2.799   8.082  1.3197  0.5065 -0.2292
  191MOL    C5742237   1.037   3.143   7.906  0.4785  0.1935 -0.0412
  191MOL    C5842238   0.978   3.099   8.029  0.3315 -0.8533  0.1136
  191MOL    C5942239   0.912   2.974   8.033 -0.1543  0.1458 -0.0153
  191MOL    C6042240   0.913   2.885   7.928 -0.2164 -0.1222  0.5994
  191MOL    C6142241   0.981   2.928   7.810 -0.0527 -0.4027 -0.1822
  191MOL    C6242242   1.032   3.058   7.794  0.0325 -0.4363  0.4074
  191MOL    O6342243   1.092   3.100   7.672  0.1859  0.1396  0.5885
  191MOL    H6442244   1.086   3.239   7.894  1.3476 -0.2339  0.0051
  191MOL    H6542245   0.982   3.159   8.119  3.6052  0.3266 -0.7323
  191MOL    H6642246   0.879   2.783   7.930  0.0062 -0.1630  4.3190
  191MOL    H6742247   0.994   2.859   7.728  0.7946 -0.2386 -0.1898
  191MOL    C6842248   0.936   3.320   7.410 -0.3784 -0.2183  1.7458
  191MOL    C6942249   1.024   3.272   7.509 -0.2562 -0.1395 -0.2197
  191MOL    C7042250   1.004   3.149   7.575  0.0272  0.1061 -0.3736
  191MOL    C7142251   0.888   3.076   7.545 -0.3725 -0.1477 -0.0374
  191MOL    C7242252   0.806   3.115   7.444  0.4421  0.3775  0.4018
  191MOL    C7342253   0.828   3.232   7.374 -0.0959  0.7732  0.4566
  191MOL    O7442254   0.752   3.247   7.260  0.2765 -0.4667  0.3188
  191MOL    H7542255   0.966   3.410   7.358  1.2949 -0.7770  1.7114
  191MOL    H7642256   1.109   3.326   7.548  0.0818 -0.3464 -0.6680
  191MOL    H7742257   0.878   2.975   7.582  1.0218  0.6548  2.6762
  191MOL    H7842258   0.725   3.052   7.411  0.5139  0.4342  0.1117
  191MOL    C7942259   0.991   3.194   6.990  0.2829 -0.5406 -0.4850
  191MOL    C8042260   0.923   3.174   7.111 -0.3517 -0.4892 -0.4586
  191MOL    C8142261   0.809   3.247   7.140  0.1412 -0.0746  0.8432
  191MOL    C8242262   0.762   3.338   7.045  0.6682  0.4809  0.3700
  191MOL    C8342263   0.829   3.367   6.927 -0.3965  0.4170 -0.5030
  191MOL    C8442264   0.949   3.301   6.899 -0.3135 -0.0422  0.0375
  191MOL    O8542265   1.016   3.327   6.782  0.2209  0.0359 -0.3136
  191MOL    H8642266   1.084   3.146   6.964 -0.2571 -2.0284  0.2884
  191MOL    H8742267   0.966   3.105   7.182 -0.7869 -1.3997 -1.0756
  191MOL    H8842268   0.675   3.393   7.077  1.1478  0.1283  2.3694
  191MOL    H8942269   0.780   3.436   6.859 -1.1360 -1.3390 -1.7872
  191MOL    C9042270   1.374   3.371   6.864  0.0173 -0.0088  0.3558
  191MOL    C9142271   1.232   3.374   6.876  0.1900 -0.5981 -0.2313
  191MOL    C9242272   1.150   3.323   6.777 -0.0089  0.4876  0.2732
  191MOL    C9342273   1.202   3.262   6.663  0.3431  0.0599 -0.1579
  191MOL    C9442274   1.346   3.258   6.648  0.4250 -0.5553  0.3442
  191MOL    C9542275   1.431   3.306   6.754  0.1758  0.0440  0.9896
  191MOL    O9642276   1.567   3.292   6.748 -0.3403 -0.3405 -0.1903
  191MOL    H9742277   1.432   3.414   6.945 -0.2032  0.8528  0.0661
  191MOL    H9842278   1.193   3.424   6.963 -0.8835 -1.5205 -0.1621
  191MOL    H9942279   1.139   3.217   6.587 -0.1356 -0.7974  0.7327
  191MOL   H10042280   1.388   3.232   6.551  1.0919  2.3144 -0.1794
  191MOL   C10142281   1.735   3.446   6.449 -0.0555  0.9713  0.0568
  191MOL   C10242282   1.659   3.355   6.532 -0.1783 -0.4327  0.0784
  191MOL   C10342283   1.634   3.386   6.667 -0.0089  0.0896  0.6721
  191MOL   C10442284   1.682   3.512   6.713  0.1750  0.1320 -0.2639
  191MOL   C10542285   1.755   3.600   6.628 -0.1096  0.3620 -0.4375
  191MOL   C10642286   1.783   3.566   6.499  0.0543 -0.3551  0.3238
  191MOL   O10742287   1.880   3.626   6.417 -0.0119  0.1467 -0.9146
  191MOL   H10842288   1.782   3.418   6.357 -1.8762 -0.3177 -0.5111
  191MOL   H10942289   1.628   3.263   6.484  2.1770 -1.9650  1.3929
  191MOL   H11042290   1.673   3.544   6.816 -1.4528 -0.9143 -0.0708
  191MOL   H11142291   1.800   3.686   6.675  1.2186 -0.6651  0.1895
  191MOL   C11242292   1.918   3.693   6.066 -0.5408  0.2587  0.2041
  191MOL   C11342293   1.947   3.661   6.201  0.2566  0.7867  0.1399
  191MOL   C11442294   1.848   3.664   6.295 -0.1312  0.6699 -0.7740
  191MOL   C11542295   1.719   3.711   6.262 -0.6573  0.5920 -0.1446
  191MOL   C11642296   1.685   3.739   6.129 -0.3779  0.8741  0.6537
  191MOL   C11742297   1.782   3.722   6.026 -0.6487 -0.2495 -0.2811
  191MOL   O11842298   1.750   3.742   5.895 -0.3682 -0.5095 -0.4103
  191MOL   H11942299   1.995   3.680   5.992  0.4009 -1.7069  1.5004
  191MOL   H12042300   2.046   3.621   6.216  0.8164  2.2956  0.6467
  191MOL   H12142301   1.641   3.720   6.336 -0.8306  1.6203 -0.4507
  191MOL   H12242302   1.581   3.755   6.103 -0.0244  1.4166 -0.4517
  191MOL   C12342303   1.573   3.453   5.747  0.0200 -0.3300  0.2385
  191MOL   C12442304   1.592   3.574   5.814 -0.0913 -0.2055  0.3402
  191MOL   C12542305   1.721   3.633   5.821 -0.6637  0.3383  0.3935
  191MOL   C12642306   1.834   3.565   5.757 -0.5621  0.0535  0.3644
  191MOL   C12742307   1.811   3.443   5.688 -0.0089 -0.0526 -0.4656
  191MOL   C12842308   1.684   3.388   5.690 -0.5609  0.2147  0.0279
  191MOL   O12942309   1.665   3.257   5.646 -0.3107  0.5270 -0.3725
  191MOL   H13042310   1.476   3.405   5.747 -1.1218  1.9103 -0.4627
  191MOL   H13142311   1.513   3.605   5.881 -1.4242 -0.4973 -1.0858
  191MOL   H13242312   1.934   3.602   5.776 -0.8429  0.6164  0.7609
  191MOL   H13342313   1.895   3.385   5.651  1.0000  1.5252 -0.6758
  191MOL   C13442314   1.796   3.056   5.372  0.4957 -0.5943  0.0728
  191MOL   C13542315   1.726   3.157   5.444 -0.5367  0.0642 -0.7366
  191MOL   C13642316   1.757   3.187   5.574 -0.6158  0.9251  0.4011
  191MOL   C13742317   1.866   3.122   5.634 -0.2925  0.1072  0.1443
  191MOL   C13842318   1.940   3.024   5.561  0.4885  0.3521 -0.4315
  191MOL   C13942319   1.903   2.990   5.430 -0.3443 -0.3981  0.3853
  191MOL   O14042320   1.969   2.897   5.365 -0.9002 -0.5673  0.2322
  191MOL   H14142321   1.765   3.024   5.273  2.0719 -1.3444 -0.1930
  191MOL   H14242322   1.642   3.208   5.399 -1.6073 -1.2358 -0.2558
  191MOL   H14342323   1.893   3.140   5.737  2.2959 -1.2958 -0.2537
  191MOL   H14442324   2.012   2.970   5.620 -0.5819  1.2675  1.8074
  191MOL   C14542325   1.919   2.552   5.505 -0.4019  0.0697 -0.0551
  191MOL   C14642326   1.972   2.680   5.486  0.3276  0.3482 -0.0655
  191MOL   C14742327   1.926   2.768   5.382 -0.4125 -0.2595 -0.5831
  191MOL   C14842328   1.824   2.719   5.296 -0.6427 -0.5909 -0.8734
  191MOL   C14942329   1.778   2.588   5.307  0.3205  0.1793 -0.6325
  191MOL   C15042330   1.826   2.503   5.411  0.2910  0.1877  0.0478
  191MOL   O15142331   1.781   2.374   5.420  0.2315 -0.3976 -0.0167
  191MOL   H15242332   1.958   2.480   5.575  0.7642 -0.1500 -0.9071
  191MOL   H15342333   2.055   2.706   5.549  0.5593  0.1342 -0.2836
  191MOL   H15442334   1.779   2.766   5.210 -1.6925 -0.4179 -0.2369
  191MOL   H15542335   1.716   2.545   5.229 -3.6580  0.1631  2.3759
  191MOL   C15642336   1.434   2.445   5.541  0.6578 -0.1195 -0.2803
  191MOL   C15742337   1.570   2.467   5.512  0.3142  0.1079  0.3501
  191MOL   C15842338   1.644   2.363   5.453 -0.0607 -0.3373  0.3100
  191MOL   C15942339   1.589   2.238   5.431 -0.1843  1.2509 -0.1893
  191MOL   C16042340   1.452   2.213   5.462  0.1924 -0.1289 -0.3863
  191MOL   C16142341   1.371   2.320   5.513 -0.0126 -0.1835  0.1111
  191MOL   O16242342   1.237   2.309   5.540  0.7329  0.1609 -0.7177
  191MOL   H16342343   1.374   2.530   5.572  0.1603  0.4209 -2.6149
  191MOL   H16442344   1.602   2.568   5.536  0.4442  0.2663 -0.4962
  191MOL   H16542345   1.639   2.157   5.379 -0.9018  0.8039 -0.1946
  191MOL   H16642346   1.422   2.110   5.452  2.6854 -0.9689  0.5394
  191MOL   C16742347   1.032   2.015   5.534 -0.0940 -0.3949  0.3372
  191MOL   C16842348   1.121   2.114   5.579 -0.5661 -0.4426  0.1145
  191MOL   C16942349   1.167   2.207   5.491 -0.6590  0.3949  0.3397
  191MOL   C17042350   1.131   2.204   5.355 -0.9180 -0.4559 -0.1272
  191MOL   C17142351   1.047   2.105   5.309  0.0533  0.3068  0.2364
  191MOL   C17242352   0.988   2.011   5.399  0.1705 -0.2638  0.5726
  191MOL   O17342353   0.901   1.917   5.345 -0.2201 -0.0453  0.1596
  191MOL   H17442354   0.992   1.946   5.607 -1.0344 -0.0422  0.1664
  191MOL   H17542355   1.146   2.120   5.683  1.9065  2.8526 -0.6146
  191MOL   H17642356   1.171   2.284   5.295  0.8326 -0.9553  0.3379
  191MOL   H17742357   1.029   2.119   5.203  0.7085 -1.0641 -0.0734
  191MOL   C17842358   0.636   1.739   5.524  0.2959 -0.0043 -0.3280
  191MOL   C17942359   0.762   1.764   5.463 -0.1756 -0.0577  0.6096
  191MOL   C18042360   0.779   1.891   5.400 -1.0813 -0.4755 -0.1916
  191MOL   C18142361   0.681   1.986   5.407 -0.3979  0.1368 -0.0211
  191MOL   C18242362   0.559   1.961   5.464 -0.1797 -0.1555 -0.3651
  191MOL   C18342363   0.535   1.833   5.524  0.0864  0.6791 -0.0418
  191MOL   O18442364   0.415   1.804   5.580 -0.0522 -0.5668  0.0479
  191MOL   H18542365   0.617   1.647   5.577  0.4312 -1.2523 -2.4076
  191MOL   H18642366   0.838   1.688   5.463  1.0296  1.0619 -2.5231
  191MOL   H18742367   0.698   2.086   5.370  0.1130 -0.5868 -1.7974
  191MOL   H18842368   0.476   2.029   5.463 -1.0885 -1.2688 -1.4117
  191MOL   C18942369   0.216   1.493   5.528  0.7625 -0.0417 -0.0591
  191MOL   C19042370   0.304   1.591   5.591 -0.1708 -0.2133 -0.0203
  191MOL   C19142371   0.331   1.713   5.527  0.5299  0.3144 -0.2039
  191MOL   C19242372   0.268   1.737   5.404 -0.2657  0.0365  0.0784
  191MOL   C19342373   0.180   1.645   5.342  0.1942  0.2864  0.5593
  191MOL   C19442374   0.148   1.527   5.410  0.0435 -0.5378  0.5875
  191MOL   O19542375   0.062   1.439   5.352 -0.2980  0.3796  0.4241
  191MOL   H19642376   0.186   1.396   5.565  0.7603  0.2864  0.8111
  191MOL   H19742377   0.345   1.574   5.689  0.7881 -0.4914 -0.4713
  191MOL   H19842378   0.283   1.829   5.350 -1.9103  0.5037  0.3667
  191MOL   H19942379   0.139   1.668   5.245  0.5813 -1.5789 -0.0708
  191MOL   C20042380   0.261   1.253   5.110 -0.2264  0.2680  0.3636
  191MOL   C20142381   0.192   1.361   5.165  0.1566  0.1724 -0.1744
  191MOL   C20242382   0.123   1.336   5.285  0.1369 -0.4151  0.1941
  191MOL   C20342383   0.118   1.206   5.343 -0.5107  0.2039 -0.1994
  191MOL   C20442384   0.195   1.099   5.287  0.3108  0.4949 -1.1213
  191MOL   C20542385   0.265   1.128   5.171 -0.2046 -0.5068  0.1040
  191MOL   O20642386   0.342   1.027   5.114 -0.3267 -0.1533 -0.6896
  191MOL   H20742387   0.324   1.271   5.024 -0.5978  1.1238  0.2680
  191MOL   H20842388   0.184   1.461   5.125  0.3698  0.5409  0.7094
  191MOL   H20942389   0.069   1.188   5.437 -0.9836  0.6031 -0.3678
  191MOL   H21042390   0.206   1.003   5.335  3.6555 -0.2744 -3.2278
  191MOL   C21142391   0.661   1.039   4.940 -0.1613 -0.8284  0.5180
  191MOL   C21242392   0.523   1.030   4.963 -0.6220 -0.2836  0.1705
  191MOL   C21342393   0.477   1.048   5.096 -0.1261 -0.6683  0.0359
  191MOL   C21442394   0.566   1.070   5.202  0.2004 -0.0937  0.9844
  191MOL   C21542395   0.704   1.083   5.173 -0.5193  0.7340 -0.1770
  191MOL   C21642396   0.753   1.068   5.040 -0.8799 -0.8575 -0.3535
  191MOL   O21742397   0.887   1.068   5.013  0.0808 -0.3160 -0.4067
  191MOL   H21842398   0.695   1.034   4.838  0.7634 -0.7268  0.8097
  191MOL   H21942399   0.447   1.007   4.890 -0.2687 -1.3641  0.1282
  191MOL   H22042400   0.527   1.089   5.301 -0.6385  0.0060  0.6434
  191MOL   H22142401   0.785   1.098   5.244  2.2357  0.8524 -3.2384
  191MOL   H22242402   0.945   1.068   5.087 -2.5603  0.4671  1.7390
  192MOL     C142403   7.646   0.289   2.554  0.3239  0.6240  0.1208
  192MOL     C242404   7.620   0.418   2.585 -0.3217 -0.0390 -0.1064
  192MOL     C342405   7.586   0.507   2.491  0.0691 -0.2721  0.4867
  192MOL     C442406   7.574   0.467   2.360 -0.2663 -0.1256 -0.3322
  192MOL     C542407   7.600   0.333   2.315  0.3640  0.1940 -0.0311
  192MOL     C642408   7.642   0.245   2.417  0.4838 -0.0349  0.0905
  192MOL     O742409   7.684   0.117   2.385  0.4076  0.6240 -0.2207
  192MOL     H842410   7.680   0.217   2.627 -2.8886 -0.4597  0.6019
  192MOL     H942411   7.618   0.448   2.689  0.2492 -0.1490 -0.0639
  192MOL    H1042412   7.544   0.547   2.293 -2.1498  0.7254  1.4520
  192MOL    H1142413   7.594   0.300   2.213 -3.0604 -0.1921  0.2275
  192MOL    H1242414   7.574   0.612   2.514  0.8927 -0.2675  0.9122
  192MOL    C1342415   7.381   8.166   2.310 -0.3005 -0.5273 -0.2747
  192MOL    C1442416   7.460   0.021   2.361 -0.6237 -0.3815  0.0378
  192MOL    C1542417   7.600   0.019   2.339  0.9567  0.3499  0.2715
  192MOL    C1642418   7.657   8.168   2.264  0.8590  0.3105 -0.4682
  192MOL    C1742419   7.580   8.064   2.219  0.7655  0.5522 -0.5490
  192MOL    C1842420   7.439   8.060   2.242 -0.3880 -0.2638  0.4614
  192MOL    O1942421   7.370   7.967   2.172 -0.0497 -0.6242 -0.3625
  192MOL    H2042422   7.275   8.168   2.326 -0.0732 -0.4960  1.3147
  192MOL    H2142423   7.418   0.107   2.411 -0.8609 -1.8521  2.4540
  192MOL    H2242424   7.762   8.161   2.236  0.7132 -2.9732 -0.3287
  192MOL    H2342425   7.630   7.991   2.156  0.0930  0.9787 -1.5945
  192MOL    C2442426   7.466   7.851   1.842  0.1838 -0.1543  0.1133
  192MOL    C2542427   7.442   7.859   1.978  0.1436  0.0142 -0.1515
  192MOL    C2642428   7.388   7.970   2.038 -0.2093  0.0895  0.3845
  192MOL    C2742429   7.356   8.082   1.961  0.6655  0.2914 -0.1350
  192MOL    C2842430   7.393   8.084   1.829 -0.1442 -0.3038 -0.6731
  192MOL    C2942431   7.451   7.969   1.766  0.0997  0.4476 -0.2839
  192MOL    O3042432   7.492   7.980   1.637 -0.9693  0.6733  0.2552
  192MOL    H3142433   7.512   7.759   1.809 -1.8558 -1.9963  2.2311
  192MOL    H3242434   7.471   7.771   2.035  1.6227  0.0890 -0.7640
  192MOL    H3342435   7.296   8.163   2.000 -1.7155 -1.4707 -0.0261
  192MOL    H3442436   7.378   8.170   1.765  1.2297  1.1381  0.9340
  192MOL    C3542437   7.614   7.683   1.465 -0.6046  0.8379 -0.7531
  192MOL    C3642438   7.525   7.779   1.516  0.8544 -0.6936  0.4354
  192MOL    C3742439   7.577   7.881   1.593  0.1650 -0.3840  0.3132
  192MOL    C3842440   7.711   7.878   1.636  0.1964 -0.0392 -0.3330
  192MOL    C3942441   7.796   7.785   1.585  0.1596  0.4572  0.2183
  192MOL    C4042442   7.751   7.689   1.492 -0.8175 -0.1688 -0.0974
  192MOL    O4142443   7.830   7.587   1.452 -0.5001  0.9930  0.3206
  192MOL    H4242444   7.576   7.608   1.398 -1.8559  1.7379 -1.0537
  192MOL    H4342445   7.423   7.765   1.486  0.5974  0.8285  0.5946
  192MOL    H4442446   7.751   7.948   1.708 -3.7785  0.8749  1.1177
  192MOL    H4542447   7.900   7.792   1.615  0.2127  0.9614 -0.0803
  192MOL    C4642448   7.910   7.570   1.091 -0.2721 -0.6042  0.3462
  192MOL    C4742449   7.840   7.556   1.216 -0.2465 -0.2686 -0.1681
  192MOL    C4842450   7.898   7.601   1.334  0.1954 -0.2826  0.5044
  192MOL    C4942451   8.031   7.655   1.331  0.0175 -1.1612 -0.0877
  192MOL    C5042452   8.104   7.654   1.216 -0.4197 -0.2674  0.0277
  192MOL    C5142453   8.040   7.619   1.090 -0.4742 -0.7290 -0.6339
  192MOL    O5242454   8.105   7.644   0.969  0.0174 -0.2385 -0.5568
  192MOL    H5342455   7.863   7.542   0.997  1.2879  0.0238 -0.6374
  192MOL    H5442456   7.736   7.528   1.215 -0.5129  0.6089  1.7481
  192MOL    H5542457   8.071   7.690   1.426 -1.1438  3.1548 -1.0675
  192MOL    H5642458   8.200   7.703   1.212 -1.1209  1.0781 -0.9207
  192MOL    C5742459   0.128   7.875   0.909 -0.2470  0.1752 -0.2604
  192MOL    C5842460   0.058   7.759   0.923 -0.0232 -0.6250 -0.2320
  192MOL    C5942461   8.172   7.760   0.959  0.5094 -0.2496 -0.3225
  192MOL    C6042462   8.110   7.892   0.971 -0.4342  0.6701 -0.3092
  192MOL    C6142463   8.188   8.004   0.966  0.1377  0.1469  0.1966
  192MOL    C6242464   0.073   8.001   0.944  0.4517  0.7221 -0.2477
  192MOL    O6342465   0.141   8.116   0.940 -0.1640  0.1474  0.1513
  192MOL    H6442466   0.228   7.865   0.871 -0.5291  0.3333 -1.0602
  192MOL    H6542467   0.099   7.662   0.897 -0.0364 -0.3756 -1.1777
  192MOL    H6642468   8.006   7.899   1.000 -0.4438  0.4000 -0.2776
  192MOL    H6742469   8.138   8.099   0.981 -0.9705 -0.1702 -1.3911
  192MOL    C6842470   0.169   0.126   1.188  0.5268  0.3284 -0.0886
  192MOL    C6942471   0.119   0.053   1.081  0.5386  0.1793 -0.1549
  192MOL    C7042472   0.174   8.179   1.057 -0.5213  0.0004  0.5307
  192MOL    C7142473   0.268   8.119   1.144  0.2283 -0.0700  0.6402
  192MOL    C7242474   0.312   8.189   1.254 -0.3189  0.5932 -0.0214
  192MOL    C7342475   0.265   0.069   1.274  0.3160  0.7224  0.8869
  192MOL    O7442476   0.316   0.135   1.384 -0.2708  0.1725  0.3248
  192MOL    H7542477   0.118   0.217   1.217 -1.7906 -0.0401 -2.8252
  192MOL    H7642478   0.060   0.104   1.006 -0.0148  0.5374  0.5182
  192MOL    H7742479   0.307   8.020   1.125 -0.8512 -0.7233  1.7228
  192MOL    H7842480   0.376   8.133   1.320 -2.0686 -0.7194  0.5902
  192MOL    C7942481   0.323   0.496   1.447  0.1602 -0.3836  0.3554
  192MOL    C8042482   0.282   0.362   1.446  0.1253  0.2156 -0.2687
  192MOL    C8142483   0.351   0.270   1.367 -0.1690 -0.7955 -0.1170
  192MOL    C8242484   0.446   0.313   1.272 -0.3674  0.3671 -0.5153
  192MOL    C8342485   0.482   0.453   1.262  1.1136  0.3678  0.8805
  192MOL    C8442486   0.420   0.541   1.349  0.9390 -0.3965 -0.4209
  192MOL    O8542487   0.452   0.679   1.345  0.4179  0.0310 -0.1018
  192MOL    H8642488   0.283   0.571   1.513  0.6788 -0.2566  0.5246
  192MOL    H8742489   0.202   0.322   1.506  0.7959 -1.2076 -0.3088
  192MOL    H8842490   0.475   0.230   1.210 -1.6922  0.1384 -0.8519
  192MOL    H8942491   0.545   0.486   1.180  0.0278  1.6177  0.5258
  192MOL    C9042492   0.569   0.774   1.677 -0.1045 -0.9514 -0.4222
  192MOL    C9142493   0.560   0.703   1.560  0.1513 -0.4950 -0.9964
  192MOL    C9242494   0.461   0.739   1.465 -0.7795  0.3561 -0.2212
  192MOL    C9342495   0.380   0.847   1.488 -0.2244 -0.2666 -0.1247
  192MOL    C9442496   0.395   0.921   1.608  0.0662  0.1978  0.1251
  192MOL    C9542497   0.485   0.879   1.704 -0.2914  0.1297  0.1379
  192MOL    O9642498   0.499   0.944   1.821  0.3216  0.5880 -0.3860
  192MOL    H9742499   0.636   0.734   1.752  1.5808 -0.0553 -1.4169
  192MOL    H9842500   0.615   0.611   1.544  1.8262  0.1058  1.1229
  192MOL    H9942501   0.310   0.880   1.413 -2.3889 -1.8993  1.1304
  192MOL   H10042502   0.336   1.010   1.625 -0.8043 -0.6374  1.6001
  192MOL   C10142503   0.813   1.032   2.006 -0.1380  0.1965  0.3478
  192MOL   C10242504   0.684   0.964   1.974  0.2632 -0.3236  0.0543
  192MOL   C10342505   0.625   0.989   1.847  0.3930 -0.4098 -0.2764
  192MOL   C10442506   0.692   1.071   1.754 -0.1549 -0.9268 -0.7109
  192MOL   C10542507   0.817   1.130   1.789 -0.2151  1.0963 -0.7920
  192MOL   C10642508   0.873   1.110   1.910 -0.2805  0.1650  0.3938
  192MOL   O10742509   0.985   1.172   1.946  0.1285  0.1409 -0.5700
  192MOL   H10842510   0.861   1.016   2.101 -0.4878  3.9478  1.2466
  192MOL   H10942511   0.636   0.890   2.036 -2.4839  0.0331 -1.5651
  192MOL   H11042512   0.652   1.093   1.656  0.3144 -2.1335 -1.1762
  192MOL   H11142513   0.865   1.203   1.726 -0.1099  0.8893 -0.9501
  192MOL   C11242514   1.036   1.522   2.018  0.1580  0.1468 -0.1434
  192MOL   C11342515   1.042   1.399   1.956  0.1569  0.3526 -0.3627
  192MOL   C11442516   0.992   1.287   2.021  1.3994 -0.2535 -0.7691
  192MOL   C11542517   0.948   1.298   2.156 -0.4875  0.0267  0.8642
  192MOL   C11642518   0.943   1.426   2.213  0.4767 -0.0379  0.1009
  192MOL   C11742519   0.977   1.540   2.145 -0.4964  0.5325  0.2655
  192MOL   O11842520   0.966   1.664   2.205 -0.1486  0.2087  0.5622
  192MOL   H11942521   1.058   1.613   1.963 -0.6709 -0.3051 -1.2370
  192MOL   H12042522   1.093   1.387   1.861  2.9665 -0.2831  1.1636
  192MOL   H12142523   0.919   1.213   2.216 -0.7935  0.7753  1.7844
  192MOL   H12242524   0.897   1.431   2.311 -0.3684 -3.4500 -0.0528
  192MOL   C12342525   0.623   1.772   2.104 -0.1615  0.2215  0.1284
  192MOL   C12442526   0.753   1.721   2.087  0.2196  0.5920  0.6858
  192MOL   C12542527   0.838   1.720   2.203  0.0400 -0.0520  0.5000
  192MOL   C12642528   0.786   1.765   2.325 -0.1100 -0.3192  0.3344
  192MOL   C12742529   0.650   1.790   2.345  0.0965 -0.3510  0.0996
  192MOL   C12842530   0.571   1.803   2.236 -0.7277 -0.2119 -0.2569
  192MOL   O12942531   0.440   1.816   2.258  0.2101 -0.1180  0.4562
  192MOL   H13042532   0.547   1.754   2.028  0.2763  2.4490 -0.8993
  192MOL   H13142533   0.781   1.672   1.994  1.8647 -1.3257  2.1515
  192MOL   H13242534   0.842   1.755   2.416  2.2738  1.1248 -0.9202
  192MOL   H13342535   0.627   1.801   2.450  2.0456  0.1450  0.5071
  192MOL   C13442536   0.226   2.106   2.353  0.1296 -0.2298 -0.1069
  192MOL   C13542537   0.277   1.978   2.340 -0.1707  1.1890  0.8819
  192MOL   C13642538   0.388   1.942   2.261  0.2702  0.1969  0.3504
  192MOL   C13742539   0.438   2.038   2.169  0.6166 -0.7633  0.1794
  192MOL   C13842540   0.376   2.165   2.173  0.2885  0.7474  0.5044
  192MOL   C13942541   0.274   2.196   2.264  0.7313 -0.0968  0.1425
  192MOL   O14042542   0.219   2.323   2.274  0.2620  0.4232  0.5661
  192MOL   H14142543   0.149   2.136   2.422 -0.7087 -1.2806 -0.5732
  192MOL   H14242544   0.218   1.912   2.401  0.2204 -0.4603 -0.5017
  192MOL   H14342545   0.513   2.012   2.094 -0.9127 -0.4685 -1.4866
  192MOL   H14442546   0.414   2.230   2.095 -1.7271  0.3850 -0.8074
  192MOL   C14542547   0.289   2.613   2.054 -0.2927 -0.2353 -0.3097
  192MOL   C14642548   0.277   2.537   2.171  0.3956 -0.0209  0.2522
  192MOL   C14742549   0.214   2.406   2.165  0.1193  0.2322  0.5097
  192MOL   C14842550   0.155   2.369   2.042  0.3412  1.2595 -1.2454
  192MOL   C14942551   0.149   2.460   1.935  0.2401  0.0727 -0.1365
  192MOL   C15042552   0.224   2.577   1.935  0.5006  0.3314 -0.0072
  192MOL   O15142553   0.215   2.656   1.824 -0.0510 -0.0019  0.0654
  192MOL   H15242554   0.332   2.712   2.054  0.3840 -0.5226 -0.7177
  192MOL   H15342555   0.320   2.570   2.264 -1.9235 -1.0623  1.7421
  192MOL   H15442556   0.102   2.276   2.054  1.3330  0.4301 -3.1429
  192MOL   H15542557   0.094   2.442   1.844  1.8756  2.2620 -1.6252
  192MOL   C15642558   0.420   2.547   1.543  0.6065  0.3311 -0.2388
  192MOL   C15742559   0.384   2.589   1.670  0.4182 -0.1185 -0.2695
  192MOL   C15842560   0.252   2.603   1.702 -0.2097  0.5943 -0.3306
  192MOL   C15942561   0.157   2.571   1.603  1.2930 -0.2033 -0.3660
  192MOL   C16042562   0.191   2.516   1.478  0.3676 -0.6304 -0.3151
  192MOL   C16142563   0.324   2.507   1.446 -0.0513 -0.2206 -0.0480
  192MOL   O16242564   0.356   2.458   1.321 -0.3179  0.7588  0.4706
  192MOL   H16342565   0.526   2.538   1.524  0.9119 -0.3506  1.6585
  192MOL   H16442566   0.461   2.619   1.740  0.4044 -3.7505  1.4145
  192MOL   H16542567   0.054   2.602   1.613  1.3969  0.1420 -0.3852
  192MOL   H16642568   0.110   2.485   1.414 -0.9029 -2.9033  2.2825
  192MOL   C16742569   0.605   2.223   1.196 -0.1566  0.4366  1.1041
  192MOL   C16842570   0.518   2.332   1.206 -0.9339 -0.4157 -0.1929
  192MOL   C16942571   0.427   2.342   1.315  0.3230  0.3909  0.2598
  192MOL   C17042572   0.421   2.235   1.405  0.4991  0.0085 -0.1804
  192MOL   C17142573   0.501   2.119   1.395 -0.1663 -0.8044  0.1720
  192MOL   C17242574   0.591   2.115   1.282 -0.7834 -0.0993 -0.5222
  192MOL   O17342575   0.672   2.003   1.268  0.1313 -0.0050  0.4458
  192MOL   H17442576   0.665   2.227   1.106 -1.2384  0.4225  0.3759
  192MOL   H17542577   0.522   2.422   1.146  3.8869  1.2147  2.3009
  192MOL   H17642578   0.348   2.243   1.484  2.1899  1.8364  1.2318
  192MOL   H17742579   0.481   2.040   1.466  3.5693 -1.7019  0.3448
  192MOL   C17842580   0.786   1.723   1.470 -0.3055  0.1464 -0.2458
  192MOL   C17942581   0.742   1.802   1.364 -0.0320 -0.3166 -0.1375
  192MOL   C18042582   0.736   1.942   1.369  0.2777 -0.5348  0.6649
  192MOL   C18142583   0.789   2.006   1.484  0.3735  0.2398 -0.0004
  192MOL   C18242584   0.845   1.929   1.587 -0.5356  0.2039  0.0458
  192MOL   C18342585   0.842   1.789   1.578  0.0763 -0.1207 -0.5902
  192MOL   O18442586   0.889   1.712   1.679  0.3071  0.1177  0.3787
  192MOL   H18542587   0.794   1.616   1.460  0.3237  0.1549  0.1223
  192MOL   H18642588   0.703   1.757   1.274  0.9125 -1.0592 -0.1902
  192MOL   H18742589   0.786   2.114   1.496 -0.0851  0.3871 -1.3391
  192MOL   H18842590   0.876   1.980   1.678 -0.6015  1.3073 -0.5416
  192MOL   C18942591   1.254   1.764   1.758  0.0249 -0.3373 -0.9681
  192MOL   C19042592   1.146   1.721   1.682 -0.1971 -0.3376 -0.4547
  192MOL   C19142593   1.011   1.752   1.730  0.3677 -0.2985  0.3032
  192MOL   C19242594   1.002   1.834   1.847 -0.6494 -0.0763  0.5454
  192MOL   C19342595   1.110   1.872   1.922 -0.1770  0.0322 -0.0531
  192MOL   C19442596   1.239   1.830   1.881 -0.5779  0.3079  0.4577
  192MOL   O19542597   1.346   1.880   1.944  0.0524  0.0017  0.0181
  192MOL   H19642598   1.354   1.742   1.724 -0.0953 -0.3157 -1.3383
  192MOL   H19742599   1.168   1.666   1.591  1.4051 -0.4872  0.0122
  192MOL   H19842600   0.908   1.883   1.870 -0.5939  0.7628 -0.9008
  192MOL   H19942601   1.098   1.913   2.021 -0.9264 -1.2185  0.3783
  192MOL   C20042602   1.438   1.652   2.227 -0.7278  0.2727 -0.2790
  192MOL   C20142603   1.361   1.731   2.141  0.3712 -0.8542 -0.3938
  192MOL   C20242604   1.420   1.796   2.028  0.5146  0.0702 -0.2749
  192MOL   C20342605   1.557   1.777   2.015  0.2007 -0.0698 -0.5624
  192MOL   C20442606   1.634   1.699   2.099 -0.0918 -0.1547  0.4784
  192MOL   C20542607   1.578   1.639   2.210  0.4819 -0.0449 -0.4942
  192MOL   O20642608   1.649   1.571   2.307  0.2396  0.8601 -0.2328
  192MOL   H20742609   1.398   1.590   2.306  0.4874  0.7617  0.7408
  192MOL   H20842610   1.256   1.743   2.166  0.6813  2.2208 -0.3316
  192MOL   H20942611   1.598   1.835   1.933  0.0338 -0.5482 -0.9825
  192MOL   H21042612   1.741   1.694   2.086 -0.0358 -2.0585  1.5250
  192MOL   C21142613   1.891   1.338   2.147 -0.6081  0.1828 -0.1320
  192MOL   C21242614   1.771   1.408   2.177 -0.8362  0.2469 -0.8019
  192MOL   C21342615   1.763   1.503   2.279 -0.0087 -0.2629 -0.6182
  192MOL   C21442616   1.877   1.529   2.361 -0.0202 -0.5508 -0.0724
  192MOL   C21542617   2.000   1.465   2.334 -0.4063 -0.5010  0.1622
  192MOL   C21642618   2.008   1.374   2.221 -1.0830  0.1244 -0.1831
  192MOL   O21742619   2.115   1.294   2.192 -0.6379  0.4579  0.4410
  192MOL   H21842620   1.887   1.261   2.073 -1.4067 -1.1663  1.2799
  192MOL   H21942621   1.683   1.392   2.118 -1.0716  0.6913 -0.5713
  192MOL   H22042622   1.864   1.601   2.440  0.7450  1.6066 -1.8207
  192MOL   H22142623   2.085   1.485   2.399 -1.0274  2.2425  0.2146
  192MOL   H22242624   2.108   1.247   2.110  0.2034 -2.2324  1.8565
  193MOL     C142625   8.053   2.864   2.598 -0.4698 -0.1773  0.1778
  193MOL     C242626   8.103   2.738   2.553  0.4550  0.2857  0.1879
  193MOL     C342627   8.195   2.718   2.448 -0.1063 -0.0752 -0.3039
  193MOL     C442628   8.247   2.833   2.383 -0.9598  0.4175 -0.7972
  193MOL     C542629   8.195   2.957   2.422  0.2725  0.1405 -0.5949
  193MOL     C642630   8.097   2.972   2.520  0.0323 -0.3762 -0.3547
  193MOL     O742631   8.055   3.098   2.536 -0.6765 -0.5166  0.5029
  193MOL     H842632   7.988   2.880   2.683  0.1206  1.2859  0.3735
  193MOL     H942633   8.060   2.655   2.607 -2.1371  1.5023  0.0476
  193MOL    H1042634   0.073   2.826   2.312 -0.3275  2.0639 -0.2627
  193MOL    H1142635   8.233   3.041   2.366  3.9567 -1.6746 -1.0218
  193MOL    H1242636   8.243   2.621   2.436 -0.7451 -0.5448  0.8333
  193MOL    C1342637   7.754   3.230   2.725 -0.1679 -0.3144  0.2798
  193MOL    C1442638   7.891   3.202   2.690  0.4110  0.6346 -0.0417
  193MOL    C1542639   7.924   3.118   2.572 -0.4058  0.2685 -0.0845
  193MOL    C1642640   7.814   3.062   2.508 -0.7459  0.2508 -0.8001
  193MOL    C1742641   7.683   3.093   2.541  0.1355  0.4101  0.0690
  193MOL    C1842642   7.645   3.176   2.647 -0.0546  0.8663  0.1278
  193MOL    O1942643   7.512   3.192   2.671 -0.5061 -1.0325  0.1853
  193MOL    H2042644   7.739   3.290   2.814 -0.2820  0.7168 -0.4248
  193MOL    H2142645   7.967   3.260   2.741  2.8670  1.7074 -4.5738
  193MOL    H2242646   7.829   2.995   2.425 -0.0257 -0.6743  0.0569
  193MOL    H2342647   7.603   3.049   2.483  1.6398 -0.3685 -1.4596
  193MOL    C2442648   7.397   3.519   2.828 -0.5047 -0.1442  0.1437
  193MOL    C2542649   7.429   3.420   2.732  0.0720 -0.3562 -0.4907
  193MOL    C2642650   7.470   3.288   2.769 -0.4467  0.3530  0.2896
  193MOL    C2742651   7.481   3.250   2.907  0.5641 -0.5661  0.0344
  193MOL    C2842652   7.443   3.343   3.005  0.2367 -0.4639 -0.5591
  193MOL    C2942653   7.406   3.480   2.966  0.2555 -0.3114  0.1316
  193MOL    O3042654   7.370   3.569   3.064  0.3627 -0.6190  0.3728
  193MOL    H3142655   7.371   3.620   2.802  0.4964  0.9554  3.1740
  193MOL    H3242656   7.433   3.452   2.629  0.2851 -0.2417 -0.4495
  193MOL    H3342657   7.514   3.153   2.942 -0.3451 -1.6011 -1.9244
  193MOL    H3442658   7.434   3.313   3.109  1.1238 -1.4549 -0.7676
  193MOL    C3542659   7.694   3.668   3.211  0.1719  0.3249 -0.4549
  193MOL    C3642660   7.598   3.612   3.126  0.3729  0.2771  0.2168
  193MOL    C3742661   7.460   3.615   3.160  0.2103 -0.7612 -0.0715
  193MOL    C3842662   7.419   3.687   3.275 -0.1707 -0.2247  0.0092
  193MOL    C3942663   7.514   3.749   3.356  0.1654  0.6797 -0.4511
  193MOL    C4042664   7.653   3.742   3.327  0.4114  0.3147  0.1711
  193MOL    O4142665   7.744   3.807   3.409  0.1822 -0.3908  0.1217
  193MOL    H4242666   7.797   3.655   3.180  0.2114 -1.5592  0.3949
  193MOL    H4342667   7.621   3.568   3.030  0.7012  1.2477 -0.1499
  193MOL    H4442668   7.315   3.710   3.291  0.2433  0.9608  0.9678
  193MOL    H4542669   7.482   3.809   3.440  1.0563  1.3024 -0.5455
  193MOL    C4642670   8.054   3.613   3.486 -0.0111 -0.4816  0.6152
  193MOL    C4742671   7.963   3.696   3.414 -0.1345  0.1297 -0.4295
  193MOL    C4842672   7.843   3.732   3.469  0.8056 -1.0341 -0.6804
  193MOL    C4942673   7.813   3.678   3.599  0.4555  0.1779  0.0888
  193MOL    C5042674   7.903   3.596   3.672  0.3404 -0.6332  0.1654
  193MOL    C5142675   8.018   3.552   3.607  0.1523 -0.0825  0.4215
  193MOL    O5242676   8.095   3.462   3.673 -0.2777  0.2413  0.1722
  193MOL    H5342677   8.156   3.593   3.458  0.0002  0.3907  0.0263
  193MOL    H5442678   7.996   3.734   3.318  0.2791  1.9031  0.3835
  193MOL    H5542679   7.720   3.699   3.651  0.9618 -1.0408  1.5100
  193MOL    H5642680   7.867   3.566   3.769 -1.7260  1.6693  0.1632
  193MOL    C5742681   0.146   3.624   3.834  0.6736 -0.7274 -0.1727
  193MOL    C5842682   0.021   3.606   3.768 -0.1584 -0.3375  0.0560
  193MOL    C5942683   8.226   3.489   3.708  0.2188  0.6102  0.5698
  193MOL    C6042684   0.059   3.380   3.707 -0.0342  0.2404 -0.8046
  193MOL    C6142685   0.183   3.390   3.773 -0.4335 -0.2153  0.0443
  193MOL    C6242686   0.229   3.512   3.827 -0.0743  0.5001 -0.9169
  193MOL    O6342687   0.354   3.530   3.875  0.2843 -0.5280  0.5648
  193MOL    H6442688   0.187   3.717   3.869  1.4745 -0.8290 -0.8283
  193MOL    H6542689   8.227   3.703   3.761  1.9101  0.6636 -1.0276
  193MOL    H6642690   0.029   3.285   3.665 -3.1811  0.0315  1.7146
  193MOL    H6742691   0.241   3.299   3.772  1.7743  1.1687 -0.3231
  193MOL    C6842692   0.416   3.279   4.135 -0.4292 -0.7865  1.1559
  193MOL    C6942693   0.369   3.396   4.072 -0.3496  0.2375  0.3722
  193MOL    C7042694   0.406   3.420   3.939  0.3811 -0.1319 -0.1581
  193MOL    C7142695   0.490   3.330   3.869  0.0013  0.0126 -0.1031
  193MOL    C7242696   0.539   3.216   3.931 -0.7555 -0.4669  0.1495
  193MOL    C7342697   0.507   3.190   4.068  0.7497 -1.0128  0.1312
  193MOL    O7442698   0.544   3.083   4.131 -0.0515 -0.0303  0.2049
  193MOL    H7542699   0.384   3.266   4.237 -0.0354  0.3529  1.4323
  193MOL    H7642700   0.300   3.466   4.116 -1.2126 -1.0015  0.9984
  193MOL    H7742701   0.505   3.355   3.765 -1.8007  2.0959  0.0997
  193MOL    H7842702   0.605   3.145   3.883 -1.9875 -1.9789  0.6442
  193MOL    C7942703   0.885   2.948   4.161 -1.3557 -0.6432 -0.7577
  193MOL    C8042704   0.746   2.953   4.145  0.5727 -0.6103 -0.5771
  193MOL    C8142705   0.681   3.074   4.169 -0.1608  0.0583  0.3290
  193MOL    C8242706   0.756   3.189   4.213  0.8811  0.3209  0.4431
  193MOL    C8342707   0.892   3.182   4.234  0.0729  0.2831 -0.6524
  193MOL    C8442708   0.960   3.056   4.216 -0.3499 -0.0097  0.0119
  193MOL    O8542709   1.091   3.037   4.236  0.2164  0.0096 -0.0197
  193MOL    H8642710   0.939   2.860   4.130  2.0351  0.4132  1.8803
  193MOL    H8742711   0.698   2.860   4.121  0.7042 -0.9487  0.4526
  193MOL    H8842712   0.700   3.280   4.229  0.5031  0.1348  0.1896
  193MOL    H8942713   0.958   3.260   4.269 -0.1869  0.1123  0.2361
  193MOL    C9042714   1.221   2.769   4.453 -0.0508  0.8040  0.5895
  193MOL    C9142715   1.184   2.838   4.337 -0.0994  0.1127  0.0299
  193MOL    C9242716   1.125   2.964   4.349 -0.2114  0.0936 -0.3227
  193MOL    C9342717   1.090   3.016   4.477 -0.5730  0.4275 -0.6693
  193MOL    C9442718   1.124   2.940   4.590 -0.3407  0.0222  0.3199
  193MOL    C9542719   1.187   2.820   4.583 -0.1716  0.3299 -0.2495
  193MOL    O9642720   1.205   2.757   4.706 -0.3942  0.1140 -0.2420
  193MOL    H9742721   1.254   2.666   4.445  1.2300  1.2157  0.6222
  193MOL    H9842722   1.200   2.796   4.239  3.6009 -0.2374  0.7331
  193MOL    H9942723   1.047   3.115   4.474  2.2266  1.6629 -1.0174
  193MOL   H10042724   1.105   2.985   4.686 -0.7314  1.0529 -0.2288
  193MOL   C10142725   1.574   2.664   4.730  0.1981  0.7778  0.0314
  193MOL   C10242726   1.447   2.683   4.674 -0.4637 -0.1134 -0.2720
  193MOL   C10342727   1.334   2.735   4.754  0.1951  0.1907  0.3796
  193MOL   C10442728   1.356   2.749   4.890 -0.4991 -0.0084 -0.3053
  193MOL   C10542729   1.477   2.713   4.948  0.5548 -0.5334  0.3039
  193MOL   C10642730   1.587   2.678   4.869 -0.6383 -1.0389 -0.5798
  193MOL   O10742731   1.701   2.654   4.938  0.4714 -0.2267 -0.4777
  193MOL   H10842732   1.654   2.636   4.663  0.1969  1.8229 -0.4070
  193MOL   H10942733   1.425   2.674   4.569  0.5254  1.3686 -0.6192
  193MOL   H11042734   1.273   2.783   4.950 -0.8474  1.2208 -1.4555
  193MOL   H11142735   1.493   2.728   5.054  1.1975  2.2136 -0.1569
  193MOL   C11242736   2.038   2.797   4.969  0.1071  0.6666  0.0068
  193MOL   C11342737   1.935   2.702   4.969 -0.0981 -0.2659  0.4367
  193MOL   C11442738   1.805   2.745   4.924 -0.1999  0.1015  0.0927
  193MOL   C11542739   1.789   2.879   4.885 -0.2398 -0.5127 -0.0724
  193MOL   C11642740   1.897   2.972   4.895  0.7423 -0.2076 -0.0036
  193MOL   C11742741   2.023   2.933   4.939  0.3149  0.1211 -0.0733
  193MOL   O11842742   2.135   3.015   4.941 -0.5333 -0.0169  0.3944
  193MOL   H11942743   2.138   2.759   4.989  0.1670  0.8994  0.1508
  193MOL   H12042744   1.960   2.603   5.005 -2.4669 -0.4159  1.7856
  193MOL   H12142745   1.701   2.923   4.839  0.7432 -0.0006 -1.5084
  193MOL   H12242746   1.899   3.071   4.853  1.5605 -0.4996 -0.6697
  193MOL   C12342747   2.139   3.353   5.068 -0.5750  0.2425  0.7015
  193MOL   C12442748   2.131   3.252   4.976 -1.0803 -0.2093  0.0227
  193MOL   C12542749   2.139   3.121   5.024  0.5724  0.1252  0.0730
  193MOL   C12642750   2.142   3.093   5.164  0.1190 -0.3586 -0.4396
  193MOL   C12742751   2.147   3.199   5.260 -0.3459 -0.5957  0.3771
  193MOL   C12842752   2.134   3.328   5.207  0.3441 -0.1143 -0.4600
  193MOL   O12942753   2.127   3.441   5.283 -0.4302  0.3749  0.1210
  193MOL   H13042754   2.130   3.454   5.031  0.1734 -0.0516 -0.2919
  193MOL   H13142755   2.135   3.269   4.869 -2.1429 -1.3796 -0.2171
  193MOL   H13242756   2.146   2.991   5.199  2.6036  1.0243  3.7379
  193MOL   H13342757   2.136   3.184   5.366  2.6717  0.5803  0.9025
  193MOL   C13442758   1.766   3.492   5.334  0.4715 -0.2863 -1.3337
  193MOL   C13542759   1.879   3.434   5.292 -0.0238 -0.1345 -0.2781
  193MOL   C13642760   2.006   3.489   5.327 -0.0593 -0.4037  0.9380
  193MOL   C13742761   2.009   3.605   5.406 -0.5054  0.6795 -0.4582
  193MOL   C13842762   1.890   3.668   5.441 -0.3047  0.0835 -0.7176
  193MOL   C13942763   1.769   3.614   5.401 -0.0595  0.2357 -0.2365
  193MOL   O14042764   1.649   3.668   5.443 -0.3223  0.5055 -0.5610
  193MOL   H14142765   1.669   3.446   5.321 -0.0959  0.1358  1.2036
  193MOL   H14242766   1.877   3.344   5.231  0.4717  1.4297 -2.6740
  193MOL   H14342767   2.103   3.641   5.445 -0.0500 -0.0468 -0.8776
  193MOL   H14442768   1.897   3.761   5.496 -0.8087  1.2247 -2.5606
  193MOL   C14542769   1.618   3.999   5.275 -0.6295  0.3120 -1.1497
  193MOL   C14642770   1.661   3.869   5.300 -0.2340  0.2681 -0.8969
  193MOL   C14742771   1.602   3.792   5.399 -0.3348 -0.0835  0.1653
  193MOL   C14842772   1.493   3.844   5.468 -0.2072 -0.5886 -0.5190
  193MOL   C14942773   1.442   3.979   5.435  0.6970 -0.6199  0.2512
  193MOL   C15042774   1.504   4.054   5.336 -0.2596 -0.1999  0.0015
  193MOL   O15142775   1.466   4.183   5.309  0.7214  0.1654 -0.8813
  193MOL   H15242776   1.668   4.052   5.196  1.0007 -1.3064 -1.2355
  193MOL   H15342777   1.747   3.831   5.246  1.2471  2.1185  0.0850
  193MOL   H15442778   1.456   3.782   5.548  0.4428 -1.1660 -0.6600
  193MOL   H15542779   1.363   4.028   5.490  1.1111 -1.3599  1.5192
  193MOL   C15642780   1.422   4.398   5.605  0.1920 -0.2311  0.3736
  193MOL   C15742781   1.481   4.332   5.494 -0.1623  0.5498  0.0762
  193MOL   C15842782   1.407   4.256   5.404  0.7465  0.2459  0.0255
  193MOL   C15942783   1.260   4.257   5.420 -0.7851  0.2335 -0.3593
  193MOL   C16042784   1.203   4.317   5.528  0.1465  0.0181 -0.3452
  193MOL   C16142785   1.279   4.396   5.618  0.8372  0.0594 -0.4463
  193MOL   O16242786   1.216   4.469   5.709 -0.1864 -0.5239 -0.3798
  193MOL   H16342787   1.478   4.459   5.675 -0.5923  0.1677  0.6628
  193MOL   H16442788   1.589   4.338   5.492 -0.2220  2.2239  1.0398
  193MOL   H16542789   1.194   4.204   5.352  0.1092 -0.4259 -0.7322
  193MOL   H16642790   1.096   4.308   5.531  0.3677 -3.1932 -0.2473
  193MOL   C16742791   1.290   4.802   5.847 -0.5103 -0.5539 -0.7727
  193MOL   C16842792   1.253   4.667   5.835 -0.3989  0.3377  1.0609
  193MOL   C16942793   1.246   4.603   5.706  0.1232 -0.3075  0.2472
  193MOL   C17042794   1.271   4.681   5.591 -0.2293  0.4271 -0.3187
  193MOL   C17142795   1.299   4.817   5.600 -0.3472 -0.8144 -0.0947
  193MOL   C17242796   1.308   4.881   5.730  0.2080  0.3556  0.4933
  193MOL   O17342797   1.331   5.013   5.749  0.6133 -0.3921  0.0730
  193MOL   H17442798   1.287   4.849   5.945 -0.8163 -1.2703 -0.4356
  193MOL   H17542799   1.218   4.600   5.911 -0.8743 -0.8766 -0.2053
  193MOL   H17642800   1.275   4.638   5.492  0.3662  1.0793 -0.5832
  193MOL   H17742801   1.322   4.872   5.510 -2.3995 -0.7460 -0.5860
  193MOL   C17842802   1.172   5.214   5.478 -0.7474  0.1329 -0.5520
  193MOL   C17942803   1.275   5.143   5.548  1.1088 -0.3993 -0.2177
  193MOL   C18042804   1.249   5.095   5.677 -0.3860  0.4077 -0.0675
  193MOL   C18142805   1.126   5.132   5.732  0.5094  0.4780 -0.2476
  193MOL   C18242806   1.021   5.193   5.657 -0.4720 -1.1063  0.5674
  193MOL   C18342807   1.040   5.229   5.522 -0.1623 -0.8422  0.6612
  193MOL   O18442808   0.945   5.293   5.443 -0.3976  0.1375 -0.5992
  193MOL   H18542809   1.210   5.256   5.385  3.6181 -2.6573 -0.1940
  193MOL   H18642810   1.374   5.130   5.506  0.2232 -2.3884 -1.7583
  193MOL   H18742811   1.112   5.111   5.837  0.7586  0.5260 -0.2029
  193MOL   H18842812   0.927   5.219   5.704 -0.4917 -1.1926  0.5762
  193MOL   C18942813   0.589   5.328   5.495 -0.3670 -0.1088  1.0373
  193MOL   C19042814   0.723   5.356   5.461  0.5530  0.1381 -0.6402
  193MOL   C19142815   0.817   5.257   5.452  0.7635  0.0206 -0.9385
  193MOL   C19242816   0.773   5.124   5.447 -0.2222  0.4478  0.1487
  193MOL   C19342817   0.638   5.090   5.473  0.4627  0.1557 -0.3262
  193MOL   C19442818   0.548   5.194   5.495  0.2077  0.2170 -0.4812
  193MOL   O19542819   0.415   5.178   5.525  0.1582  0.0353 -0.5117
  193MOL   H19642820   0.523   5.412   5.513 -1.3772 -0.8612  0.8775
  193MOL   H19742821   0.753   5.459   5.448  1.1636  0.1904  1.0410
  193MOL   H19842822   0.834   5.041   5.415 -1.5793 -0.4943 -0.0134
  193MOL   H19942823   0.606   4.987   5.464  0.3291 -0.0454  2.1359
  193MOL   C20042824   0.179   5.346   5.764  0.0106  0.0936 -0.0201
  193MOL   C20142825   0.235   5.298   5.645 -0.0169 -0.0563 -0.4779
  193MOL   C20242826   0.368   5.234   5.642 -0.5705 -0.7146  0.3475
  193MOL   C20342827   0.433   5.224   5.763 -0.1038  0.3901 -0.6851
  193MOL   C20442828   0.378   5.276   5.881  0.1830  0.2132  0.4299
  193MOL   C20542829   0.249   5.338   5.880  0.2635  0.7935 -0.1423
  193MOL   O20642830   0.204   5.397   5.998  0.2961  0.1568  0.3602
  193MOL   H20742831   0.088   5.404   5.753 -0.1084 -0.1797 -0.4997
  193MOL   H20842832   0.182   5.324   5.555  0.0520 -1.1335 -0.8363
  193MOL   H20942833   0.531   5.179   5.770 -0.1141  0.6489  1.2161
  193MOL   H21042834   0.438   5.277   5.970  1.0886  2.5489 -0.1693
  193MOL   C21142835   0.269   5.760   5.947  0.5587  0.1076 -0.2106
  193MOL   C21242836   0.294   5.620   5.964  0.3925 -0.1860  0.5871
  193MOL   C21342837   0.180   5.535   5.987 -0.8013 -0.1513  0.5030
  193MOL   C21442838   0.050   5.595   5.999 -0.2822  0.1386  0.7614
  193MOL   C21542839   0.025   5.729   5.987  0.4440  0.1312  0.6795
  193MOL   C21642840   0.139   5.818   5.968 -0.2123  0.0236 -0.2959
  193MOL   O21742841   0.113   5.956   5.973 -0.1625 -0.3819  0.5850
  193MOL   H21842842   0.343   5.833   5.919  0.2515  0.4114 -0.2285
  193MOL   H21942843   0.396   5.588   5.950 -0.0574 -1.1029 -0.7269
  193MOL   H22042844   8.219   5.531   6.015  0.1070 -0.3395  0.9468
  193MOL   H22142845   8.181   5.769   6.004 -0.3755 -2.6032  2.7375
  193MOL   H22242846   0.162   6.012   5.916  1.4714 -2.1700  0.1749
  194MOL     C142847   4.100   1.072   0.725 -0.2594 -0.3780  0.6901
  194MOL     C242848   3.987   1.131   0.777  0.3969  0.0181 -0.5311
  194MOL     C342849   3.922   1.084   0.889  0.0870  0.1250  0.4088
  194MOL     C442850   3.969   0.972   0.956 -0.1277 -0.0615  0.0621
  194MOL     C542851   4.089   0.908   0.909  0.4377 -0.1590 -0.0991
  194MOL     C642852   4.147   0.959   0.791 -0.1377 -0.3098  0.2196
  194MOL     O742853   4.262   0.908   0.744  0.1675  0.2332  0.2141
  194MOL     H842854   4.157   1.109   0.642  0.6219 -1.5420  0.7531
  194MOL     H942855   3.956   1.220   0.724 -1.0723  0.6008  1.2888
  194MOL    H1042856   3.916   0.943   1.046  0.5671  3.2262  1.6095
  194MOL    H1142857   4.117   0.815   0.957 -5.1203 -1.4004  1.0999
  194MOL    H1242858   3.831   1.133   0.920  0.4563 -1.2292  3.9084
  194MOL    C1342859   4.541   0.850   0.988  0.2110 -0.0055  0.7658
  194MOL    C1442860   4.432   0.825   0.900 -0.5227  0.5523  0.1310
  194MOL    C1542861   4.376   0.921   0.814  0.2156 -0.1427  0.3027
  194MOL    C1642862   4.440   1.049   0.806  0.1438 -0.3017 -0.1713
  194MOL    C1742863   4.555   1.071   0.891 -0.5385 -0.2948 -0.5412
  194MOL    C1842864   4.600   0.973   0.980  0.2446 -0.1949  0.4324
  194MOL    O1942865   4.708   1.009   1.062  0.5514  0.1553 -0.2713
  194MOL    H2042866   4.585   0.771   1.048  4.0820  2.9119  1.9166
  194MOL    H2142867   4.402   0.721   0.899 -1.1474  0.7360 -0.2731
  194MOL    H2242868   4.411   1.126   0.735 -1.4827 -0.0815  0.7109
  194MOL    H2342869   4.610   1.163   0.882  1.6052 -1.2477  2.0099
  194MOL    C2442870   4.747   1.290   1.304  0.0965 -0.3128 -0.5799
  194MOL    C2542871   4.776   1.199   1.197  0.4003  0.0728  0.2984
  194MOL    C2642872   4.689   1.093   1.172 -0.2966  0.1956 -0.3043
  194MOL    C2742873   4.584   1.063   1.261 -0.4731  0.6848 -0.1688
  194MOL    C2842874   4.561   1.145   1.371 -0.0513 -0.6097  0.2457
  194MOL    C2942875   4.641   1.259   1.391 -0.2284 -0.2920 -0.0683
  194MOL    O3042876   4.616   1.337   1.503  0.9537 -0.0152  0.3026
  194MOL    H3142877   4.810   1.377   1.315 -0.6621  0.1637  0.0300
  194MOL    H3242878   4.858   1.216   1.129  0.6064 -0.8303  0.3074
  194MOL    H3342879   4.517   0.979   1.246 -0.2998  0.5023  0.0751
  194MOL    H3442880   4.479   1.119   1.436  0.2985 -0.6959  0.6593
  194MOL    C3542881   4.625   1.702   1.457  1.0297 -0.5949 -0.1281
  194MOL    C3642882   4.666   1.568   1.457 -0.1437  0.3945 -0.2834
  194MOL    C3742883   4.574   1.462   1.490  0.0968 -0.5703  0.1217
  194MOL    C3842884   4.441   1.491   1.505 -0.0371 -0.6695  0.6821
  194MOL    C3942885   4.397   1.626   1.486  0.4130 -0.3862 -0.3153
  194MOL    C4042886   4.491   1.731   1.466  0.0293  0.3015 -0.5762
  194MOL    O4142887   4.457   1.862   1.459  0.4681  0.3151  0.0065
  194MOL    H4242888   4.702   1.777   1.449  0.1445  0.5536  1.9189
  194MOL    H4342889   4.771   1.548   1.438 -0.6649 -1.1908 -1.5419
  194MOL    H4442890   4.360   1.423   1.525 -0.9116 -0.4449 -1.8885
  194MOL    H4542891   4.292   1.648   1.491  0.6430  0.8544 -0.6618
  194MOL    C4642892   4.251   1.920   1.161 -0.6396  0.4569  0.0891
  194MOL    C4742893   4.366   1.896   1.242  0.2269 -0.0235  0.1306
  194MOL    C4842894   4.353   1.894   1.380  0.0521  0.0265  0.4251
  194MOL    C4942895   4.228   1.923   1.445 -0.1294  0.3962 -0.3260
  194MOL    C5042896   4.118   1.960   1.363  0.9136 -0.0696 -0.3357
  194MOL    C5142897   4.131   1.958   1.221  0.8728  0.3855 -0.8296
  194MOL    O5242898   4.023   2.001   1.140 -0.3224  0.0823  0.1071
  194MOL    H5342899   4.264   1.921   1.053 -0.3620 -0.3612  0.1119
  194MOL    H5442900   4.463   1.879   1.197  0.4731 -1.9185  1.3385
  194MOL    H5542901   4.225   1.940   1.552 -0.6982 -0.7375 -0.1504
  194MOL    H5642902   4.027   1.992   1.411  0.1560  3.2291 -3.7152
  194MOL    C5742903   3.790   1.720   1.091 -0.4778  0.3619  0.1211
  194MOL    C5842904   3.905   1.797   1.087 -0.0002  0.6929  0.6190
  194MOL    C5942905   3.907   1.926   1.144 -0.1686 -0.2313 -0.0810
  194MOL    C6042906   3.792   1.978   1.204  0.3195  0.5255  0.3795
  194MOL    C6142907   3.677   1.895   1.212 -0.7995  0.0462  0.1685
  194MOL    C6242908   3.680   1.767   1.154  0.4798 -0.1195 -0.3486
  194MOL    O6342909   3.563   1.692   1.147 -0.3531 -0.0965  0.3934
  194MOL    H6442910   3.790   1.630   1.033 -1.2219  0.6385 -0.3051
  194MOL    H6542911   3.998   1.759   1.047  0.1275 -0.3262  1.8498
  194MOL    H6642912   3.803   2.078   1.242 -1.0945  1.0514 -0.5329
  194MOL    H6742913   3.582   1.932   1.249 -0.0971  1.8014  0.3010
  194MOL    C6842914   3.402   1.550   1.459  0.6080  0.0791  0.1734
  194MOL    C6942915   3.434   1.643   1.351  0.5672  0.6153 -0.0745
  194MOL    C7042916   3.533   1.608   1.252 -0.2570 -0.3667  1.2816
  194MOL    C7142917   3.600   1.487   1.264  0.9049  0.7612 -0.7238
  194MOL    C7242918   3.582   1.404   1.379  0.2320  0.1132  0.3657
  194MOL    C7342919   3.481   1.428   1.474 -0.5225 -0.0749 -0.4594
  194MOL    O7442920   3.450   1.340   1.578  0.1276  0.3212  0.0107
  194MOL    H7542921   3.317   1.571   1.522  0.4138  1.5369 -0.5583
  194MOL    H7642922   3.371   1.730   1.340 -2.1401 -1.3157 -0.4439
  194MOL    H7742923   3.676   1.446   1.200  3.5102  1.7750  1.5958
  194MOL    H7842924   3.646   1.319   1.392  2.0703  1.2308 -1.0985
  194MOL    C7942925   3.776   1.317   1.765 -0.3360  0.1998  0.0959
  194MOL    C8042926   3.677   1.365   1.679  0.4158  0.1042 -0.1920
  194MOL    C8142927   3.547   1.305   1.666 -0.0561  0.7871  1.3871
  194MOL    C8242928   3.519   1.196   1.753 -0.3083  0.7803 -0.2094
  194MOL    C8342929   3.617   1.156   1.854  0.3145 -0.1305  0.2255
  194MOL    C8442930   3.750   1.211   1.857 -0.1946  0.4597 -0.5463
  194MOL    O8542931   3.853   1.174   1.941  0.0234 -0.0397 -0.6465
  194MOL    H8642932   3.872   1.366   1.763 -0.4542  0.4218 -0.1761
  194MOL    H8742933   3.710   1.437   1.606  2.9898 -0.2633  0.5477
  194MOL    H8842934   3.423   1.147   1.746  0.4818 -0.9114  0.4322
  194MOL    H8942935   3.595   1.080   1.928 -0.1174  0.0356  0.2711
  194MOL    C9042936   3.899   0.818   1.840 -0.2180  0.0408 -0.0301
  194MOL    C9142937   3.851   0.947   1.832 -0.0601  0.2690 -0.4613
  194MOL    C9242938   3.888   1.038   1.935 -0.5170  0.2381  0.0723
  194MOL    C9342939   3.982   0.998   2.032 -0.3532  0.0221 -0.3051
  194MOL    C9442940   4.039   0.869   2.038 -0.2728  0.6906  0.1724
  194MOL    C9542941   3.995   0.775   1.943  0.2527 -0.6886  0.1217
  194MOL    O9642942   4.040   0.649   1.961 -0.4478  0.3360 -0.6239
  194MOL    H9742943   3.861   0.749   1.767  0.4666  0.1404 -0.4912
  194MOL    H9842944   3.781   0.973   1.754 -1.8116  0.3796  1.1031
  194MOL    H9942945   4.017   1.076   2.099  1.2832  0.4805 -1.6590
  194MOL   H10042946   4.119   0.855   2.108  2.3806  1.2074 -2.6689
  194MOL   C10142947   4.374   0.619   1.814 -0.6878 -0.4985 -0.1603
  194MOL   C10242948   4.259   0.674   1.872  0.5724  0.0196 -0.2633
  194MOL   C10342949   4.149   0.595   1.906  0.0077  0.2969 -0.3395
  194MOL   C10442950   4.143   0.455   1.885  1.0568 -0.3853 -0.1124
  194MOL   C10542951   4.254   0.406   1.815 -0.1641 -0.2153 -0.0263
  194MOL   C10642952   4.365   0.482   1.774  0.3410  0.3820  0.3836
  194MOL   O10742953   4.469   0.427   1.697 -0.0454 -0.2377 -0.1011
  194MOL   H10842954   4.457   0.683   1.793 -1.4610  0.4651 -0.3066
  194MOL   H10942955   4.272   0.779   1.894  2.7333 -0.3620  0.4740
  194MOL   H11042956   4.051   0.413   1.921  0.0312  1.4698 -0.4859
  194MOL   H11142957   4.246   0.299   1.803  2.3448 -0.5311  0.9756
  194MOL   C11242958   4.519   0.340   1.348 -0.0246  0.0039 -0.6747
  194MOL   C11342959   4.537   0.350   1.487  0.1211  0.6964 -1.2289
  194MOL   C11442960   4.452   0.428   1.561  0.6091  0.1635 -0.4390
  194MOL   C11542961   4.350   0.500   1.497  0.2673  0.6468  0.4247
  194MOL   C11642962   4.333   0.489   1.356 -0.5773  0.8157  0.3725
  194MOL   C11742963   4.421   0.416   1.277 -0.0764  0.6038 -0.6531
  194MOL   O11842964   4.403   0.399   1.141  0.8472  0.3663 -0.4432
  194MOL   H11942965   4.585   0.277   1.290 -0.5020  0.1146 -1.3488
  194MOL   H12042966   4.619   0.297   1.534 -2.0039 -1.6446 -0.0225
  194MOL   H12142967   4.276   0.559   1.550  0.7475  1.1350  0.5532
  194MOL   H12242968   4.250   0.542   1.313  0.5916  1.3891 -1.2108
  194MOL   C12342969   4.260   0.066   1.069  0.0051  1.2588  0.2599
  194MOL   C12442970   4.356   0.162   1.100  0.2555 -0.2218  0.0469
  194MOL   C12542971   4.322   0.301   1.091  0.7053 -0.0129 -0.9433
  194MOL   C12642972   4.206   0.333   1.021  0.6249  0.2134 -0.4717
  194MOL   C12742973   4.120   0.231   0.973  0.0636 -0.5534 -0.2373
  194MOL   C12842974   4.135   0.096   1.012  0.3907 -0.3221 -0.1474
  194MOL   O12942975   4.052   8.253   0.966 -0.1395  0.0723  0.0458
  194MOL   H13042976   4.280   8.217   1.094 -2.5195  0.4202 -1.0604
  194MOL   H13142977   4.451   0.127   1.138 -0.5915  0.5885  3.0300
  194MOL   H13242978   4.180   0.434   0.995 -0.8342  0.6649  2.4897
  194MOL   H13342979   4.030   0.252   0.916 -0.3176  2.0459  1.2542
  194MOL   C13442980   4.066   7.908   1.105  0.3634 -0.2980  0.6679
  194MOL   C13542981   4.092   8.012   1.016  0.1941 -0.2698 -0.4922
  194MOL   C13642982   4.033   8.139   1.045 -0.2624  0.6255  0.1037
  194MOL   C13742983   3.955   8.158   1.164 -0.0852  1.1427  0.1293
  194MOL   C13842984   3.934   8.046   1.252  0.2977  0.5100  0.7477
  194MOL   C13942985   3.992   7.922   1.219  0.9697  0.1823 -0.7486
  194MOL   O14042986   3.964   7.821   1.304  0.7523  0.3185 -0.0922
  194MOL   H14142987   4.097   7.810   1.073 -1.9823 -0.9732  0.3266
  194MOL   H14242988   4.139   7.999   0.920  0.0739 -0.5240 -0.5145
  194MOL   H14342989   3.920   8.254   1.197 -0.7331  0.8400  0.3260
  194MOL   H14442990   3.872   8.043   1.340  1.5491  0.4866  1.6395
  194MOL   C14542991   4.061   7.851   1.652 -0.8682 -0.3502 -0.3591
  194MOL   C14642992   3.983   7.853   1.535 -0.3518  0.8060  0.4961
  194MOL   C14742993   4.035   7.806   1.411  0.9383  0.1769 -0.0442
  194MOL   C14842994   4.160   7.744   1.408  0.5733  0.2300 -0.0318
  194MOL   C14942995   4.242   7.739   1.523 -0.1726 -0.0868  0.3865
  194MOL   C15042996   4.195   7.797   1.641  0.1019  0.2244 -0.0041
  194MOL   O15142997   4.282   7.813   1.740 -0.4860  0.6857 -0.0370
  194MOL   H15242998   4.026   7.882   1.749  1.2786  0.3247  0.2085
  194MOL   H15342999   3.883   7.892   1.527 -0.0284  1.3334 -1.1064
  194MOL   H15443000   4.208   7.708   1.318  1.3251 -0.1735  0.5256
  194MOL   H15543001   4.346   7.713   1.512 -0.8409 -1.6959 -2.6053
  194MOL   C15643002   4.200   8.063   2.002 -0.5750 -0.2837  0.4911
  194MOL   C15743003   4.209   7.943   1.934 -0.1619 -0.3677 -0.4221
  194MOL   C15843004   4.282   7.932   1.819 -0.2648 -0.1967  0.1405
  194MOL   C15943005   4.346   8.048   1.768  0.2361 -0.0890 -1.0528
  194MOL   C16043006   4.356   8.165   1.851 -0.3573  0.3788 -0.2127
  194MOL   C16143007   4.277   8.175   1.967 -0.0094 -0.1093 -0.0246
  194MOL   O16243008   4.264   0.046   2.027 -0.0925 -0.0201 -0.2421
  194MOL   H16343009   4.124   8.070   2.079 -0.4085  0.8857  0.5521
  194MOL   H16443010   4.152   7.859   1.970 -0.5301  0.3511  0.7244
  194MOL   H16543011   4.394   8.039   1.672  2.0506 -3.0782  0.0725
  194MOL   H16643012   4.397   0.003   1.812 -0.6754  1.1416  1.1908
  194MOL   C16743013   4.004   0.204   2.226  0.4662  0.3922 -0.1155
  194MOL   C16843014   4.127   0.149   2.186  0.4075  0.5331 -0.5367
  194MOL   C16943015   4.143   0.093   2.061 -0.0988  0.1126 -0.5442
  194MOL   C17043016   4.039   0.103   1.968 -0.2598  0.1000  1.1182
  194MOL   C17143017   3.917   0.161   2.004  0.5202 -0.9993 -0.9769
  194MOL   C17243018   3.898   0.212   2.136  0.0823 -0.1216 -0.1433
  194MOL   O17343019   3.788   0.283   2.158  0.1809  0.0438  0.2178
  194MOL   H17443020   4.009   0.238   2.328  0.1476  0.3854 -0.0961
  194MOL   H17543021   4.209   0.148   2.257 -0.3507  1.3997  0.3628
  194MOL   H17643022   4.051   0.069   1.867  0.0444  2.0457  0.4734
  194MOL   H17743023   3.835   0.169   1.934  0.3585  0.0641 -0.6768
  194MOL   C17843024   3.725   0.516   2.442 -0.1819 -0.6840  0.3549
  194MOL   C17943025   3.730   0.397   2.367  0.9011 -0.1505  0.0966
  194MOL   C18043026   3.795   0.393   2.240  0.0430 -0.2169 -0.3271
  194MOL   C18143027   3.874   0.501   2.200  0.1392 -0.2196 -0.3629
  194MOL   C18243028   3.872   0.621   2.276 -0.1900  0.1708  0.7523
  194MOL   C18343029   3.803   0.623   2.399  0.1276 -0.6705  0.2193
  194MOL   O18443030   3.790   0.744   2.468 -0.4410 -0.0001 -0.1606
  194MOL   H18543031   3.659   0.519   2.527  0.0056  0.5382  0.4622
  194MOL   H18643032   3.663   0.317   2.396 -0.0042  0.3869 -0.4910
  194MOL   H18743033   3.934   0.504   2.110 -0.3466  1.1774 -0.6483
  194MOL   H18843034   3.916   0.712   2.239  0.2493 -1.1639 -2.2129
  194MOL   C18943035   4.072   0.989   2.464  0.4247  0.0088  0.4169
  194MOL   C19043036   3.997   0.873   2.485 -0.3340  0.0101 -0.6323
  194MOL   C19143037   3.865   0.859   2.438 -0.4154 -0.0324  0.1515
  194MOL   C19243038   3.803   0.959   2.367  0.1183 -0.1763  0.8926
  194MOL   C19343039   3.874   1.082   2.342  0.0630 -0.6462  0.1111
  194MOL   C19443040   4.015   1.088   2.381 -0.2038  0.1056 -0.3581
  194MOL   O19543041   4.081   1.199   2.331  0.4753  0.1886 -0.5906
  194MOL   H19643042   4.173   0.999   2.500  1.8552 -0.9141 -3.2394
  194MOL   H19743043   4.036   0.790   2.543  2.2515  0.5320 -1.5490
  194MOL   H19843044   3.703   0.951   2.327  0.2669  1.2741  0.1905
  194MOL   H19943045   3.826   1.155   2.279 -2.2911 -2.1076  0.1842
  194MOL   C20043046   4.419   1.342   2.293  0.3949 -0.5601  0.3900
  194MOL   C20143047   4.282   1.327   2.326  0.3984 -0.4149 -0.3321
  194MOL   C20243048   4.217   1.201   2.305  0.0548  0.0734  0.4962
  194MOL   C20343049   4.293   1.098   2.245 -0.2159 -0.1408  0.2422
  194MOL   C20443050   4.433   1.117   2.210  0.0183 -0.4963  0.3319
  194MOL   C20543051   4.489   1.240   2.229 -0.6887 -0.7236 -0.1946
  194MOL   O20643052   4.620   1.274   2.195 -0.1100  0.3860 -0.4562
  194MOL   H20743053   4.457   1.442   2.299  0.2965 -0.3487 -1.9648
  194MOL   H20843054   4.226   1.410   2.366 -1.3880 -1.3814 -0.7713
  194MOL   H20943055   4.251   1.003   2.215 -2.7151  0.9593  0.1191
  194MOL   H21043056   4.496   1.038   2.171  0.9423  1.4158 -2.1353
  194MOL   C21143057   4.629   1.289   1.822  0.3674  0.6255  0.6020
  194MOL   C21243058   4.585   1.311   1.955  0.4099 -0.1302 -0.3239
  194MOL   C21343059   4.666   1.267   2.062  0.0366  0.1608  0.1970
  194MOL   C21443060   4.785   1.198   2.038  0.3090  0.8717 -0.3625
  194MOL   C21543061   4.825   1.174   1.903  0.2680  0.1740 -0.9496
  194MOL   C21643062   4.749   1.218   1.797  0.0095 -0.6122  0.2264
  194MOL   O21743063   4.785   1.188   1.666  0.3664  0.1834 -0.2527
  194MOL   H21843064   4.572   1.330   1.740  3.4427 -0.1470 -2.0049
  194MOL   H21943065   4.491   1.361   1.973  0.3140 -0.3697 -0.1646
  194MOL   H22043066   4.847   1.150   2.113 -2.1652  2.2127  2.6422
  194MOL   H22143067   4.914   1.114   1.886 -0.5876 -0.9062 -1.6698
  194MOL   H22243068   4.736   1.227   1.595  0.0678 -1.3850 -0.9356
  195MOL     C143069   0.864   2.684   0.562  0.9462  0.3074  0.2508
  195MOL     C243070   0.863   2.583   0.663  0.6092 -0.1746 -0.1514
  195MOL     C343071   0.743   2.514   0.691 -0.4093  0.1277 -0.2600
  195MOL     C443072   0.632   2.539   0.610 -0.1298 -0.8658 -0.0023
  195MOL     C543073   0.636   2.636   0.512 -0.0736  0.4236  0.1556
  195MOL     C643074   0.751   2.706   0.481 -0.4374  0.5062  0.5552
  195MOL     O743075   0.751   2.791   0.367  0.0092 -0.4660  0.7954
  195MOL     H843076   0.955   2.735   0.536  0.1277  2.7099  1.9022
  195MOL     H943077   0.955   2.554   0.712  1.4654  0.3867 -1.4052
  195MOL    H1043078   0.540   2.485   0.629 -1.3095  0.9965 -0.2248
  195MOL    H1143079   0.553   2.650   0.444 -0.2216 -1.8546 -0.1777
  195MOL    H1243080   0.747   2.440   0.769 -1.9396  0.0544 -0.2491
  195MOL    C1343081   0.928   3.107   0.473  0.1284  0.5398 -0.3574
  195MOL    C1443082   0.849   2.986   0.482 -0.6448 -0.3116 -0.1382
  195MOL    C1543083   0.830   2.906   0.367  0.8173 -0.5742 -0.0028
  195MOL    C1643084   0.882   2.949   0.242 -0.3942 -0.2662 -0.4975
  195MOL    C1743085   0.971   3.058   0.237  0.2824 -0.0522  0.3749
  195MOL    C1843086   0.994   3.138   0.353  0.5468 -0.5265  0.2677
  195MOL    O1943087   1.073   3.250   0.343  0.3151  0.3363 -0.7804
  195MOL    H2043088   0.957   3.169   0.557 -0.9720 -1.0977  1.2527
  195MOL    H2143089   0.810   2.955   0.578  2.0730 -0.1374  1.0559
  195MOL    H2243090   0.847   2.890   0.159  0.0441 -0.7528 -0.3359
  195MOL    H2343091   1.023   3.077   0.144 -0.0889 -1.9282 -0.2291
  195MOL    C2443092   1.429   3.162   0.394  0.1406  1.2293 -0.1378
  195MOL    C2543093   1.305   3.176   0.335 -0.2270 -0.3688  0.2311
  195MOL    C2643094   1.198   3.236   0.404  0.4367 -0.0408  0.2811
  195MOL    C2743095   1.225   3.307   0.520  0.0657  0.3004 -0.1855
  195MOL    C2843096   1.352   3.299   0.580 -0.8224 -0.1751  1.0852
  195MOL    C2943097   1.457   3.228   0.514  0.2053 -0.3514  0.8748
  195MOL    O3043098   1.583   3.215   0.572  0.2403 -0.0631  0.1349
  195MOL    H3143099   1.494   3.096   0.339  0.8112  2.9901 -1.5101
  195MOL    H3243100   1.284   3.129   0.239 -1.0958  0.2839  0.0967
  195MOL    H3343101   1.143   3.363   0.562 -1.3378 -1.0483 -1.0812
  195MOL    H3443102   1.366   3.349   0.675  2.1192  0.8480  0.1612
  195MOL    C3543103   1.845   3.340   0.347  0.3106 -0.2264 -0.1083
  195MOL    C3643104   1.727   3.337   0.424 -1.1299 -0.5734  0.0569
  195MOL    C3743105   1.701   3.225   0.503 -0.4827  0.5306 -0.0044
  195MOL    C3843106   1.798   3.123   0.518  0.7591 -0.3983  0.3500
  195MOL    C3943107   1.919   3.134   0.446 -0.2229 -0.1330  0.3259
  195MOL    C4043108   1.946   3.241   0.359  0.9315  0.3767 -0.8327
  195MOL    O4143109   2.063   3.252   0.296  0.5906 -0.2250  0.1562
  195MOL    H4243110   1.839   3.415   0.270 -1.4754 -0.4071 -0.1851
  195MOL    H4343111   1.654   3.416   0.424  1.8641  2.3035  1.1981
  195MOL    H4443112   1.781   3.036   0.581  1.1503 -0.1661  0.7752
  195MOL    H4543113   1.998   3.062   0.462  0.3144  0.0708 -1.2451
  195MOL    C4643114   2.256   3.508   0.473 -0.3106 -0.1048 -0.0352
  195MOL    C4743115   2.146   3.446   0.406  0.0916 -0.1030 -0.3041
  195MOL    C4843116   2.161   3.311   0.368 -0.7857 -0.2587  0.5248
  195MOL    C4943117   2.279   3.242   0.401 -0.2004 -0.4297  0.2464
  195MOL    C5043118   2.389   3.309   0.462  0.0054 -0.5231 -0.1449
  195MOL    C5143119   2.382   3.443   0.494  0.2705 -0.1200 -0.2752
  195MOL    O5243120   2.485   3.507   0.560  0.1165 -0.4327 -0.0615
  195MOL    H5343121   2.248   3.611   0.504  2.3973  0.6675 -1.6966
  195MOL    H5443122   2.054   3.501   0.394 -0.3635 -1.3591 -2.7447
  195MOL    H5543123   2.287   3.138   0.373  0.1181 -0.4853  0.5302
  195MOL    H5643124   2.480   3.261   0.496  0.4961 -0.5339 -1.4126
  195MOL    C5743125   2.784   3.711   0.451  0.2134 -0.1449  0.3515
  195MOL    C5843126   2.705   3.617   0.525  0.3969 -0.7285  0.1367
  195MOL    C5943127   2.567   3.583   0.487  0.3346 -0.4041 -0.2324
  195MOL    C6043128   2.520   3.656   0.366 -0.0797 -0.1933 -0.3397
  195MOL    C6143129   2.605   3.743   0.290  0.0280  0.1660 -0.4020
  195MOL    C6243130   2.734   3.772   0.333 -0.6097  0.0263 -0.6716
  195MOL    O6343131   2.811   3.854   0.260  0.4148  0.0113 -0.1576
  195MOL    H6443132   2.883   3.729   0.491  0.1689  0.7768  0.0557
  195MOL    H6543133   2.756   3.570   0.608 -0.3233  0.4623  1.2694
  195MOL    H6643134   2.417   3.636   0.342 -0.0471 -1.8777  0.8368
  195MOL    H6743135   2.573   3.788   0.197  1.6822  1.7222 -0.2416
  195MOL    C6843136   2.749   4.198   0.387  0.3289 -0.0496  0.4098
  195MOL    C6943137   2.773   4.058   0.389 -0.1140 -0.0042 -0.4957
  195MOL    C7043138   2.792   3.993   0.264 -0.3948  0.0076  0.2266
  195MOL    C7143139   2.788   4.067   0.148  0.1594  0.3690 -0.1755
  195MOL    C7243140   2.770   4.215   0.148  0.1929 -0.0193 -0.6140
  195MOL    C7343141   2.753   4.274   0.272  0.0091  1.2907  0.1778
  195MOL    O7443142   2.742   4.406   0.287  0.2796  0.3732 -0.2428
  195MOL    H7543143   2.727   4.238   0.485 -0.6927  0.6631 -0.1149
  195MOL    H7643144   2.773   4.006   0.483  1.3077  1.2861  0.2267
  195MOL    H7743145   2.809   4.021   0.052  1.7998 -0.7644  0.7101
  195MOL    H7843146   2.783   4.265   0.053 -0.1697 -1.9647 -1.7224
  195MOL    C7943147   3.040   4.564   0.145 -0.1251  0.2859  0.4770
  195MOL    C8043148   2.912   4.497   0.155  0.1022  0.2952 -0.7770
  195MOL    C8143149   2.860   4.476   0.279 -0.5587  0.3334  0.0320
  195MOL    C8243150   2.924   4.532   0.391 -0.1706 -0.0970  0.0688
  195MOL    C8343151   3.045   4.597   0.387  0.3426 -0.2619  0.7388
  195MOL    C8443152   3.105   4.605   0.261  0.0035  1.0967 -0.0498
  195MOL    O8543153   3.231   4.647   0.257  0.0761 -0.9293  0.0090
  195MOL    H8643154   3.096   4.556   0.054  1.3826  0.0178  1.4050
  195MOL    H8743155   2.867   4.460   0.065 -1.1217 -0.0720 -0.0211
  195MOL    H8843156   2.882   4.500   0.485  2.6589  0.0400  1.4390
  195MOL    H8943157   3.096   4.617   0.480  1.5049  0.6596 -0.0854
  195MOL    C9043158   3.439   4.373   0.390 -0.4489  0.2859 -0.3404
  195MOL    C9143159   3.331   4.435   0.326  0.3444 -0.0462 -0.2782
  195MOL    C9243160   3.327   4.577   0.325 -0.0368  0.7029 -0.1800
  195MOL    C9343161   3.430   4.651   0.381  0.5360 -0.0403 -0.4653
  195MOL    C9443162   3.537   4.584   0.441  0.1516  0.6607 -1.1970
  195MOL    C9543163   3.545   4.445   0.446  0.3439  0.2724  0.2165
  195MOL    O9643164   3.659   4.388   0.503 -0.4006 -0.7063  0.2905
  195MOL    H9743165   3.449   4.266   0.384  0.9495  0.4250 -0.6597
  195MOL    H9843166   3.258   4.366   0.285  0.9017 -0.4594 -0.5953
  195MOL    H9943167   3.424   4.759   0.386  0.9724 -0.0546  0.5132
  195MOL   H10043168   3.612   4.635   0.499  0.2408  0.1113 -0.8269
  195MOL   C10143169   3.676   4.047   0.637  0.7839  0.0080  0.1875
  195MOL   C10243170   3.660   4.185   0.632 -0.5053  0.5418 -0.6200
  195MOL   C10343171   3.682   4.253   0.510  0.2306  0.3144 -0.1268
  195MOL   C10443172   3.706   4.178   0.393  0.2195  0.4396  0.6524
  195MOL   C10543173   3.727   4.040   0.400  0.0054  0.2036  0.2865
  195MOL   C10643174   3.714   3.972   0.525 -0.0695  0.4708 -0.1551
  195MOL   O10743175   3.737   3.839   0.532 -0.6017  0.3387 -0.2797
  195MOL   H10843176   3.672   3.998   0.734 -0.9492 -1.6835 -0.7185
  195MOL   H10943177   3.627   4.239   0.719  1.7111  0.0482  0.5742
  195MOL   H11043178   3.710   4.228   0.298  2.7591 -1.3465 -0.2285
  195MOL   H11143179   3.756   3.991   0.309 -2.2768  0.1572 -0.4640
  195MOL   C11243180   3.440   3.627   0.595  0.0512 -0.2032  0.4520
  195MOL   C11343181   3.538   3.724   0.610 -0.5515 -0.2669 -0.3700
  195MOL   C11443182   3.629   3.757   0.505 -0.3530 -0.7495 -0.5599
  195MOL   C11543183   3.627   3.686   0.384  0.0474  0.4887  0.3026
  195MOL   C11643184   3.528   3.590   0.360  0.0720  0.6003 -0.0507
  195MOL   C11743185   3.432   3.560   0.467  0.5666  0.0881  0.4476
  195MOL   O11843186   3.343   3.460   0.444 -0.1077 -0.1121  0.3253
  195MOL   H11943187   3.374   3.599   0.676 -1.5099 -0.1476 -0.7864
  195MOL   H12043188   3.554   3.768   0.707 -3.2763  2.0015 -0.8875
  195MOL   H12143189   3.699   3.696   0.304  1.8336 -0.5647  1.7204
  195MOL   H12243190   3.528   3.533   0.269  0.5513 -2.3889  1.7455
  195MOL   C12343191   3.101   3.363   0.188  0.2360  0.2801  0.1329
  195MOL   C12443192   3.213   3.357   0.271  0.4399 -0.0908 -0.6366
  195MOL   C12543193   3.257   3.472   0.340  0.0605  0.2839  0.4703
  195MOL   C12643194   3.197   3.597   0.311  1.3754 -0.0984  0.4625
  195MOL   C12743195   3.090   3.604   0.224 -0.0150 -0.0956  0.3319
  195MOL   C12843196   3.038   3.486   0.169 -0.2971  0.2479 -0.1188
  195MOL   O12943197   2.940   3.492   0.070  0.1807  0.5075 -0.4969
  195MOL   H13043198   3.059   3.280   0.133  1.0135 -0.8326  1.2086
  195MOL   H13143199   3.255   3.261   0.298  0.2023 -0.2041 -0.6747
  195MOL   H13243200   3.220   3.684   0.370  1.1843  0.9930 -1.0455
  195MOL   H13343201   3.039   3.696   0.204 -0.9814 -0.2585  1.9155
  195MOL   C13443202   2.657   3.309   0.210  0.7850  0.8238 -0.6437
  195MOL   C13543203   2.762   3.402   0.190  0.1158  0.0440  0.1524
  195MOL   C13643204   2.837   3.405   0.069 -0.3650  0.2018  0.3662
  195MOL   C13743205   2.807   3.321   8.218  0.6006  0.3280 -0.2964
  195MOL   C13843206   2.693   3.237   8.234 -0.2016  0.2731 -0.0008
  195MOL   C13943207   2.618   3.227   0.098 -0.0486 -0.6584 -0.9970
  195MOL   O14043208   2.524   3.131   0.112  0.1477 -0.2112  0.1441
  195MOL   H14143209   2.593   3.302   0.297  1.6020  0.6011 -0.0552
  195MOL   H14243210   2.801   3.468   0.266 -0.1165  3.9010 -2.9241
  195MOL   H14343211   2.859   3.329   8.124 -0.1865 -0.0130 -0.7689
  195MOL   H14443212   2.669   3.167   8.155 -1.2038  1.1689 -0.4923
  195MOL   C14543213   2.180   3.056   8.246 -0.0727  0.0821 -0.2406
  195MOL   C14643214   2.317   3.039   0.031  0.0217  0.4941 -0.6533
  195MOL   C14743215   2.397   3.149   0.063  0.0944 -0.0416 -0.5267
  195MOL   C14843216   2.336   3.277   0.063  0.2787  0.0496  0.1444
  195MOL   C14943217   2.201   3.290   0.037 -0.4274  0.6165 -0.6640
  195MOL   C15043218   2.118   3.187   8.253  0.9580  0.7654  0.2933
  195MOL   O15143219   1.997   3.215   8.193 -0.6908 -0.5586  0.4195
  195MOL   H15243220   2.119   2.976   8.205  0.0020  0.0401 -0.2694
  195MOL   H15343221   2.365   2.942   0.037  0.4234  0.7485  0.2336
  195MOL   H15443222   2.395   3.366   0.077 -0.3018  0.2350  1.4400
  195MOL   H15543223   2.164   3.389   0.059  1.8126  1.3387 -0.0315
  195MOL   C15643224   1.650   3.108   8.182  0.2026  0.1733 -0.3802
  195MOL   C15743225   1.768   3.168   8.147 -0.4437  0.4538 -0.3377
  195MOL   C15843226   1.880   3.146   8.229  0.2704 -0.4899 -0.7197
  195MOL   C15943227   1.866   3.076   0.099  0.2637  0.7249 -0.0119
  195MOL   C16043228   1.747   3.017   0.138  0.0646  0.2616  0.1448
  195MOL   C16143229   1.636   3.034   0.055 -0.0481  0.2209  0.4171
  195MOL   O16243230   1.515   2.977   0.094  0.1849 -0.5220 -0.0795
  195MOL   H16343231   1.567   3.125   8.115  2.3282  2.6171 -2.5226
  195MOL   H16443232   1.777   3.226   8.057 -0.4348 -1.1239 -1.3683
  195MOL   H16543233   1.946   3.069   0.171 -1.3464 -0.9247  1.6792
  195MOL   H16643234   1.734   2.975   0.237 -2.8195  4.1886  1.5973
  195MOL   C16743235   1.465   2.650   8.194  0.3332  0.7878  0.9416
  195MOL   C16843236   1.509   2.756   0.021  0.1388 -0.1627  0.6310
  195MOL   C16943237   1.462   2.887   0.009 -0.0215  0.2819 -0.0479
  195MOL   C17043238   1.369   2.921   8.166  0.4232  0.2444 -0.1677
  195MOL   C17143239   1.310   2.815   8.085  0.3944 -0.0922 -0.2940
  195MOL   C17243240   1.359   2.678   8.099 -0.2480 -0.5696  1.0558
  195MOL   O17343241   1.312   2.568   8.037  0.3738 -0.4431 -0.3978
  195MOL   H17443242   1.501   2.551   8.215  0.9879  1.0004  0.8281
  195MOL   H17543243   1.590   2.721   0.084 -1.5417  0.5976  3.3050
  195MOL   H17643244   1.328   3.020   8.153 -0.3274 -0.1149 -0.5661
  195MOL   H17743245   1.225   2.843   8.025 -0.0199 -1.2383 -0.2665
  195MOL   C17843246   1.088   2.561   7.755  0.7321  0.6541 -0.2464
  195MOL   C17943247   1.136   2.557   7.885  0.6053  0.2554 -0.2519
  195MOL   C18043248   1.272   2.577   7.907 -0.2098  0.3106 -0.4881
  195MOL   C18143249   1.358   2.613   7.802  0.0016  0.3544 -0.4202
  195MOL   C18243250   1.304   2.619   7.667  0.0137  0.3856  0.2119
  195MOL   C18343251   1.167   2.603   7.646  0.1630  0.4020  0.0354
  195MOL   O18443252   1.115   2.603   7.520  0.9627  0.1255 -0.2524
  195MOL   H18543253   0.982   2.548   7.743  0.2685  3.7648 -0.1026
  195MOL   H18643254   1.062   2.533   7.959  0.7346  2.6513  0.6993
  195MOL   H18743255   1.462   2.640   7.809 -0.0451  0.4699 -0.1622
  195MOL   H18843256   1.367   2.638   7.582 -1.9167 -0.9496 -1.5702
  195MOL   C18943257   1.158   2.785   7.204  0.8957  0.4154  0.4487
  195MOL   C19043258   1.137   2.680   7.298 -0.1261 -0.0009  0.6616
  195MOL   C19143259   1.140   2.710   7.438  0.1084 -0.1967 -0.3365
  195MOL   C19243260   1.171   2.838   7.488  0.0876 -0.6610  0.1760
  195MOL   C19343261   1.204   2.938   7.395 -0.5374 -0.1232  0.6506
  195MOL   C19443262   1.195   2.911   7.259  0.1596  0.7623  0.7085
  195MOL   O19543263   1.211   3.014   7.159 -0.9141 -0.3736 -0.0471
  195MOL   H19643264   1.149   2.765   7.099  4.5799 -0.1684  0.1718
  195MOL   H19743265   1.117   2.581   7.260 -1.7759  1.0742 -1.3922
  195MOL   H19843266   1.169   2.868   7.591 -0.0670  0.0994 -0.0443
  195MOL   H19943267   1.232   3.037   7.428 -0.6604 -0.2950  1.2800
  195MOL   C20043268   1.553   3.136   7.198  0.5775 -0.5956 -0.0948
  195MOL   C20143269   1.446   3.060   7.147 -0.2481 -0.1068  0.2003
  195MOL   C20243270   1.316   3.099   7.178 -0.4375  0.0323 -1.2174
  195MOL   C20343271   1.296   3.221   7.245  0.0610  0.2941  0.2415
  195MOL   C20443272   1.404   3.304   7.280 -0.2774  0.1233 -0.3945
  195MOL   C20543273   1.534   3.259   7.260  0.3510  0.4760  0.3333
  195MOL   O20643274   1.646   3.328   7.299 -0.3442 -0.1734  0.3209
  195MOL   H20743275   1.652   3.100   7.175  1.4434  0.2679  2.1926
  195MOL   H20843276   1.463   2.972   7.086  1.2772 -0.4631  1.0804
  195MOL   H20943277   1.194   3.251   7.262 -0.1323 -0.0271 -0.3488
  195MOL   H21043278   1.387   3.393   7.338 -1.6543  0.7294 -1.6980
  195MOL   C21143279   1.896   3.500   7.086  0.3219 -0.1574  0.3528
  195MOL   C21243280   1.831   3.403   7.167  0.3244  0.3323  0.0633
  195MOL   C21343281   1.698   3.425   7.217  0.4636 -0.1071 -0.5179
  195MOL   C21443282   1.630   3.544   7.188  0.1973 -0.1050  0.3137
  195MOL   C21543283   1.691   3.639   7.105  0.6136  0.1865  0.3520
  195MOL   C21643284   1.824   3.617   7.055  0.6333  0.3060 -0.0176
  195MOL   O21743285   1.878   3.717   6.989 -0.6819  0.1766  0.1998
  195MOL   H21843286   1.999   3.485   7.058 -0.3158 -2.4168 -0.9628
  195MOL   H21943287   1.883   3.314   7.198  0.3759  0.4854  0.4257
  195MOL   H22043288   1.531   3.558   7.228  0.2650 -0.1472  0.4984
  195MOL   H22143289   1.646   3.734   7.083  1.1403  0.1743 -0.7833
  195MOL   H22243290   1.973   3.722   6.990 -0.7099  0.9440 -0.2646
  196MOL     C143291   1.011   0.798   2.307 -0.2092  0.4372 -0.2320
  196MOL     C243292   1.005   0.745   2.438  0.2711 -0.3808 -0.6504
  196MOL     C343293   0.949   0.620   2.465  1.0363  0.4165 -0.6869
  196MOL     C443294   0.883   0.544   2.360 -0.5488 -0.6692 -0.3977
  196MOL     C543295   0.891   0.600   2.228 -0.1087 -0.1861  0.1784
  196MOL     C643296   0.957   0.724   2.201  0.1974  0.7704  0.4366
  196MOL     O743297   0.960   0.776   2.074 -0.4355  0.0065 -0.0092
  196MOL     H843298   1.042   0.901   2.291 -0.4309  1.1259  3.4480
  196MOL     H943299   1.041   0.795   2.527 -0.1390 -0.7064 -0.2918
  196MOL    H1043300   0.837   0.449   2.382 -1.1439 -0.5843 -1.2938
  196MOL    H1143301   0.844   0.542   2.150  0.1082 -2.8253  1.9161
  196MOL    H1243302   0.952   0.579   2.565  0.0429  0.9965 -0.4065
  196MOL    C1343303   1.254   0.647   1.913 -0.5166  0.1850  0.2914
  196MOL    C1443304   1.165   0.670   2.014  0.9195 -0.4779 -0.4800
  196MOL    C1543305   1.048   0.743   1.977 -0.6530 -0.0717  0.8873
  196MOL    C1643306   1.017   0.780   1.847  0.4553 -0.2202 -0.4322
  196MOL    C1743307   1.110   0.754   1.749  0.6574 -0.2356  0.3246
  196MOL    C1843308   1.229   0.688   1.782 -0.0964 -0.9062 -0.3232
  196MOL    O1943309   1.323   0.659   1.686 -0.2170  0.0508 -0.5870
  196MOL    H2043310   1.346   0.595   1.938 -2.7170 -4.2584 -0.3008
  196MOL    H2143311   1.190   0.636   2.114 -0.3667  0.2067  0.0846
  196MOL    H2243312   0.924   0.831   1.827  0.8696  0.5873 -0.3658
  196MOL    H2343313   1.092   0.776   1.645  0.1884 -1.5648  0.1138
  196MOL    C2443314   1.409   0.800   1.361  0.2809  0.2836  0.1202
  196MOL    C2543315   1.360   0.714   1.459 -0.1832 -0.9442 -0.2446
  196MOL    C2643316   1.350   0.754   1.592 -0.1345 -0.2062  0.1709
  196MOL    C2743317   1.367   0.891   1.627  0.3314  0.2407 -0.6723
  196MOL    C2843318   1.385   0.980   1.520 -0.6917  0.0832  0.6823
  196MOL    C2943319   1.414   0.936   1.388 -0.1159  0.4256 -0.2589
  196MOL    O3043320   1.439   1.029   1.285  0.4608 -0.0833 -0.3950
  196MOL    H3143321   1.433   0.760   1.263  0.0590 -0.6829  0.4654
  196MOL    H3243322   1.357   0.607   1.445 -1.8377 -1.1720  1.6527
  196MOL    H3343323   1.371   0.925   1.729  2.9686 -2.4881  0.2084
  196MOL    H3443324   1.394   1.086   1.535  2.0963  0.0686 -0.6694
  196MOL    C3543325   1.803   1.072   1.311  0.4628  0.2674 -0.0519
  196MOL    C3643326   1.674   1.029   1.335 -0.5892  0.0564  0.3971
  196MOL    C3743327   1.567   1.080   1.268  0.8077 -0.2045  0.0376
  196MOL    C3843328   1.582   1.181   1.166  0.1242  0.5515  0.2578
  196MOL    C3943329   1.714   1.231   1.146  0.2446  0.0245 -0.0708
  196MOL    C4043330   1.819   1.177   1.218  0.0248 -0.7309  0.7225
  196MOL    O4143331   1.945   1.231   1.192  0.6813  0.1442 -0.1299
  196MOL    H4243332   1.884   1.021   1.360  0.4062 -1.4339 -1.6497
  196MOL    H4343333   1.659   0.957   1.414 -1.1066  1.6448  1.7711
  196MOL    H4443334   1.489   1.217   1.126  0.2435 -0.1108 -0.6182
  196MOL    H4543335   1.725   1.315   1.079 -0.5564  0.8930  0.8796
  196MOL    C4643336   2.064   1.058   0.875 -0.8042  0.4375 -0.0560
  196MOL    C4743337   2.031   1.078   1.012 -0.5760  0.0560 -0.6199
  196MOL    C4843338   1.987   1.202   1.063  0.2023  0.1760 -0.3213
  196MOL    C4943339   1.984   1.306   0.970  0.2743 -0.8198 -0.0588
  196MOL    C5043340   2.026   1.292   0.835 -0.3159  0.4985  0.3404
  196MOL    C5143341   2.056   1.169   0.782 -0.5611  0.1088 -1.0081
  196MOL    O5243342   2.100   1.157   0.650 -0.0858 -0.0714 -0.2542
  196MOL    H5343343   2.101   0.963   0.840  1.3540  0.4707  2.0608
  196MOL    H5443344   2.032   0.992   1.078 -1.5518  0.3563 -0.2078
  196MOL    H5543345   1.965   1.404   1.010  1.6274 -0.9370  0.8973
  196MOL    H5643346   2.008   1.381   0.777 -0.9789  0.4154  0.4181
  196MOL    C5743347   2.116   0.830   0.488 -0.0519 -0.7139 -0.6399
  196MOL    C5843348   2.161   0.953   0.543 -0.0637 -0.4187 -0.1987
  196MOL    C5943349   2.062   1.041   0.582  0.7153 -0.0073 -0.4527
  196MOL    C6043350   1.920   1.011   0.562  0.3589 -0.5762  0.4384
  196MOL    C6143351   1.883   0.888   0.508 -0.2836  0.1084  0.1324
  196MOL    C6243352   1.978   0.803   0.465 -0.0894 -0.0544 -0.3734
  196MOL    O6343353   1.957   0.671   0.423 -0.2143 -0.1093 -0.3282
  196MOL    H6443354   2.187   0.753   0.459 -1.2494 -0.8791 -3.2624
  196MOL    H6543355   2.266   0.960   0.568 -0.4526 -0.7941  1.6009
  196MOL    H6643356   1.843   1.081   0.590  0.6644  0.2747 -0.7976
  196MOL    H6743357   1.783   0.849   0.498 -1.0723  1.9420  0.7108
  196MOL    C6843358   1.764   0.386   0.556 -0.3138  0.1933 -0.1554
  196MOL    C6943359   1.836   0.467   0.472 -0.0950  0.2153 -0.6803
  196MOL    C7043360   1.905   0.587   0.518  0.4824  0.5008  0.0570
  196MOL    C7143361   1.897   0.623   0.653  0.3107  0.2529  0.2953
  196MOL    C7243362   1.827   0.540   0.741 -0.5241 -1.3143  0.3838
  196MOL    C7343363   1.756   0.420   0.696 -0.5864 -0.6901 -0.6364
  196MOL    O7443364   1.691   0.335   0.784  0.1237 -0.0486 -0.3002
  196MOL    H7543365   1.711   0.297   0.525  2.3707 -1.0539 -1.3591
  196MOL    H7643366   1.855   0.438   0.369 -1.1638 -0.8581 -0.5689
  196MOL    H7743367   1.939   0.712   0.697  0.0226 -0.0680  1.2351
  196MOL    H7843368   1.827   0.559   0.848 -2.4479  0.9043  0.0232
  196MOL    C7943369   1.715   8.229   0.846 -0.0218 -0.2472 -0.4809
  196MOL    C8043370   1.666   0.104   0.805 -0.1384 -0.1589 -0.4515
  196MOL    C8143371   1.745   0.214   0.807  0.5023 -0.5497 -0.5804
  196MOL    C8243372   1.884   0.207   0.851  0.5450  0.3371  0.2260
  196MOL    C8343373   1.936   0.079   0.876 -0.6259 -0.1422  0.4673
  196MOL    C8443374   1.853   8.217   0.885 -0.7937 -0.3321 -0.0824
  196MOL    O8543375   1.896   8.091   0.922 -0.0401 -0.1904 -0.1964
  196MOL    H8643376   1.652   8.142   0.841  1.2037 -1.1047 -0.9811
  196MOL    H8743377   1.562   0.121   0.782 -0.0029  2.1608  0.5894
  196MOL    H8843378   1.941   0.298   0.863 -1.3597  1.6171 -0.2276
  196MOL    H8943379   2.038   0.073   0.914 -0.9702 -0.8733  1.3095
  196MOL    C9043380   2.186   7.972   1.106  0.1063  0.4343 -0.1125
  196MOL    C9143381   2.092   7.990   1.007 -0.2014  0.2791 -0.1963
  196MOL    C9243382   1.989   8.077   1.027 -0.2079  0.0303  1.0821
  196MOL    C9343383   1.982   8.151   1.148 -0.5711 -0.3348  0.6358
  196MOL    C9443384   2.079   8.139   1.245  0.1136  0.0514 -0.6154
  196MOL    C9543385   2.183   8.047   1.230  0.9643  0.4874 -0.4292
  196MOL    O9643386   2.277   8.038   1.326  0.1649 -0.1552 -0.0324
  196MOL    H9743387   2.260   7.893   1.095 -0.8339 -0.4665 -0.0213
  196MOL    H9843388   2.095   7.945   0.909  0.2492  0.7410 -0.3976
  196MOL    H9943389   1.898   8.218   1.160 -0.7051  0.0274 -2.1408
  196MOL   H10043390   2.078   8.199   1.335  2.1187  1.0157 -1.2063
  196MOL   C10143391   2.577   7.834   1.378 -0.1801  0.4002  0.3210
  196MOL   C10243392   2.491   7.943   1.362 -0.3084 -0.2566  0.2600
  196MOL   C10343393   2.351   7.923   1.342 -0.1800 -1.1333 -0.4737
  196MOL   C10443394   2.294   7.795   1.354  0.0418 -0.4611  0.1451
  196MOL   C10543395   2.374   7.688   1.383  0.1523 -0.3902 -0.4287
  196MOL   C10643396   2.519   7.703   1.394 -0.2347  0.0497 -0.1620
  196MOL   O10743397   2.603   7.597   1.398  0.0697 -0.1748  0.6218
  196MOL   H10843398   2.683   7.849   1.394 -0.1098  0.2696 -0.0315
  196MOL   H10943399   2.533   8.042   1.349 -0.2003 -0.4830 -1.2414
  196MOL   H11043400   2.187   7.783   1.342 -0.0434 -0.2478  0.6754
  196MOL   H11143401   2.330   7.592   1.363  0.1568 -0.4022 -0.3832
  196MOL   C11243402   2.576   7.340   1.143 -0.2694 -0.1955  0.5835
  196MOL   C11343403   2.612   7.459   1.205 -0.3703 -0.4348 -0.2834
  196MOL   C11443404   2.566   7.481   1.338 -0.5352 -0.3055  0.1056
  196MOL   C11543405   2.500   7.379   1.411  0.5088 -0.0097  0.1069
  196MOL   C11643406   2.465   7.260   1.349 -0.0790  0.2825  0.4775
  196MOL   C11743407   2.497   7.245   1.215  0.1103  0.8015 -0.1232
  196MOL   O11843408   2.449   7.125   1.158 -0.4177 -0.4319  0.4217
  196MOL   H11943409   2.596   7.326   1.037 -2.5235 -4.3311  0.5966
  196MOL   H12043410   2.661   7.532   1.142 -1.9857  0.9605  0.0158
  196MOL   H12143411   2.466   7.389   1.513 -1.0497  2.2045 -0.5983
  196MOL   H12243412   2.406   7.177   1.387 -3.6241  3.0656  1.3456
  196MOL   C12343413   2.552   6.906   0.878  0.1046  0.2556  1.0321
  196MOL   C12443414   2.471   6.984   0.964 -0.4063 -0.3681 -0.2695
  196MOL   C12543415   2.527   7.051   1.073  0.2828  0.9258  0.4309
  196MOL   C12643416   2.662   7.030   1.101  0.0485  0.0369 -0.5219
  196MOL   C12743417   2.746   6.942   1.023 -0.4014  0.0362 -0.5362
  196MOL   C12843418   2.688   6.885   0.905 -0.4998 -0.1779 -0.4329
  196MOL   O12943419   2.763   6.799   0.824 -0.2970  0.3965  0.0438
  196MOL   H13043420   2.498   6.864   0.795  0.8739  2.6521 -0.7556
  196MOL   H13143421   2.369   7.000   0.931 -0.6021 -0.2922  0.3748
  196MOL   H13243422   2.698   7.073   1.194  0.3646 -0.1983 -0.5355
  196MOL   H13343423   2.842   6.907   1.057 -0.4708  0.8557  0.5199
  196MOL   C13443424   2.848   6.525   1.056 -0.1539  0.3505 -0.5813
  196MOL   C13543425   2.775   6.610   0.975  0.3956 -0.0947 -0.5636
  196MOL   C13643426   2.835   6.706   0.889 -0.6474  0.4634  0.0877
  196MOL   C13743427   2.975   6.698   0.872  0.7312  0.3828 -0.6083
  196MOL   C13843428   3.055   6.617   0.959 -0.4227  0.0169  0.0342
  196MOL   C13943429   2.988   6.537   1.055 -0.2600 -0.0647 -0.2045
  196MOL   O14043430   3.071   6.459   1.137  0.6880 -0.0391 -0.3968
  196MOL   H14143431   2.804   6.462   1.131  0.8535  0.3904  0.0614
  196MOL   H14243432   2.667   6.618   0.966  0.5662  0.0533 -2.9244
  196MOL   H14343433   3.021   6.774   0.812 -0.3298  2.7580  1.4961
  196MOL   H14443434   3.162   6.616   0.958 -0.4345 -0.3739 -1.0183
  196MOL   C14543435   3.135   6.653   1.449  0.8783  0.1708  0.2061
  196MOL   C14643436   3.131   6.626   1.310 -0.5361  0.5846  0.5087
  196MOL   C14743437   3.067   6.509   1.264  0.6856  0.3631  0.0896
  196MOL   C14843438   3.010   6.420   1.354  0.9861 -0.1753  0.0091
  196MOL   C14943439   2.999   6.449   1.491 -0.0514 -0.0859  0.3143
  196MOL   C15043440   3.069   6.564   1.540  0.2447 -0.4655 -0.3900
  196MOL   O15143441   3.059   6.579   1.674  0.0719 -0.0614  0.0467
  196MOL   H15243442   3.184   6.745   1.475  0.9861  0.9533 -2.5696
  196MOL   H15343443   3.178   6.694   1.241  2.4607 -1.0901  0.8054
  196MOL   H15443444   2.974   6.328   1.312 -2.0461  1.2436 -0.6606
  196MOL   H15543445   2.955   6.385   1.566 -0.4989  2.0750  1.9692
  196MOL   C15643446   2.991   6.915   1.801  0.2180  0.1017  0.0291
  196MOL   C15743447   2.973   6.784   1.758  0.0035  0.1796 -0.3402
  196MOL   C15843448   3.085   6.701   1.724 -0.0678 -0.3948 -0.1702
  196MOL   C15943449   3.216   6.746   1.743 -0.1976 -0.1493 -0.6408
  196MOL   C16043450   3.233   6.881   1.794 -0.4274  0.1810  0.4547
  196MOL   C16143451   3.123   6.964   1.821  0.7344  0.0261  0.2046
  196MOL   O16243452   3.130   7.088   1.872  0.3225  0.4200  0.1818
  196MOL   H16343453   2.901   6.966   1.834 -1.0397 -1.9158 -0.1907
  196MOL   H16443454   2.877   6.738   1.737 -0.3503  1.4667 -1.6055
  196MOL   H16543455   3.302   6.682   1.731  0.6518  0.9497 -0.5040
  196MOL   H16643456   3.334   6.913   1.816  0.8952 -3.4734  0.0846
  196MOL   C16743457   3.168   7.351   1.599 -0.0560 -0.0477  0.1324
  196MOL   C16843458   3.182   7.226   1.672 -0.1189 -0.2057  0.4500
  196MOL   C16943459   3.111   7.199   1.793  0.0122 -0.1998 -0.1653
  196MOL   C17043460   3.020   7.301   1.829 -0.1989  0.1988 -0.7857
  196MOL   C17143461   3.000   7.421   1.756  0.2571 -0.3087 -0.4408
  196MOL   C17243462   3.069   7.445   1.637 -0.0671  0.1468 -0.5523
  196MOL   O17343463   3.053   7.560   1.565 -0.0566 -0.6830 -0.2698
  196MOL   H17443464   3.226   7.377   1.511  0.2461  2.2182  0.9758
  196MOL   H17543465   3.246   7.144   1.642 -1.7152 -1.2216 -0.2501
  196MOL   H17643466   2.952   7.284   1.912 -0.1805  2.1923 -0.3459
  196MOL   H17743467   2.927   7.495   1.785 -1.3829 -2.2039  0.4332
  196MOL   C17843468   3.299   7.805   1.682  0.4081 -0.7141  0.0028
  196MOL   C17943469   3.198   7.711   1.684 -0.2167  0.1551 -0.2516
  196MOL   C18043470   3.161   7.649   1.566 -0.1688  0.1030  0.3652
  196MOL   C18143471   3.218   7.699   1.443  0.1179  0.4929  0.0900
  196MOL   C18243472   3.318   7.802   1.443 -0.3669  1.1151  0.0152
  196MOL   C18343473   3.369   7.844   1.567  0.0110 -0.4675  0.6847
  196MOL   O18443474   3.470   7.936   1.565 -0.2810 -0.7376  0.3975
  196MOL   H18543475   3.333   7.837   1.779  0.5817 -1.7153  0.2768
  196MOL   H18643476   3.155   7.671   1.774 -0.1155  1.5720  0.4316
  196MOL   H18743477   3.181   7.654   1.353  0.8737  0.6338 -0.2987
  196MOL   H18843478   3.367   7.827   1.350  0.3557  3.4912  1.0165
  196MOL   C18943479   3.709   7.838   1.836 -0.2320  0.5350 -0.1244
  196MOL   C19043480   3.632   7.828   1.716  0.2195 -1.0781 -0.5653
  196MOL   C19143481   3.570   7.943   1.655 -0.0847 -0.1797  0.5521
  196MOL   C19243482   3.605   8.066   1.708 -0.2181  0.1685 -0.1144
  196MOL   C19343483   3.686   8.082   1.823  0.1821  0.8431 -0.1610
  196MOL   C19443484   3.739   7.964   1.884  0.3534  0.2776 -1.4851
  196MOL   O19543485   3.812   7.965   2.002  0.4368 -0.1444 -0.4235
  196MOL   H19643486   3.754   7.750   1.880 -2.5100  0.0982  1.4096
  196MOL   H19743487   3.617   7.730   1.674 -1.8140 -1.0959  0.1079
  196MOL   H19843488   3.569   8.159   1.669  2.6515  1.3386 -0.1266
  196MOL   H19943489   3.703   8.182   1.860  0.0840  1.1447 -0.9159
  196MOL   C20043490   3.742   8.142   2.319 -0.1032 -0.4874  0.5001
  196MOL   C20143491   3.800   8.107   2.192 -0.5820 -0.1189 -0.1573
  196MOL   C20243492   3.749   8.000   2.115  0.3601  0.4254  0.0858
  196MOL   C20343493   3.640   7.918   2.169 -0.5321 -0.5352 -0.4253
  196MOL   C20443494   3.581   7.954   2.291 -0.0733 -0.2789  0.0364
  196MOL   C20543495   3.637   8.065   2.367  0.0231  0.5600  0.1148
  196MOL   O20643496   3.587   8.095   2.494  0.2125 -0.7264  0.4427
  196MOL   H20743497   3.785   8.227   2.371  0.2156 -0.9034  0.9229
  196MOL   H20843498   3.883   8.167   2.158 -0.2326 -1.2805 -1.4127
  196MOL   H20943499   3.611   7.829   2.115 -1.3790  0.6250 -1.8871
  196MOL   H21043500   3.496   7.903   2.333 -0.1224  1.3802  2.0724
  196MOL   C21143501   3.440   0.182   2.489  0.0583 -0.7721 -0.7831
  196MOL   C21243502   3.475   0.057   2.450  0.0691  0.1138 -0.2259
  196MOL   C21343503   3.561   8.226   2.525 -0.1973 -0.2840  0.6175
  196MOL   C21443504   3.596   0.017   2.649 -0.2971  0.5716 -1.0137
  196MOL   C21543505   3.561   0.149   2.691 -0.4881 -0.2106  0.5702
  196MOL   C21643506   3.492   0.231   2.611 -0.1475  0.2363 -0.0676
  196MOL   O21743507   3.464   0.354   2.657 -0.5711  0.1395  0.4823
  196MOL   H21843508   3.392   0.245   2.416  0.5109  0.0416 -0.3885
  196MOL   H21943509   3.426   0.021   2.360 -1.0535  0.3821  0.2712
  196MOL   H22043510   3.642   8.213   2.728  1.3510  3.3136  0.1105
  196MOL   H22143511   3.595   0.183   2.787 -1.4060 -3.0590  1.9533
  196MOL   H22243512   3.408   0.401   2.597 -0.9959 -0.8462  0.0907
  197MOL     C143513   3.143   7.484   4.883 -0.6510  0.2780 -0.1485
  197MOL     C243514   3.027   7.521   4.960  0.4211 -0.2774  0.2634
  197MOL     C343515   2.929   7.607   4.909  0.3197 -0.4632  0.9012
  197MOL     C443516   2.943   7.669   4.782 -0.2500 -0.0342  1.0190
  197MOL     C543517   3.063   7.634   4.715 -0.5448 -0.1007 -0.0523
  197MOL     C643518   3.160   7.540   4.758  0.9597 -0.1377  0.4503
  197MOL     O743519   3.264   7.492   4.681 -0.8536  0.0287  0.5600
  197MOL     H843520   3.215   7.415   4.925 -2.6335 -0.3967  2.2893
  197MOL     H943521   3.023   7.484   5.062 -0.6005  0.5840  0.5568
  197MOL    H1043522   2.880   7.747   4.743 -0.2829 -0.6499 -0.1714
  197MOL    H1143523   3.089   7.679   4.621  2.9083  0.2435  0.9875
  197MOL    H1243524   2.847   7.635   4.973 -0.8029  0.9141 -1.0723
  197MOL    C1343525   3.428   7.624   4.383  0.1931  0.5064 -0.4517
  197MOL    C1443526   3.336   7.565   4.466  0.3729  0.1633 -0.8539
  197MOL    C1543527   3.340   7.575   4.604 -0.1444  0.3556 -0.2190
  197MOL    C1643528   3.440   7.653   4.663 -0.4867  0.5552  0.0881
  197MOL    C1743529   3.528   7.727   4.584  0.0989  0.1759  0.8453
  197MOL    C1843530   3.522   7.721   4.440  0.1303  0.5649 -0.1334
  197MOL    O1943531   3.610   7.789   4.360  0.0482  0.3888  0.5799
  197MOL    H2043532   3.424   7.602   4.277  0.8443  0.1776 -0.4121
  197MOL    H2143533   3.259   7.506   4.419 -0.7340  0.6968  0.2561
  197MOL    H2243534   3.446   7.649   4.771  1.4112  2.3223  0.0778
  197MOL    H2343535   3.594   7.793   4.638  0.3196  0.2011  0.5483
  197MOL    C2443536   3.955   7.830   4.461 -0.2688 -0.0297 -0.0766
  197MOL    C2543537   3.837   7.774   4.403 -0.7294 -0.8119  0.3510
  197MOL    C2643538   3.716   7.847   4.415 -0.3095  0.3892 -0.6780
  197MOL    C2743539   3.716   7.969   4.486 -0.9930  0.0801 -0.8958
  197MOL    C2843540   3.835   8.039   4.525  0.0892  0.9017  0.4089
  197MOL    C2943541   3.958   7.966   4.518  0.2771 -0.1246  0.0794
  197MOL    O3043542   4.074   8.021   4.559  0.1350  0.1815  0.1791
  197MOL    H3143543   4.039   7.762   4.466 -0.5173 -0.2935  0.7016
  197MOL    H3243544   3.842   7.690   4.334  0.2207  1.4687 -2.4479
  197MOL    H3343545   3.623   8.018   4.512 -0.9245 -1.0535  1.6730
  197MOL    H3443546   3.822   8.132   4.578 -3.4073 -0.4652  2.0883
  197MOL    C3543547   4.225   0.101   4.591  0.5170 -0.0093  0.4749
  197MOL    C3643548   4.184   8.223   4.618 -0.4395  0.3208 -0.1300
  197MOL    C3743549   4.108   8.147   4.524  0.1940 -0.2545 -0.3623
  197MOL    C3843550   4.092   8.204   4.393 -0.3260 -0.2507  0.2105
  197MOL    C3943551   4.121   0.085   4.367 -0.1731 -0.4211  0.0692
  197MOL    C4043552   4.175   0.166   4.474  0.2409  0.2019  0.0298
  197MOL    O4143553   4.187   0.300   4.461  0.0784 -0.3018  0.4032
  197MOL    H4243554   4.269   0.171   4.661 -0.7148  1.1470  0.1175
  197MOL    H4343555   4.199   8.179   4.716  0.9516  2.3641  0.6259
  197MOL    H4443556   4.051   8.142   4.314  1.3264 -0.7476 -0.2896
  197MOL    H4543557   4.099   0.126   4.270 -0.8167 -1.3990 -0.2050
  197MOL    C4643558   4.348   0.423   4.158 -0.1473 -0.2740  0.3504
  197MOL    C4743559   4.245   0.378   4.246 -0.0559 -0.4385  1.2027
  197MOL    C4843560   4.281   0.337   4.368 -0.3231 -0.3032  0.1653
  197MOL    C4943561   4.414   0.328   4.411 -0.2180  0.6669 -0.2539
  197MOL    C5043562   4.519   0.352   4.317 -0.7278 -0.7766  0.4177
  197MOL    C5143563   4.482   0.412   4.192 -0.0508  0.1481 -0.2272
  197MOL    O5243564   4.584   0.441   4.109  0.4472 -0.2427  0.3489
  197MOL    H5343565   4.316   0.456   4.060 -2.7126  2.4511  2.0292
  197MOL    H5443566   4.141   0.385   4.217  0.0286  0.7850  1.1767
  197MOL    H5543567   4.437   0.280   4.505 -0.9585  0.9177  0.0638
  197MOL    H5643568   4.622   0.331   4.340 -0.1168  1.6561  0.0580
  197MOL    C5743569   4.819   0.720   4.108  0.1282  0.3458  0.1255
  197MOL    C5843570   4.758   0.593   4.144  0.2630 -0.0413  0.8598
  197MOL    C5943571   4.635   0.567   4.096 -0.7347 -0.1154 -0.4467
  197MOL    C6043572   4.563   0.658   4.004  0.0226 -0.1850 -0.9254
  197MOL    C6143573   4.621   0.781   3.985 -0.5221 -0.1542  0.5614
  197MOL    C6243574   4.755   0.813   4.027  0.0599 -0.8381  0.0921
  197MOL    O6343575   4.809   0.933   4.002 -0.2917 -0.2934 -0.1012
  197MOL    H6443576   4.919   0.734   4.148  0.8745 -2.4246 -0.6094
  197MOL    H6543577   4.807   0.531   4.218  1.4468  0.7938  0.7885
  197MOL    H6643578   4.461   0.648   3.973  0.0020  1.5689 -1.4604
  197MOL    H6743579   4.561   0.859   3.939 -2.2999 -1.5418  0.4884
  197MOL    C6843580   4.941   1.098   3.699  0.1499  0.3409 -0.3572
  197MOL    C6943581   4.876   1.079   3.818  0.9211  0.2905  0.0713
  197MOL    C7043582   4.878   0.958   3.886 -0.2376 -0.3862  0.3016
  197MOL    C7143583   4.954   0.855   3.833  0.0610  0.1704 -0.2060
  197MOL    C7243584   5.017   0.867   3.709 -0.7475 -0.0975 -0.2992
  197MOL    C7343585   5.009   0.990   3.642 -0.2051  0.5172  0.4017
  197MOL    O7443586   5.075   1.000   3.524 -0.1284  0.0040 -0.0487
  197MOL    H7543587   4.947   1.188   3.639 -1.3936  0.8764  0.2607
  197MOL    H7643588   4.843   1.171   3.866  0.1410  0.6041 -1.0550
  197MOL    H7743589   4.949   0.758   3.881  0.8628  0.7557  1.0726
  197MOL    H7843590   5.076   0.791   3.658 -1.6222 -1.2987  0.4542
  197MOL    C7943591   5.415   1.130   3.600 -0.1166  0.3789  0.4482
  197MOL    C8043592   5.275   1.126   3.580 -0.3776  0.6060 -0.2679
  197MOL    C8143593   5.214   1.009   3.542 -0.2943  0.1660  1.4895
  197MOL    C8243594   5.293   0.902   3.500 -0.0366 -0.7745 -0.7494
  197MOL    C8343595   5.438   0.903   3.512  0.1267  0.4861 -0.1390
  197MOL    C8443596   5.499   1.019   3.560  0.6574  0.1511  0.9248
  197MOL    O8543597   5.635   1.022   3.579  0.3489  0.6606  0.1100
  197MOL    H8643598   5.461   1.219   3.640  2.5062 -0.7391 -0.0154
  197MOL    H8743599   5.210   1.210   3.603 -1.3317 -0.3155  0.4395
  197MOL    H8843600   5.249   0.815   3.453 -0.5144 -0.4201 -0.9553
  197MOL    H8943601   5.495   0.817   3.480  0.6176  1.6238 -2.4459
  197MOL    C9043602   5.765   1.121   3.249 -1.0697 -0.2738  0.3037
  197MOL    C9143603   5.677   1.076   3.348  0.1727 -0.1623  0.0280
  197MOL    C9243604   5.718   1.073   3.482  0.8090  0.2241 -0.1186
  197MOL    C9343605   5.846   1.134   3.512  0.5599  0.2037  0.2867
  197MOL    C9443606   5.928   1.192   3.417 -0.4622 -0.4822  0.8240
  197MOL    C9543607   5.889   1.187   3.281  0.4133  0.7586 -0.2941
  197MOL    O9643608   5.965   1.241   3.183 -0.0390  0.3796 -0.8054
  197MOL    H9743609   5.728   1.111   3.148  1.5227 -0.5953 -0.6607
  197MOL    H9843610   5.584   1.032   3.315  0.3367  0.8080 -1.7232
  197MOL    H9943611   5.876   1.124   3.615 -1.3411 -1.3494  0.7205
  197MOL   H10043612   6.024   1.235   3.441  1.0167 -1.4044 -3.1932
  197MOL   C10143613   6.079   1.023   2.902  0.1433 -0.3276  0.1451
  197MOL   C10243614   5.998   1.114   2.976  0.3953 -0.6898  0.5371
  197MOL   C10343615   6.039   1.156   3.104 -1.0604 -0.5025  0.5568
  197MOL   C10443616   6.175   1.135   3.136 -0.5062  0.1423 -0.8457
  197MOL   C10543617   6.253   1.046   3.065  0.2559  0.2634 -0.0398
  197MOL   C10643618   6.208   0.992   2.944  0.0673  0.1252 -0.6096
  197MOL   O10743619   6.286   0.904   2.876 -0.3434  0.4719 -0.3919
  197MOL   H10843620   6.033   0.982   2.813 -0.5798  0.2608  0.2393
  197MOL   H10943621   5.895   1.122   2.946  0.6222 -1.8850 -0.5941
  197MOL   H11043622   6.211   1.175   3.230  0.7638 -0.6717 -0.9711
  197MOL   H11143623   6.347   1.017   3.110 -0.3473  0.3869  1.3341
  197MOL   C11243624   6.576   1.071   2.707  0.0666 -0.3967  0.8634
  197MOL   C11343625   6.497   1.013   2.810  0.2252  0.7874  0.5358
  197MOL   C11443626   6.368   0.959   2.779 -0.2724 -0.6670 -0.9970
  197MOL   C11543627   6.318   0.985   2.648  0.3674 -0.2415 -0.1455
  197MOL   C11643628   6.394   1.046   2.547  0.2682  0.3551 -0.6852
  197MOL   C11743629   6.521   1.088   2.578 -0.3078  0.0960  0.4550
  197MOL   O11843630   6.588   1.150   2.477 -0.0496  0.2731 -0.2754
  197MOL   H11943631   6.671   1.105   2.744 -1.0601  1.3069  2.3203
  197MOL   H12043632   6.533   0.996   2.911 -0.2690  0.1449  0.6057
  197MOL   H12143633   6.215   0.964   2.622  0.0997 -1.2036  1.6719
  197MOL   H12243634   6.347   1.069   2.452 -1.1892  0.9829  0.1772
  197MOL   C12343635   6.696   1.483   2.393 -0.0661  0.0759  0.5452
  197MOL   C12443636   6.688   1.348   2.404 -0.8483  0.0488  0.4640
  197MOL   C12543637   6.593   1.287   2.483 -0.1721 -0.0168 -0.2529
  197MOL   C12643638   6.512   1.372   2.564  0.2595  0.3739 -0.0747
  197MOL   C12743639   6.528   1.509   2.562  0.3155 -0.7200 -0.4927
  197MOL   C12843640   6.611   1.567   2.465 -0.6366  0.1227  0.5215
  197MOL   O12943641   6.620   1.707   2.446 -0.1017 -0.5952  0.1407
  197MOL   H13043642   6.761   1.521   2.315  1.3183 -1.3615  0.9707
  197MOL   H13143643   6.762   1.290   2.351  0.1002  0.4592  1.3170
  197MOL   H13243644   6.443   1.328   2.634 -0.2273  2.2997  0.6997
  197MOL   H13343645   6.462   1.568   2.624  2.4925  0.4272  0.7978
  197MOL   C13443646   6.583   1.956   2.712 -0.3888 -0.4860  0.3181
  197MOL   C13543647   6.555   1.881   2.600 -0.2988  0.0432  0.6482
  197MOL   C13643648   6.649   1.782   2.557 -0.4617  0.4096 -0.1231
  197MOL   C13743649   6.770   1.768   2.625  0.0853 -0.0948 -0.0078
  197MOL   C13843650   6.795   1.840   2.747 -0.8247  0.0607 -0.2662
  197MOL   C13943651   6.701   1.939   2.785 -0.1999  0.4884  0.2292
  197MOL   O14043652   6.728   2.021   2.891  0.4431  0.0145  0.3454
  197MOL   H14143653   6.514   2.033   2.744  0.3666 -0.3093  1.6164
  197MOL   H14243654   6.462   1.893   2.545 -0.4174 -0.9334  0.6166
  197MOL   H14343655   6.846   1.709   2.576  0.5521  0.2907  0.2537
  197MOL   H14443656   6.892   1.834   2.795 -0.4475  0.4040 -0.9751
  197MOL   C14543657   6.626   1.872   3.206  0.0731 -0.7752 -0.5808
  197MOL   C14643658   6.690   1.896   3.084 -0.8266 -0.3080 -0.2893
  197MOL   C14743659   6.656   2.002   3.008 -0.5264 -0.4142 -0.0156
  197MOL   C14843660   6.562   2.090   3.055 -0.3150  0.3920 -0.4723
  197MOL   C14943661   6.497   2.077   3.180  0.2471  0.5274 -0.5164
  197MOL   C15043662   6.527   1.959   3.255 -0.0202  0.2659 -0.1943
  197MOL   O15143663   6.458   1.930   3.375  0.7151  0.2559 -0.1636
  197MOL   H15243664   6.654   1.784   3.262 -4.4321 -2.2278 -0.4223
  197MOL   H15343665   6.778   1.837   3.059  1.1372  0.9897  3.2084
  197MOL   H15443666   6.552   2.183   3.002  0.9456  1.0210  0.3792
  197MOL   H15543667   6.431   2.148   3.228 -0.0128 -1.1006  1.6312
  197MOL   C15643668   6.106   1.886   3.475 -0.0020 -0.3841 -0.3726
  197MOL   C15743669   6.242   1.927   3.474  0.0399  0.1415 -0.0012
  197MOL   C15843670   6.329   1.889   3.372  0.1891  0.1607  0.2231
  197MOL   C15943671   6.287   1.793   3.283  0.3322  0.2513 -0.0066
  197MOL   C16043672   6.146   1.749   3.277 -0.4930  0.0388  0.1116
  197MOL   C16143673   6.058   1.801   3.372  0.1955 -0.3457 -0.3014
  197MOL   O16243674   5.920   1.769   3.374  0.2530  0.6937 -0.8318
  197MOL   H16343675   6.033   1.931   3.542  0.7412 -1.5565  1.2665
  197MOL   H16443676   6.280   1.983   3.558  1.1396 -0.7581  0.1043
  197MOL   H16543677   6.356   1.762   3.205  1.5281  0.9863  0.7509
  197MOL   H16643678   6.117   1.672   3.207  1.9147 -0.7651 -0.0698
  197MOL   C16743679   5.671   1.717   3.106 -0.8805 -0.5214  0.2415
  197MOL   C16843680   5.759   1.790   3.193 -0.8499  0.2571  0.3651
  197MOL   C16943681   5.856   1.715   3.267  0.3471 -0.0820 -0.3837
  197MOL   C17043682   5.866   1.572   3.250 -0.0251  0.2606  0.3958
  197MOL   C17143683   5.802   1.513   3.146 -0.0551 -0.8454  0.8299
  197MOL   C17243684   5.698   1.580   3.083 -0.7639 -0.3240 -0.3351
  197MOL   O17343685   5.615   1.512   2.997 -0.3030 -0.0152 -0.1005
  197MOL   H17443686   5.597   1.768   3.046 -0.1298  1.1759  0.7115
  197MOL   H17543687   5.748   1.894   3.220  0.5922 -0.1079  2.5121
  197MOL   H17643688   5.940   1.512   3.301  1.3106  0.8176 -0.8305
  197MOL   H17743689   5.822   1.409   3.123 -2.3228 -1.6987  2.4188
  197MOL   C17843690   5.361   1.326   3.194 -0.2663 -0.0156 -0.9131
  197MOL   C17943691   5.486   1.372   3.137  0.2182 -0.1150  0.9471
  197MOL   C18043692   5.496   1.483   3.053 -0.4071  0.4406 -0.4803
  197MOL   C18143693   5.384   1.562   3.032  0.4906 -0.1383  0.2317
  197MOL   C18243694   5.259   1.529   3.092  0.0497 -0.3667  0.1105
  197MOL   C18343695   5.246   1.412   3.175 -0.8285 -0.3513  0.1010
  197MOL   O18443696   5.130   1.380   3.232  0.1815  0.1354 -0.1877
  197MOL   H18543697   5.361   1.242   3.262  1.1799  0.6401 -0.0694
  197MOL   H18643698   5.578   1.316   3.148  0.3376  0.1675  1.4414
  197MOL   H18743699   5.381   1.642   2.960  1.7267 -2.2036 -2.1861
  197MOL   H18843700   5.175   1.595   3.077  0.6940  0.5294  0.3983
  197MOL   C18943701   4.952   1.146   3.012  0.1237  0.4077 -0.2489
  197MOL   C19043702   5.025   1.257   3.058  0.1004 -0.2694  0.2170
  197MOL   C19143703   5.059   1.269   3.190  0.8702 -0.0383  0.8652
  197MOL   C19243704   5.028   1.175   3.284 -0.3794  0.4521 -0.2836
  197MOL   C19343705   4.937   1.073   3.247  0.1997 -0.0546  0.5133
  197MOL   C19443706   4.897   1.061   3.111 -0.4395 -0.1434  0.5271
  197MOL   O19543707   4.820   0.953   3.071 -0.2034  0.7064 -0.3501
  197MOL   H19643708   4.920   1.140   2.909  1.6842 -1.4637 -0.6649
  197MOL   H19743709   5.065   1.334   2.993 -1.0568 -0.1927 -0.4134
  197MOL   H19843710   5.052   1.192   3.388 -1.4445 -1.2014  0.2443
  197MOL   H19943711   4.889   1.018   3.327 -3.2837  1.6879 -0.2829
  197MOL   C20043712   4.608   0.746   3.280  0.3036 -0.6776 -0.2693
  197MOL   C20143713   4.702   0.784   3.188 -0.2622 -0.2635  0.5367
  197MOL   C20243714   4.716   0.912   3.145  0.4178 -0.4000 -0.5013
  197MOL   C20343715   4.615   1.000   3.188 -0.4729 -0.9184 -0.2847
  197MOL   C20443716   4.505   0.965   3.279 -0.8739  0.4064 -0.2545
  197MOL   C20543717   4.510   0.832   3.331  0.8983 -0.0489  0.0712
  197MOL   O20643718   4.409   0.786   3.414  0.6258 -0.2937 -0.0945
  197MOL   H20743719   4.592   0.641   3.298 -1.3495 -0.5676 -0.9989
  197MOL   H20843720   4.764   0.710   3.139 -1.9203 -2.7768  2.2114
  197MOL   H20943721   4.612   1.095   3.138 -1.7545 -1.2228 -0.7923
  197MOL   H21043722   4.430   1.032   3.316 -0.5645 -0.4046  1.9395
  197MOL   C21143723   4.184   0.527   3.287  0.0574 -0.4537  0.0853
  197MOL   C21243724   4.299   0.591   3.347 -0.2742 -0.1980 -0.6854
  197MOL   C21343725   4.299   0.727   3.363 -0.3589 -0.1260  0.5207
  197MOL   C21443726   4.199   0.807   3.303 -0.2996  0.1349 -0.3025
  197MOL   C21543727   4.086   0.753   3.241  0.5450 -0.0835  0.4966
  197MOL   C21643728   4.081   0.611   3.235 -0.3979 -0.0703 -0.8892
  197MOL   O21743729   3.972   0.555   3.179 -0.0534 -0.0621  0.2751
  197MOL   H21843730   4.174   0.420   3.279 -0.6200 -0.7249  3.7394
  197MOL   H21943731   4.375   0.529   3.392 -1.4183  0.7804  2.7225
  197MOL   H22043732   4.205   0.913   3.321  2.8572  0.3268 -2.0495
  197MOL   H22143733   4.006   0.819   3.214  0.7973  0.1100  0.2124
  197MOL   H22243734   3.917   0.613   3.130 -1.1204 -0.2002  1.2778
  198MOL     C143735   0.835   6.597   4.957 -0.1440 -0.0672 -0.9570
  198MOL     C243736   0.701   6.592   5.000  0.1207 -0.1855  0.8027
  198MOL     C343737   0.622   6.704   5.000  0.4754  0.0383  0.2603
  198MOL     C443738   0.676   6.822   4.949 -0.2764 -0.3273  0.2496
  198MOL     C543739   0.807   6.825   4.897 -0.3229  0.9023  0.0225
  198MOL     C643740   0.891   6.710   4.900  0.1744  0.2162 -0.2353
  198MOL     O743741   1.020   6.712   4.860 -0.3416 -0.5413  0.0931
  198MOL     H843742   0.894   6.507   4.952 -1.0938 -0.7246 -0.3226
  198MOL     H943743   0.658   6.499   5.035 -1.0992  0.8239  2.0200
  198MOL    H1043744   0.625   6.916   4.933 -1.4382 -0.5662  2.3701
  198MOL    H1143745   0.838   6.907   4.834  2.9570 -0.1697  0.1554
  198MOL    H1243746   0.524   6.699   5.045 -0.7312  1.2567 -2.1565
  198MOL    C1343747   1.247   6.857   5.106  0.0599 -0.0629  0.4873
  198MOL    C1443748   1.141   6.847   5.015  1.0426 -0.0863  0.0004
  198MOL    C1543749   1.117   6.723   4.958  0.8047 -0.5452  0.5709
  198MOL    C1643750   1.194   6.612   4.997 -0.1698 -0.0421 -0.1588
  198MOL    C1743751   1.296   6.630   5.095 -0.1771  1.0306 -0.3321
  198MOL    C1843752   1.328   6.750   5.146  0.3661 -0.0586 -0.6887
  198MOL    O1943753   1.431   6.767   5.244 -0.0937  0.0379  0.1494
  198MOL    H2043754   1.273   6.951   5.153  1.4817 -0.2294  0.0565
  198MOL    H2143755   1.098   6.941   4.983 -1.0506 -1.2955 -0.8016
  198MOL    H2243756   1.172   6.511   4.965 -1.6549 -0.1384  1.1024
  198MOL    H2343757   1.356   6.547   5.131  1.1990  3.5393  3.4020
  198MOL    C2443758   1.776   6.791   5.123  0.4410 -0.3125  0.0343
  198MOL    C2543759   1.640   6.817   5.148 -0.2624  0.3986 -0.0154
  198MOL    C2643760   1.561   6.734   5.226  0.4055 -0.1098 -0.0384
  198MOL    C2743761   1.609   6.616   5.274  0.3096 -0.1214  0.2797
  198MOL    C2843762   1.742   6.591   5.268 -0.6944 -0.6840 -0.2988
  198MOL    C2943763   1.830   6.675   5.185 -0.8145 -0.1289 -0.1507
  198MOL    O3043764   1.969   6.661   5.183 -0.5351  0.0417 -0.1153
  198MOL    H3143765   1.835   6.865   5.070 -0.7848  1.7522  1.5185
  198MOL    H3243766   1.604   6.909   5.105  0.2512  1.2506  1.3242
  198MOL    H3343767   1.548   6.554   5.338  2.4830 -0.7244  1.8515
  198MOL    H3443768   1.771   6.500   5.319 -2.8888 -0.8652  0.6658
  198MOL    C3543769   2.199   6.455   5.385 -0.2564  0.3518  0.4186
  198MOL    C3643770   2.126   6.565   5.339 -0.1528 -0.0201 -0.1469
  198MOL    C3743771   2.032   6.550   5.233  0.2017  0.0668  0.2488
  198MOL    C3843772   2.010   6.422   5.184  0.6562  0.3321 -0.5817
  198MOL    C3943773   2.075   6.307   5.238 -0.3839 -0.4279 -0.4270
  198MOL    C4043774   2.172   6.324   5.340 -0.5618 -0.5584  0.0680
  198MOL    O4143775   2.242   6.218   5.402 -0.5630 -0.8604  0.0815
  198MOL    H4243776   2.272   6.478   5.460 -0.3811  1.0524  0.3281
  198MOL    H4343777   2.155   6.661   5.378  0.1655 -0.5195  0.8497
  198MOL    H4443778   1.923   6.413   5.120 -0.6637 -0.2935  1.2685
  198MOL    H4543779   2.056   6.207   5.202 -0.7793  0.3472 -2.4601
  198MOL    C4643780   2.051   5.953   5.566  0.1872  1.0423  0.2276
  198MOL    C4743781   2.127   6.068   5.549  0.3852 -0.4403 -0.1477
  198MOL    C4843782   2.177   6.101   5.416  0.9317 -0.6259 -0.2416
  198MOL    C4943783   2.153   6.011   5.308 -0.1089  0.6551 -0.3806
  198MOL    C5043784   2.066   5.899   5.332  0.3451 -0.5104 -0.2923
  198MOL    C5143785   2.021   5.864   5.458 -0.1689  0.1109 -0.3028
  198MOL    O5243786   1.949   5.747   5.472  0.0303 -0.0928  0.4345
  198MOL    H5343787   2.009   5.932   5.663  1.2728  2.9075  1.1382
  198MOL    H5443788   2.165   6.124   5.633  0.4144  0.3751 -0.6909
  198MOL    H5543789   2.206   6.035   5.217 -1.9689  2.3457 -1.0776
  198MOL    H5643790   2.043   5.834   5.249 -0.6619  1.3061 -1.4734
  198MOL    C5743791   1.742   5.757   5.781 -0.1696  0.3459  0.2290
  198MOL    C5843792   1.795   5.794   5.656  0.5721 -0.1741 -0.8684
  198MOL    C5943793   1.890   5.710   5.598  0.2769  0.2893  0.2936
  198MOL    C6043794   1.927   5.593   5.666 -0.2136 -0.6529 -0.1863
  198MOL    C6143795   1.869   5.554   5.788 -0.5133 -0.6397  0.5412
  198MOL    C6243796   1.772   5.632   5.840  0.9213  0.2408 -1.0992
  198MOL    O6343797   1.700   5.595   5.956  0.1056  0.1687  0.5585
  198MOL    H6443798   1.664   5.812   5.832  0.3513  0.9203  0.4183
  198MOL    H6543799   1.766   5.890   5.615 -0.2970  0.2004  0.5913
  198MOL    H6643800   1.999   5.536   5.610 -0.1876  1.1842 -2.0942
  198MOL    H6743801   1.898   5.461   5.835  2.9439 -0.0983 -0.3636
  198MOL    C6843802   1.331   5.553   5.950  0.5054 -0.0708  0.0655
  198MOL    C6943803   1.458   5.618   5.939  0.0706 -0.1763 -0.9357
  198MOL    C7043804   1.577   5.539   5.935 -0.4507 -0.4441  0.1917
  198MOL    C7143805   1.562   5.390   5.922 -0.0383 -0.3505 -0.2343
  198MOL    C7243806   1.435   5.332   5.939  0.9714  0.0715  0.0748
  198MOL    C7343807   1.320   5.414   5.951 -0.1769  0.3735  0.5243
  198MOL    O7443808   1.200   5.362   5.965  0.2918  0.2400  0.0639
  198MOL    H7543809   1.242   5.611   5.933  0.1670 -0.7594 -0.5753
  198MOL    H7643810   1.460   5.726   5.940  1.6871 -0.1811  2.7048
  198MOL    H7743811   1.645   5.323   5.907 -0.5133 -0.8365 -0.7047
  198MOL    H7843812   1.412   5.227   5.934 -0.7555  0.1621  4.1555
  198MOL    C7943813   1.164   5.330   6.330  1.1073 -0.1168 -0.3549
  198MOL    C8043814   1.224   5.363   6.209 -0.5005 -0.9271  0.0852
  198MOL    C8143815   1.148   5.342   6.088 -0.1991 -0.7118 -0.4112
  198MOL    C8243816   1.030   5.272   6.097  0.2109 -0.2471 -0.1977
  198MOL    C8343817   0.976   5.237   6.223 -0.0987 -0.2060 -0.4530
  198MOL    C8443818   1.035   5.274   6.340 -0.3513 -1.0238 -0.1510
  198MOL    O8543819   0.978   5.233   6.462  0.0086  0.3909 -0.6757
  198MOL    H8643820   1.222   5.330   6.421  1.6346 -1.7867 -0.6706
  198MOL    H8743821   1.327   5.394   6.198  0.2919 -3.0285  1.3342
  198MOL    H8843822   0.974   5.242   6.010 -0.2738 -0.4142  0.1657
  198MOL    H8943823   0.873   5.203   6.224 -0.7026  1.5872 -0.5021
  198MOL    C9043824   1.131   5.382   6.771  0.1150 -0.2445 -0.5835
  198MOL    C9143825   1.078   5.373   6.639  0.1810 -0.9004 -0.1990
  198MOL    C9243826   1.047   5.250   6.576 -0.3111  0.8704  0.2444
  198MOL    C9343827   1.110   5.135   6.636 -0.1383 -0.2849  0.6038
  198MOL    C9443828   1.164   5.139   6.765 -0.9149  0.5151 -0.3386
  198MOL    C9543829   1.160   5.261   6.841 -0.1152  0.1805 -0.1827
  198MOL    O9643830   1.197   5.275   6.972  0.0216  0.4920  0.4497
  198MOL    H9743831   1.157   5.480   6.806 -0.0424 -0.4793  0.1960
  198MOL    H9843832   1.049   5.459   6.581  2.4726 -1.8038 -2.7699
  198MOL    H9943833   1.103   5.042   6.580 -1.3015  0.2695 -0.2163
  198MOL   H10043834   1.200   5.049   6.813 -1.5354  1.0871  1.2306
  198MOL   C10143835   0.876   5.382   7.119 -0.3947  1.0905  0.3114
  198MOL   C10243836   0.964   5.326   7.033  0.0695  0.1815 -0.1785
  198MOL   C10343837   1.104   5.324   7.062 -0.3438 -0.3314 -0.1051
  198MOL   C10443838   1.153   5.372   7.185 -0.4552 -0.0947  1.0038
  198MOL   C10543839   1.060   5.439   7.270  0.6620 -0.5044 -0.1690
  198MOL   C10643840   0.924   5.454   7.232 -0.4047 -0.1940  0.0115
  198MOL   O10743841   0.834   5.522   7.311 -0.3805  0.4491  0.0353
  198MOL   H10843842   0.769   5.371   7.104 -0.1779  0.5587 -0.8641
  198MOL   H10943843   0.928   5.279   6.943  2.3214  1.4685 -1.7890
  198MOL   H11043844   1.258   5.376   7.210 -0.1274 -1.8366 -0.0250
  198MOL   H11143845   1.085   5.473   7.370  2.2270  1.2292 -1.1247
  198MOL   C11243846   0.563   5.717   7.179  0.7885  0.3946 -0.2352
  198MOL   C11343847   0.636   5.609   7.234 -1.5753 -0.1854  0.0755
  198MOL   C11443848   0.772   5.624   7.249  0.0446  0.5352  0.0633
  198MOL   C11543849   0.838   5.742   7.211  0.1973 -0.0005  0.2131
  198MOL   C11643850   0.767   5.845   7.155 -0.1106 -0.1070  0.1499
  198MOL   C11743851   0.628   5.831   7.139 -0.7720 -0.2755  0.2480
  198MOL   O11843852   0.553   5.941   7.101  0.0434 -0.2873  0.1254
  198MOL   H11943853   0.455   5.711   7.168  0.8015 -1.0943  0.3004
  198MOL   H12043854   0.586   5.515   7.247  0.0173 -1.2169 -1.1231
  198MOL   H12143855   0.944   5.749   7.231  0.2436  0.4649 -0.1899
  198MOL   H12243856   0.815   5.941   7.138 -1.9992  1.4881  3.3157
  198MOL   C12343857   0.499   5.882   6.735 -0.1916  0.6205  0.5566
  198MOL   C12443858   0.566   5.876   6.862  0.9217  0.7426  0.5288
  198MOL   C12543859   0.515   5.956   6.970  0.3404  0.0826  0.2666
  198MOL   C12643860   0.403   6.040   6.946  0.7170  0.9722  0.4090
  198MOL   C12743861   0.327   6.025   6.828 -0.1628 -0.7108 -0.1502
  198MOL   C12843862   0.375   5.952   6.718 -0.1065  0.6799  0.1789
  198MOL   O12943863   0.312   5.945   6.599 -0.2488 -0.7772 -0.3923
  198MOL   H13043864   0.543   5.821   6.656 -0.8181  0.4164  0.3587
  198MOL   H13143865   0.649   5.811   6.884  0.0197 -1.4013 -2.2814
  198MOL   H13243866   0.366   6.096   7.030 -2.9074 -0.3875 -0.1861
  198MOL   H13343867   0.242   6.087   6.805  0.5963  0.2415 -0.4368
  198MOL   C13443868   0.109   5.627   6.624 -0.5831 -0.2302 -0.1543
  198MOL   C13543869   0.177   5.746   6.668  0.3780  0.2805  0.3460
  198MOL   C13643870   0.240   5.832   6.569  0.5862 -0.2950 -0.6520
  198MOL   C13743871   0.221   5.803   6.431 -0.6355  0.1565 -0.3724
  198MOL   C13843872   0.142   5.691   6.385  1.1043 -0.3703 -0.4426
  198MOL   C13943873   0.086   5.605   6.489 -0.4816 -0.0973  0.2052
  198MOL   O14043874   0.001   5.501   6.457  0.3014  0.2782  0.1851
  198MOL   H14143875   0.075   5.553   6.694 -0.1720 -2.4102 -2.1892
  198MOL   H14243876   0.183   5.767   6.774 -0.1546  0.6325  0.3071
  198MOL   H14343877   0.267   5.871   6.361 -0.1936  0.5385  0.2828
  198MOL   H14443878   0.114   5.679   6.281 -0.4167  1.4805 -0.2784
  198MOL   C14543879   0.157   5.169   6.507 -0.5636 -0.3724  0.1733
  198MOL   C14643880   0.090   5.291   6.532 -0.2182  0.5958 -0.2869
  198MOL   C14743881   0.055   5.380   6.427  0.0975 -0.3238  0.9797
  198MOL   C14843882   0.090   5.351   6.302  0.7994  0.0980  0.4541
  198MOL   C14943883   0.168   5.232   6.274  0.3348 -0.3397 -0.0750
  198MOL   C15043884   0.199   5.136   6.373 -0.0591 -0.3641  0.3518
  198MOL   O15143885   0.267   5.021   6.334 -0.0051 -0.5279 -1.0290
  198MOL   H15243886   0.172   5.103   6.591  3.0761 -1.3371 -1.1584
  198MOL   H15343887   0.071   5.326   6.632  0.1217 -1.6388  0.5718
  198MOL   H15443888   0.077   5.430   6.229 -0.4793 -0.7657 -0.2773
  198MOL   H15543889   0.203   5.214   6.173 -1.1676 -0.6924 -0.5526
  198MOL   C15643890   0.590   5.159   6.195 -0.0166 -0.0651  1.0476
  198MOL   C15743891   0.480   5.138   6.282  0.0519 -0.0903 -0.2365
  198MOL   C15843892   0.385   5.034   6.262 -0.0163  0.4137  0.4586
  198MOL   C15943893   0.408   4.953   6.149  0.0842  0.7805  0.9649
  198MOL   C16043894   0.506   4.981   6.053 -0.4414 -0.3930 -0.1054
  198MOL   C16143895   0.606   5.072   6.081  0.1317  0.0667 -0.2369
  198MOL   O16243896   0.722   5.093   6.001  0.2798 -0.1667  0.6101
  198MOL   H16343897   0.667   5.231   6.218  0.0115  1.0049 -2.0550
  198MOL   H16443898   0.492   5.197   6.371  0.4975 -0.3746 -0.1059
  198MOL   H16543899   0.348   4.864   6.133 -1.0871  1.6946  0.1528
  198MOL   H16643900   0.525   4.915   5.970  2.0141 -2.9858  2.4426
  198MOL   C16743901   0.847   4.880   5.744 -0.6076  0.1630 -0.0834
  198MOL   C16843902   0.793   4.992   5.807 -0.0435  0.5345  0.2166
  198MOL   C16943903   0.782   4.986   5.944 -1.1267 -0.3384  0.9135
  198MOL   C17043904   0.838   4.877   6.010 -0.0904 -0.3944 -0.8029
  198MOL   C17143905   0.897   4.765   5.950 -0.2046  0.5150 -0.8434
  198MOL   C17243906   0.901   4.764   5.812  0.3124 -1.0617  0.9049
  198MOL   O17343907   0.964   4.663   5.737 -0.3808 -0.1092  0.0246
  198MOL   H17443908   0.865   4.881   5.638  2.5103 -0.7133  0.3856
  198MOL   H17543909   0.764   5.080   5.750 -0.2909  0.8180  0.7838
  198MOL   H17643910   0.845   4.884   6.117 -0.8485 -2.2165 -0.6140
  198MOL   H17743911   0.929   4.686   6.017 -1.6678  0.4125 -0.2309
  198MOL   C17843912   0.741   4.384   5.675 -0.0599  0.1128 -0.2798
  198MOL   C17943913   0.800   4.493   5.740  0.1901  0.2241  0.1641
  198MOL   C18043914   0.893   4.571   5.671  0.0024 -0.0964  0.9142
  198MOL   C18143915   0.917   4.550   5.536 -0.1030 -0.1006  0.8437
  198MOL   C18243916   0.853   4.443   5.475 -0.6005 -0.1158  0.0469
  198MOL   C18343917   0.765   4.357   5.539  0.2533  0.2142 -0.2698
  198MOL   O18443918   0.701   4.246   5.481  0.4544 -0.1001 -0.3661
  198MOL   H18543919   0.668   4.325   5.728 -0.4920 -1.5327 -2.6343
  198MOL   H18643920   0.776   4.511   5.844 -0.4126 -3.3342  0.6854
  198MOL   H18743921   0.985   4.619   5.488 -0.3406  1.6744  2.9747
  198MOL   H18843922   0.865   4.432   5.368  0.5420 -0.3342  0.2006
  198MOL   C18943923   0.409   4.299   5.272 -0.2525 -0.1564  0.2964
  198MOL   C19043924   0.490   4.287   5.385 -0.0043 -0.3151 -0.5780
  198MOL   C19143925   0.625   4.258   5.371 -0.7017  0.1219  0.2461
  198MOL   C19243926   0.688   4.247   5.246 -0.3081  0.2326 -0.0573
  198MOL   C19343927   0.605   4.243   5.133 -0.4187 -0.6057 -0.3431
  198MOL   C19443928   0.466   4.272   5.148  0.1062  0.1458  0.3256
  198MOL   O19543929   0.376   4.278   5.042 -0.6178 -0.3377  0.2282
  198MOL   H19643930   0.305   4.325   5.279  0.3758  2.0019  2.1615
  198MOL   H19743931   0.453   4.305   5.485 -0.1373  2.0385 -1.0225
  198MOL   H19843932   0.792   4.222   5.232  0.0109 -0.4298  3.2334
  198MOL   H19943933   0.656   4.214   5.042  0.2983  0.6655 -0.3556
  198MOL   C20043934   0.511   4.154   4.724 -0.7969 -0.1205  0.0516
  198MOL   C20143935   0.472   4.243   4.817  0.3583  0.2488  0.0557
  198MOL   C20243936   0.390   4.202   4.925 -0.1775  0.3582 -0.0750
  198MOL   C20343937   0.335   4.074   4.925  0.6451 -0.9035  0.1656
  198MOL   C20443938   0.373   3.982   4.830  0.6799  0.3227  0.0569
  198MOL   C20543939   0.465   4.018   4.733  0.2776 -0.3032  0.1087
  198MOL   O20643940   0.507   3.925   4.640  0.7874 -0.2059 -0.0807
  198MOL   H20743941   0.574   4.191   4.645 -1.0259 -0.6595 -0.3932
  198MOL   H20843942   0.516   4.341   4.810 -1.8585  1.2898  0.1014
  198MOL   H20943943   0.271   4.031   5.001  0.2216 -1.3672 -0.4525
  198MOL   H21043944   0.326   3.887   4.812  1.0432 -0.3378  2.4127
  198MOL   C21143945   0.792   3.760   4.797  0.2009  0.2411  0.3060
  198MOL   C21243946   0.664   3.814   4.782 -0.0699  0.7015 -0.0868
  198MOL   C21343947   0.627   3.865   4.660 -0.4095 -0.4625 -0.4803
  198MOL   C21443948   0.714   3.863   4.548 -0.3725  0.6093 -0.4539
  198MOL   C21543949   0.837   3.794   4.564  0.1476  0.0063  0.0906
  198MOL   C21643950   0.875   3.748   4.687 -0.6363 -0.0854  0.0934
  198MOL   O21743951   0.992   3.686   4.698  0.4143 -0.6538 -0.3327
  198MOL   H21843952   0.822   3.721   4.893 -0.1255 -0.8774 -0.0338
  198MOL   H21943953   0.594   3.815   4.865  0.3784 -1.1914  0.3345
  198MOL   H22043954   0.680   3.911   4.457 -0.8440 -0.3066 -0.7644
  198MOL   H22143955   0.909   3.788   4.484  0.9344 -1.1400  0.8934
  198MOL   H22243956   1.019   3.678   4.788  0.2501 -0.8808 -0.3037
  199MOL     C143957   3.855   2.213   2.170 -0.0648 -0.1763  0.0531
  199MOL     C243958   3.839   2.105   2.252  0.2059 -0.2770  0.0009
  199MOL     C343959   3.738   2.013   2.238  0.5081  0.8977  0.4992
  199MOL     C443960   3.640   2.031   2.134  0.3827 -0.1274  0.1078
  199MOL     C543961   3.656   2.142   2.048 -0.2546 -0.1364  0.0831
  199MOL     C643962   3.768   2.231   2.062 -0.2424  0.1165  0.0186
  199MOL     O743963   3.793   2.334   1.968 -0.6223  0.9157 -0.1038
  199MOL     H843964   3.937   2.281   2.191  0.7286 -1.2254  0.4189
  199MOL     H943965   3.912   2.089   2.331  0.1756  0.4942  0.1936
  199MOL    H1043966   3.557   1.962   2.122  0.5596 -0.5902  1.3551
  199MOL    H1143967   3.590   2.151   1.963  1.9791  0.1469 -1.6584
  199MOL    H1243968   3.720   1.929   2.304  2.0450 -0.3806 -0.6523
  199MOL    C1343969   3.836   2.164   1.642  0.0603  0.1440  0.1424
  199MOL    C1443970   3.817   2.179   1.775  0.5955  0.0629 -0.5103
  199MOL    C1543971   3.786   2.305   1.836  0.1622  0.3730 -0.6003
  199MOL    C1643972   3.764   2.416   1.747 -0.4958 -0.2685 -0.1902
  199MOL    C1743973   3.779   2.401   1.604 -1.0006  0.5325  0.6116
  199MOL    C1843974   3.817   2.278   1.554  0.7350  1.0339  0.0959
  199MOL    O1943975   3.839   2.259   1.420  0.7252 -0.3435 -0.2134
  199MOL    H2043976   3.863   2.070   1.596  1.1723  1.2362 -1.4826
  199MOL    H2143977   3.822   2.087   1.831  0.4808 -0.1168 -0.7939
  199MOL    H2243978   3.720   2.508   1.782 -0.9542 -0.1747 -0.9822
  199MOL    H2343979   3.762   2.479   1.532  1.1792  0.8557  0.4367
  199MOL    C2443980   4.190   2.377   1.363 -0.1177 -0.8249  0.3569
  199MOL    C2543981   4.075   2.333   1.430 -0.0781 -0.2693 -0.3803
  199MOL    C2643982   3.955   2.304   1.362  0.4248 -0.3930 -0.0184
  199MOL    C2743983   3.947   2.327   1.221 -0.3685  0.2851  0.6717
  199MOL    C2843984   4.072   2.352   1.155  0.6603 -0.0076  0.5522
  199MOL    C2943985   4.191   2.385   1.224  0.8181 -0.0577  0.6991
  199MOL    O3043986   4.300   2.423   1.149  0.1386  0.1045 -0.6162
  199MOL    H3143987   4.281   2.400   1.415 -0.1157 -1.9553  0.8643
  199MOL    H3243988   4.075   2.327   1.538 -1.1285 -2.2202 -0.4566
  199MOL    H3343989   3.849   2.315   1.178 -1.5836  0.9098  3.1200
  199MOL    H3443990   4.061   2.348   1.047  1.8994 -1.0038  0.4432
  199MOL    C3543991   4.487   2.148   0.982 -0.1246  0.4167  0.1708
  199MOL    C3643992   4.385   2.239   1.015 -0.5344  0.1721  1.1575
  199MOL    C3743993   4.394   2.327   1.123 -0.0843 -0.0029  0.0483
  199MOL    C3843994   4.510   2.321   1.207  0.1002  0.5447  0.6126
  199MOL    C3943995   4.602   2.223   1.184  0.0687 -0.0754 -0.5001
  199MOL    C4043996   4.596   2.136   1.072  0.4042 -0.7453  0.1213
  199MOL    O4143997   4.696   2.046   1.062  0.3722 -0.0490  0.3758
  199MOL    H4243998   4.480   2.099   0.886 -0.3621  0.7387  0.0231
  199MOL    H4343999   4.302   2.247   0.947  1.5620 -0.7991 -1.6175
  199MOL    H4444000   4.512   2.371   1.303  1.6471 -0.0550  0.9068
  199MOL    H4544001   4.681   2.205   1.255  1.1911 -1.3662 -2.0402
  199MOL    C4644002   4.777   2.043   0.701 -0.5180 -0.7360  0.2157
  199MOL    C4744003   4.777   2.086   0.836 -0.1654 -0.1326 -0.0050
  199MOL    C4844004   4.718   2.003   0.934  0.1579  0.4729 -0.2980
  199MOL    C4944005   4.667   1.878   0.895 -0.4943  0.5858 -0.6138
  199MOL    C5044006   4.669   1.830   0.757 -0.0214  0.2684  0.0459
  199MOL    C5144007   4.737   1.911   0.658 -0.0829 -0.0706 -0.7882
  199MOL    O5244008   4.767   1.876   0.525  0.1955 -0.0024  0.2314
  199MOL    H5344009   4.827   2.109   0.631  0.6210  0.3068  2.0008
  199MOL    H5444010   4.819   2.181   0.864 -1.1513  0.1661  0.4960
  199MOL    H5544011   4.631   1.819   0.979  0.5413 -0.0878 -0.6307
  199MOL    H5644012   4.639   1.731   0.727 -0.4013  1.2090 -2.7688
  199MOL    C5744013   4.534   1.655   0.329 -0.2365 -0.3509  0.0188
  199MOL    C5844014   4.596   1.770   0.383  0.0936 -0.0939 -0.3098
  199MOL    C5944015   4.708   1.763   0.472  0.7558  0.4366 -0.8945
  199MOL    C6044016   4.764   1.637   0.496  0.5840  0.4779 -0.7445
  199MOL    C6144017   4.701   1.520   0.443  0.1174 -0.3366 -0.1362
  199MOL    C6244018   4.589   1.531   0.359 -0.4817  0.1018 -0.0985
  199MOL    O6344019   4.531   1.420   0.306 -0.5778 -0.2749 -0.0499
  199MOL    H6444020   4.448   1.657   0.264  0.7638  0.4091 -1.2845
  199MOL    H6544021   4.557   1.869   0.362 -0.5630 -0.4968 -1.0270
  199MOL    H6644022   4.842   1.613   0.567 -1.8514 -0.5409  1.6939
  199MOL    H6744023   4.748   1.425   0.458  1.3595  0.0898 -1.2309
  199MOL    C6844024   4.200   1.260   0.283 -0.5012 -0.7073 -0.1077
  199MOL    C6944025   4.331   1.299   0.252 -0.2713 -0.5512 -0.3823
  199MOL    C7044026   4.402   1.382   0.348 -0.0854 -0.1467 -0.6629
  199MOL    C7144027   4.347   1.424   0.470  0.3370 -0.2607  0.2182
  199MOL    C7244028   4.219   1.389   0.503  0.3674 -0.7695 -0.5754
  199MOL    C7344029   4.145   1.312   0.407 -0.9739  0.1247  0.2866
  199MOL    O7444030   4.018   1.267   0.450  0.1324 -0.3842 -0.0781
  199MOL    H7544031   4.138   1.196   0.221 -1.3070 -0.0999  0.0685
  199MOL    H7644032   4.368   1.277   0.153 -0.0676  0.9121 -0.6365
  199MOL    H7744033   4.399   1.492   0.536  0.5208 -2.4017  2.3644
  199MOL    H7844034   4.166   1.423   0.590  0.2857 -3.7598  0.6100
  199MOL    C7944035   3.672   1.210   0.341 -0.0175  0.2710 -0.0335
  199MOL    C8044036   3.800   1.189   0.401  0.4713  0.0574 -0.2490
  199MOL    C8144037   3.906   1.283   0.373  0.1373  0.2487  0.7003
  199MOL    C8244038   3.883   1.396   0.293 -0.6758  0.3033 -0.3127
  199MOL    C8344039   3.760   1.410   0.235 -0.1059 -0.5055 -0.2100
  199MOL    C8444040   3.658   1.318   0.255  0.6189 -0.4001  0.2402
  199MOL    O8544041   3.542   1.324   0.185 -0.3997  0.0895  0.1546
  199MOL    H8644042   3.594   1.136   0.352 -0.0712  0.1883 -0.9390
  199MOL    H8744043   3.823   1.109   0.470  1.1730  0.3643 -0.1201
  199MOL    H8844044   3.958   1.473   0.285  1.4979 -1.4552  1.9951
  199MOL    H8944045   3.749   1.494   0.168  0.9401 -1.0132 -1.0304
  199MOL    C9044046   3.359   1.597   0.359  0.0417 -0.5933 -0.6597
  199MOL    C9144047   3.471   1.529   0.313 -0.6367 -0.0841 -0.3397
  199MOL    C9244048   3.449   1.417   0.226 -0.3591 -0.3869 -0.8477
  199MOL    C9344049   3.328   1.403   0.158 -0.0589  0.5687  0.6262
  199MOL    C9444050   3.222   1.491   0.189 -0.3807  0.7719 -0.4678
  199MOL    C9544051   3.237   1.581   0.299  0.3691 -0.0316 -0.2186
  199MOL    O9644052   3.137   1.663   0.344  0.5119  0.5928  0.1189
  199MOL    H9744053   3.362   1.671   0.438 -0.8774 -0.2970 -0.9039
  199MOL    H9844054   3.566   1.538   0.364 -1.0387  1.5007  0.1758
  199MOL    H9944055   3.318   1.321   0.088 -0.3137 -0.0885  1.4183
  199MOL   H10044056   3.128   1.490   0.135 -0.8743  0.6922  0.3777
  199MOL   C10144057   3.111   2.032   0.366  0.0226  0.0638 -0.1537
  199MOL   C10244058   3.108   1.892   0.397  0.2001 -0.1010 -0.0794
  199MOL   C10344059   3.133   1.793   0.302 -0.0447  0.0284 -1.3534
  199MOL   C10444060   3.152   1.832   0.171 -0.0681 -0.2358  0.5442
  199MOL   C10544061   3.162   1.970   0.132  0.5024  0.2857 -0.3308
  199MOL   C10644062   3.140   2.071   0.230  0.9377  0.2535 -0.5359
  199MOL   O10744063   3.153   2.201   0.194 -0.1835  0.0906  0.4292
  199MOL   H10844064   3.101   2.108   0.442  1.0067  0.2890 -0.2437
  199MOL   H10944065   3.085   1.852   0.495  2.3241 -0.0222  0.4832
  199MOL   H11044066   3.161   1.754   0.097  0.3433  0.1396  0.1957
  199MOL   H11144067   3.170   2.006   0.030 -0.5225  1.4212 -0.0207
  199MOL   C11244068   3.331   2.475   0.345 -0.3122 -0.2373 -0.3294
  199MOL   C11344069   3.223   2.393   0.310 -0.3218 -0.0685  0.5538
  199MOL   C11444070   3.252   2.274   0.247 -0.2389  0.0027  1.2661
  199MOL   C11544071   3.385   2.237   0.225 -0.1485  0.0409  0.5136
  199MOL   C11644072   3.491   2.320   0.265 -0.4700  0.0761 -0.2018
  199MOL   C11744073   3.464   2.436   0.328  0.2950  0.0164 -0.4965
  199MOL   O11844074   3.562   2.511   0.379 -0.2307  0.2494  0.1979
  199MOL   H11944075   3.303   2.566   0.397 -1.0577 -0.6697  0.0339
  199MOL   H12044076   3.120   2.426   0.321  0.1156  1.1624  1.0247
  199MOL   H12144077   3.410   2.138   0.190 -1.0466  1.2913 -3.9993
  199MOL   H12244078   3.595   2.292   0.263 -0.4261 -0.0009  2.0970
  199MOL   C12344079   3.802   2.748   0.208 -0.1400  0.4057  0.5708
  199MOL   C12444080   3.746   2.651   0.297 -0.2413 -0.2676 -0.1846
  199MOL   C12544081   3.610   2.616   0.298 -1.0707  0.1983 -0.7228
  199MOL   C12644082   3.526   2.685   0.211 -0.4866 -0.5390 -0.3024
  199MOL   C12744083   3.581   2.789   0.125 -0.2241  0.3978 -0.3162
  199MOL   C12844084   3.724   2.815   0.119 -0.1992  0.1438  0.4264
  199MOL   O12944085   3.778   2.906   0.026  0.4840 -0.4828  0.0537
  199MOL   H13044086   3.906   2.777   0.216  0.1321  0.5086 -2.8085
  199MOL   H13144087   3.813   2.605   0.368 -0.8609 -0.6054  0.1892
  199MOL   H13244088   3.419   2.669   0.206 -0.7224  0.4123  1.4624
  199MOL   H13344089   3.510   2.851   0.071  1.0437  1.9066 -0.3043
  199MOL   C13444090   3.718   2.973   7.926  0.6020 -0.0603  0.0596
  199MOL   C13544091   3.737   2.996   8.060 -0.4217 -0.4147  0.2609
  199MOL   C13644092   3.764   2.882   8.143 -0.2747 -0.1146  0.0592
  199MOL   C13744093   3.780   2.756   8.085  0.7021 -0.5407 -0.0199
  199MOL   C13844094   3.781   2.738   7.949  0.0329 -0.0828  0.6460
  199MOL   C13944095   3.750   2.849   7.866 -0.0475 -0.2457 -0.8329
  199MOL   O14044096   3.765   2.833   7.732 -0.3883  0.3510  0.5333
  199MOL   H14144097   3.689   3.056   7.863 -1.6827  1.0137  2.4193
  199MOL   H14244098   3.709   3.092   8.099  0.2172  1.4125 -3.5275
  199MOL   H14344099   3.787   2.665   8.142  0.6136  0.3441  1.4290
  199MOL   H14444100   3.805   2.644   7.903 -3.0680  0.0016 -1.3197
  199MOL   C14544101   3.468   2.761   7.533 -0.2326  0.3826  0.3267
  199MOL   C14644102   3.556   2.821   7.618 -0.1721 -0.4141 -0.4475
  199MOL   C14744103   3.676   2.761   7.657  0.2341  0.0504  0.0574
  199MOL   C14844104   3.706   2.629   7.614 -0.2457 -0.4865 -0.1290
  199MOL   C14944105   3.612   2.562   7.531 -0.1526  0.2295  0.2979
  199MOL   C15044106   3.494   2.629   7.494  0.4096  0.5849  0.1950
  199MOL   O15144107   3.394   2.568   7.425  0.3322 -0.4312  0.4860
  199MOL   H15244108   3.373   2.807   7.510 -1.2689 -1.2720  1.2800
  199MOL   H15344109   3.531   2.921   7.651 -0.6123 -0.2676 -1.2226
  199MOL   H15444110   3.799   2.585   7.647 -0.6215 -1.4698 -0.3496
  199MOL   H15544111   3.626   2.463   7.490 -0.5677  0.3958 -0.2653
  199MOL   C15644112   3.316   2.641   7.070  0.4891 -0.1378 -0.8995
  199MOL   C15744113   3.314   2.645   7.211 -0.3414 -0.1526  0.3853
  199MOL   C15844114   3.409   2.576   7.285 -0.2825 -0.2924  0.7736
  199MOL   C15944115   3.514   2.505   7.216 -0.4749  0.8014  0.8706
  199MOL   C16044116   3.518   2.510   7.071 -0.8395  0.3493 -0.1682
  199MOL   C16144117   3.418   2.575   7.003 -0.1524 -0.5342  0.0953
  199MOL   O16244118   3.435   2.594   6.868  0.0936  0.0297  0.7492
  199MOL   H16344119   3.238   2.687   7.011  1.5665  2.3192 -0.4765
  199MOL   H16444120   3.227   2.685   7.261 -2.0295  0.2676 -2.7374
  199MOL   H16544121   3.580   2.447   7.279 -2.6882 -2.2073  0.5598
  199MOL   H16644122   3.603   2.470   7.018 -2.2201 -3.5619  0.4013
  199MOL   C16744123   3.212   2.461   6.604  0.2322 -0.2815 -0.7062
  199MOL   C16844124   3.281   2.548   6.690 -0.3982 -0.5899 -0.1170
  199MOL   C16944125   3.360   2.505   6.798  0.0426  0.7802  0.1735
  199MOL   C17044126   3.366   2.365   6.819 -0.4608  0.0360 -0.0949
  199MOL   C17144127   3.295   2.272   6.737  0.4691 -0.5916 -0.4942
  199MOL   C17244128   3.221   2.316   6.632  0.0696 -0.3056 -0.0423
  199MOL   O17344129   3.164   2.221   6.552 -0.2596 -0.1691  0.0507
  199MOL   H17444130   3.154   2.503   6.523  1.5477 -0.0862 -1.5684
  199MOL   H17544131   3.278   2.654   6.668 -0.8785 -0.4105  0.8376
  199MOL   H17644132   3.432   2.320   6.892 -1.1684 -0.9932 -0.0836
  199MOL   H17744133   3.313   2.168   6.757  3.1828  0.2620  1.8518
  199MOL   C17844134   2.819   2.294   6.443  0.3645 -0.0362  0.3109
  199MOL   C17944135   2.931   2.254   6.525  0.0601 -0.9929 -0.8363
  199MOL   C18044136   3.062   2.257   6.471 -0.1737  0.3385  0.9645
  199MOL   C18144137   3.082   2.292   6.339 -0.5391  0.1808  0.4342
  199MOL   C18244138   2.973   2.315   6.254  0.6246 -0.8787  0.2876
  199MOL   C18344139   2.843   2.316   6.307 -0.2219  0.1600  0.7379
  199MOL   O18444140   2.740   2.355   6.229  0.0743  0.0748  0.2681
  199MOL   H18544141   2.717   2.291   6.481  0.7049 -0.5606  1.2169
  199MOL   H18644142   2.916   2.233   6.630 -1.4239 -0.1301 -0.8647
  199MOL   H18744143   3.182   2.292   6.296 -1.7156 -0.8426 -2.4826
  199MOL   H18844144   2.995   2.328   6.149  0.6253 -0.0959  0.3826
  199MOL   C18944145   2.615   2.690   6.297  1.1086  0.1656 -0.3083
  199MOL   C19044146   2.637   2.557   6.313 -0.3246  0.3879 -0.5111
  199MOL   C19144147   2.719   2.488   6.224 -0.3234 -0.1841 -0.2530
  199MOL   C19244148   2.782   2.556   6.118  0.3673  0.2471  0.3093
  199MOL   C19344149   2.759   2.694   6.101 -0.4091 -0.6549  0.4769
  199MOL   C19444150   2.668   2.763   6.186 -0.5278  0.0883 -0.4431
  199MOL   O19544151   2.639   2.895   6.166  0.6093  0.3619 -0.5950
  199MOL   H19644152   2.541   2.723   6.368  0.5544  2.3013 -1.8111
  199MOL   H19744153   2.589   2.507   6.395  0.3386  0.9681  0.2301
  199MOL   H19844154   2.846   2.501   6.050  1.4151  1.7692  0.0247
  199MOL   H19944155   2.816   2.748   6.027 -1.1218  0.8797  1.0156
  199MOL   C20044156   2.390   2.916   5.879 -0.5285  0.6405  1.2736
  199MOL   C20144157   2.508   2.874   5.954  0.1982 -0.5727 -0.1010
  199MOL   C20244158   2.533   2.936   6.082 -0.5585  0.2377 -0.8710
  199MOL   C20344159   2.443   3.043   6.130  0.5949  0.1853  0.1997
  199MOL   C20444160   2.339   3.084   6.046  0.2677  0.2176 -0.8374
  199MOL   C20544161   2.306   3.019   5.925 -0.2658 -0.3513  0.5953
  199MOL   O20644162   2.198   3.062   5.848 -0.1247 -1.2666  0.0807
  199MOL   H20744163   2.378   2.866   5.784  3.2105  0.2049  0.9386
  199MOL   H20844164   2.563   2.791   5.912  1.0849 -0.0518  0.0249
  199MOL   H20944165   2.476   3.098   6.216  0.2863  1.4202 -0.4678
  199MOL   H21044166   2.278   3.172   6.062  0.8007  0.4695 -0.1404
  199MOL   C21144167   2.204   3.402   5.708  0.0567 -0.5070  0.0619
  199MOL   C21244168   2.160   3.291   5.779  0.3908 -0.0816  0.2415
  199MOL   C21344169   2.223   3.165   5.754 -0.2844 -0.2743  0.7308
  199MOL   C21444170   2.317   3.152   5.647 -0.3375  0.6854  0.0979
  199MOL   C21544171   2.346   3.264   5.565  0.1341  0.5635  0.7636
  199MOL   C21644172   2.290   3.386   5.599 -0.1676 -1.0601 -0.1011
  199MOL   O21744173   2.320   3.495   5.521  0.4167  0.5835 -0.3715
  199MOL   H21844174   2.172   3.499   5.743  0.0899 -0.6026  0.3547
  199MOL   H21944175   2.079   3.304   5.849 -2.5415 -0.8536 -2.9065
  199MOL   H22044176   2.377   3.064   5.631  1.5474  1.8591  0.5794
  199MOL   H22144177   2.412   3.248   5.481 -2.1591  0.4290 -1.0718
  199MOL   H22244178   2.331   3.472   5.430  0.4585  0.1024 -0.2470
  200MOL     C144179   3.180   1.702   7.305  0.3996  0.0867  0.3340
  200MOL     C244180   3.246   1.759   7.415  0.3171  0.2737 -0.2459
  200MOL     C344181   3.377   1.805   7.405  1.1398 -0.0226  0.2328
  200MOL     C444182   3.436   1.809   7.279 -0.3203  0.8369  1.2430
  200MOL     C544183   3.373   1.763   7.157  0.1782  0.3057  0.1686
  200MOL     C644184   3.242   1.707   7.178 -0.2593 -0.2759 -0.3343
  200MOL     O744185   3.171   1.667   7.068 -0.4687  0.8440  0.0294
  200MOL     H844186   3.076   1.675   7.315  0.6027 -0.2904  1.4956
  200MOL     H944187   3.208   1.776   7.515  4.5336  1.4730  1.2828
  200MOL    H1044188   3.527   1.867   7.278  0.0119  0.3753 -2.3616
  200MOL    H1144189   3.431   1.783   7.068  2.7311 -1.5332  1.3625
  200MOL    H1244190   3.436   1.830   7.492  1.0580 -1.5792  0.7537
  200MOL    C1344191   3.065   1.928   6.839 -0.1474  0.5150  0.1236
  200MOL    C1444192   3.142   1.838   6.909 -0.3438  0.3766  0.4722
  200MOL    C1544193   3.088   1.761   7.009  0.5311 -0.2548 -0.9532
  200MOL    C1644194   2.955   1.778   7.051 -0.0157  0.6086  0.8480
  200MOL    C1744195   2.878   1.875   6.992  0.4333  0.8851  0.0871
  200MOL    C1844196   2.934   1.950   6.888  0.9506  0.9812 -0.2749
  200MOL    O1944197   2.860   2.044   6.822  0.4501  0.1741 -0.2747
  200MOL    H2044198   3.112   1.990   6.764  0.8166  0.5653  0.7473
  200MOL    H2144199   3.242   1.819   6.873 -0.8712 -0.3531 -0.6184
  200MOL    H2244200   2.909   1.723   7.131 -1.2770  1.2397  0.5628
  200MOL    H2344201   2.772   1.884   7.007  0.3364  0.5601 -0.3903
  200MOL    C2444202   2.711   1.953   6.488 -0.7051  0.3440  0.0854
  200MOL    C2544203   2.812   1.972   6.587 -0.0084  0.3433  0.5577
  200MOL    C2644204   2.776   2.014   6.719 -0.1739  0.0931 -0.6256
  200MOL    C2744205   2.638   2.015   6.748  0.3449  0.0856 -0.0003
  200MOL    C2844206   2.543   2.000   6.648  0.6061 -0.0208 -0.2115
  200MOL    C2944207   2.573   1.969   6.515  0.6819  0.1161  1.0423
  200MOL    O3044208   2.480   1.978   6.415 -0.0143 -0.6680  0.2967
  200MOL    H3144209   2.750   1.950   6.387  1.9033  1.4685  1.0219
  200MOL    H3244210   2.918   1.969   6.565 -0.2500  2.4547 -0.9720
  200MOL    H3344211   2.612   2.040   6.850  1.7777 -0.1521  0.4265
  200MOL    H3444212   2.441   2.021   6.679  0.6884  1.0510 -0.6153
  200MOL    C3544213   2.185   1.771   6.467  0.3814 -0.2092 -0.4934
  200MOL    C3644214   2.273   1.875   6.475  0.2943 -0.2630  0.2671
  200MOL    C3744215   2.396   1.872   6.408 -0.7100  0.1654 -0.2723
  200MOL    C3844216   2.434   1.758   6.333 -0.5383 -0.0677  0.8178
  200MOL    C3944217   2.345   1.651   6.325 -0.2541  0.2545  0.1488
  200MOL    C4044218   2.219   1.656   6.391 -0.3759 -0.0316 -0.3737
  200MOL    O4144219   2.142   1.542   6.395 -0.1667  0.8481 -0.2870
  200MOL    H4244220   2.095   1.773   6.527  0.5768 -1.9436 -0.1149
  200MOL    H4344221   2.239   1.962   6.528  2.5250  1.3445 -0.8907
  200MOL    H4444222   2.532   1.740   6.293  0.1010 -0.1936  2.3830
  200MOL    H4544223   2.373   1.560   6.275 -1.7086 -1.0267  1.6177
  200MOL    C4644224   1.961   1.569   6.081  0.8328 -0.0511 -0.3082
  200MOL    C4744225   2.007   1.602   6.210 -0.8070 -0.0513  0.4594
  200MOL    C4844226   2.089   1.507   6.275  0.1666  0.7875 -0.6747
  200MOL    C4944227   2.112   1.383   6.217 -0.0284  0.8506 -0.1337
  200MOL    C5044228   2.070   1.352   6.085 -0.3145  0.5791  0.6602
  200MOL    C5144229   1.996   1.449   6.020 -0.0598 -0.5596  0.2268
  200MOL    O5244230   1.958   1.438   5.887 -0.4333  0.5071  0.0565
  200MOL    H5344231   1.908   1.647   6.029 -1.1442 -1.2482 -0.1418
  200MOL    H5444232   1.975   1.690   6.263 -0.4918 -0.5607  1.5167
  200MOL    H5544233   2.178   1.314   6.266 -0.4038  0.9519  0.5183
  200MOL    H5644234   2.103   1.259   6.042 -0.0950  1.2176 -0.6076
  200MOL    C5744235   2.094   1.525   5.553  0.5873 -0.0108 -0.3250
  200MOL    C5844236   2.017   1.468   5.653 -0.2169 -0.5604  0.0938
  200MOL    C5944237   2.022   1.510   5.789 -0.4920  1.0393 -0.2694
  200MOL    C6044238   2.113   1.614   5.819  0.0768  0.1862  0.1506
  200MOL    C6144239   2.184   1.680   5.718 -0.9329 -0.4256  0.3586
  200MOL    C6244240   2.174   1.635   5.584  0.0106 -0.2632 -0.4728
  200MOL    O6344241   2.257   1.692   5.487 -0.7212  0.1009 -0.0953
  200MOL    H6444242   2.080   1.494   5.451  1.3402 -2.5208  0.2983
  200MOL    H6544243   1.947   1.388   5.632 -0.4834  0.1267 -1.7647
  200MOL    H6644244   2.127   1.650   5.920 -1.1195  1.6527 -0.1857
  200MOL    H6744245   2.251   1.760   5.746 -0.0923 -1.7497  2.2298
  200MOL    C6844246   1.999   1.855   5.283  0.4443 -0.7552 -0.6711
  200MOL    C6944247   2.078   1.829   5.400 -0.0537 -0.6500  0.5002
  200MOL    C7044248   2.181   1.735   5.381  0.5165 -0.0643 -0.8492
  200MOL    C7144249   2.216   1.686   5.256  0.5962 -0.3996 -0.2302
  200MOL    C7244250   2.132   1.710   5.140 -0.2897  0.1409  0.1242
  200MOL    C7344251   2.022   1.796   5.157  0.8409 -0.7041 -0.0890
  200MOL    O7444252   1.944   1.832   5.054  0.2320 -1.1544  0.7252
  200MOL    H7544253   1.925   1.931   5.300  0.6164 -0.6456 -0.4045
  200MOL    H7644254   2.066   1.870   5.499  3.9182  0.6541  0.5394
  200MOL    H7744255   2.303   1.622   5.257  0.2519 -1.0111 -3.0880
  200MOL    H7844256   2.167   1.662   5.049  0.9725  0.7399  0.2846
  200MOL    C7944257   1.625   1.706   4.924 -0.3141 -0.9812 -0.3320
  200MOL    C8044258   1.723   1.795   4.964 -0.3315  0.6908 -0.3851
  200MOL    C8144259   1.846   1.744   5.022 -0.0961 -0.9201  0.6460
  200MOL    C8244260   1.857   1.599   5.030  0.5599 -0.0001  0.0963
  200MOL    C8344261   1.750   1.513   4.996 -0.0134  0.1978 -0.0434
  200MOL    C8444262   1.636   1.568   4.934  0.9314 -0.5843 -0.2386
  200MOL    O8544263   1.534   1.483   4.897 -0.0658  0.0896 -0.0227
  200MOL    H8644264   1.536   1.744   4.877  0.9061  0.6705 -1.3884
  200MOL    H8744265   1.712   1.902   4.953 -1.5313  0.8096  1.6561
  200MOL    H8844266   1.947   1.558   5.074  0.5179  0.5750  0.7230
  200MOL    H8944267   1.759   1.406   5.010 -0.4504  0.0711 -0.7094
  200MOL    C9044268   1.168   1.511   4.877 -0.0345 -0.0491  0.3158
  200MOL    C9144269   1.303   1.484   4.845 -0.6865  0.2994  0.1903
  200MOL    C9244270   1.407   1.515   4.932  0.2542 -0.2440 -0.1318
  200MOL    C9344271   1.373   1.561   5.058  0.5892 -0.0159 -0.0400
  200MOL    C9444272   1.239   1.575   5.096  0.2426 -0.2117 -0.2288
  200MOL    C9544273   1.136   1.555   5.003 -0.2228 -0.1824  0.0512
  200MOL    O9644274   1.009   1.598   5.044  0.0448  0.4558 -0.4844
  200MOL    H9744275   1.090   1.500   4.802  0.9595 -2.3882 -0.4095
  200MOL    H9844276   1.323   1.440   4.748 -0.2587 -1.3280  1.0101
  200MOL    H9944277   1.447   1.583   5.134 -2.7913 -1.6964  3.9088
  200MOL   H10044278   1.219   1.608   5.197  0.6349 -0.5465 -0.0388
  200MOL   C10144279   0.708   1.664   4.834 -0.4852 -0.1192  0.0829
  200MOL   C10244280   0.823   1.683   4.914  0.2832  0.2122 -0.2117
  200MOL   C10344281   0.896   1.577   4.967 -0.5334 -0.0839 -0.0534
  200MOL   C10444282   0.852   1.447   4.934 -0.0797 -0.4099  0.0710
  200MOL   C10544283   0.732   1.429   4.862  0.2122  0.3424  0.2224
  200MOL   C10644284   0.666   1.537   4.809  0.2998  0.2127 -0.0632
  200MOL   O10744285   0.566   1.518   4.714 -0.0197 -0.0479  0.0895
  200MOL   H10844286   0.669   1.744   4.773 -1.9733 -0.2786  0.7887
  200MOL   H10944287   0.860   1.784   4.919 -1.7557  1.0120 -0.9590
  200MOL   H11044288   0.909   1.366   4.978  1.1304 -0.6894 -1.9056
  200MOL   H11144289   0.696   1.328   4.851  0.9802  0.0813  0.1115
  200MOL   C11244290   0.247   1.353   4.779  0.1895 -0.2384  0.0469
  200MOL   C11344291   0.346   1.452   4.759  0.3082 -0.5888 -0.0196
  200MOL   C11444292   0.474   1.420   4.718 -0.0070 -0.2371  0.1532
  200MOL   C11544293   0.501   1.294   4.668 -0.0874 -0.3387  0.8394
  200MOL   C11644294   0.398   1.197   4.665 -0.0845 -0.0351  0.4195
  200MOL   C11744295   0.272   1.222   4.726  0.2322 -0.3897  0.2147
  200MOL   O11844296   0.180   1.119   4.741 -0.1763 -0.4117  0.0090
  200MOL   H11944297   0.156   1.382   4.829  0.3087 -2.0394  1.3378
  200MOL   H12044298   0.320   1.553   4.786  1.0119 -0.6782  1.0070
  200MOL   H12144299   0.596   1.253   4.637 -0.2269 -0.3011  0.3486
  200MOL   H12244300   0.424   1.098   4.628 -0.9145  0.1849 -0.7722
  200MOL   C12344301   8.082   1.168   4.837  0.3800 -0.0049 -0.0076
  200MOL   C12444302   8.223   1.158   4.851 -0.4198 -0.3849  0.0797
  200MOL   C12544303   0.050   1.152   4.736 -0.0212 -0.0817 -0.3842
  200MOL   C12644304   8.252   1.165   4.609  0.2423 -0.8162  0.7603
  200MOL   C12744305   8.115   1.194   4.595  0.4142  1.6502 -0.2363
  200MOL   C12844306   8.029   1.188   4.708  0.4180  0.3488 -0.8629
  200MOL   O12944307   7.898   1.214   4.702  0.2039  0.1081 -0.1688
  200MOL   H13044308   8.013   1.167   4.920  0.4761  0.4861  0.0802
  200MOL   H13144309   0.006   1.159   4.952 -1.4127  0.7131  0.4486
  200MOL   H13244310   0.055   1.133   4.523 -0.3470  0.9270 -0.2979
  200MOL   H13344311   8.069   1.196   4.497 -1.0943 -1.8531  0.3448
  200MOL   C13444312   7.741   0.877   4.646 -0.4691  0.1891 -0.6000
  200MOL   C13544313   7.844   0.977   4.657 -0.0095  0.0874 -0.3628
  200MOL   C13644314   7.806   1.105   4.709  0.3852  0.6824  0.6934
  200MOL   C13744315   7.674   1.131   4.752  0.1243 -0.3464 -0.0575
  200MOL   C13844316   7.571   1.040   4.725  0.3050 -0.7745 -0.5617
  200MOL   C13944317   7.606   0.911   4.683 -0.4023 -0.6112  0.2782
  200MOL   O14044318   7.509   0.815   4.671  0.1622 -0.8167  0.4396
  200MOL   H14144319   7.775   0.777   4.621  2.1015  0.7714  0.3838
  200MOL   H14244320   7.940   0.947   4.618 -0.0695 -1.9139  0.9605
  200MOL   H14344321   7.646   1.222   4.803 -0.2932 -1.2236  1.2974
  200MOL   H14444322   7.466   1.064   4.732  0.5580  0.1385  0.2467
  200MOL   C14544323   7.458   0.694   5.018  0.3816 -0.6926 -0.4705
  200MOL   C14644324   7.521   0.723   4.895 -0.2639 -0.2951 -0.1207
  200MOL   C14744325   7.450   0.785   4.793  0.3045  0.0757  0.4669
  200MOL   C14844326   7.317   0.820   4.814 -0.6482 -0.2123  0.1432
  200MOL   C14944327   7.255   0.804   4.942  0.2367  0.3628 -0.3504
  200MOL   C15044328   7.321   0.737   5.043 -0.0688 -0.0956 -0.1182
  200MOL   O15144329   7.269   0.715   5.167  0.2956  0.1496 -0.0644
  200MOL   H15244330   7.512   0.657   5.104 -2.9824  2.2586  3.1128
  200MOL   H15344331   7.627   0.705   4.887  0.2238  2.0797  0.4439
  200MOL   H15444332   7.269   0.859   4.725  0.2680 -0.5471 -0.5082
  200MOL   H15544333   7.158   0.849   4.952 -0.7954 -1.4861 -1.7784
  200MOL   C15644334   6.935   0.588   5.215  0.8634  0.5994  0.1316
  200MOL   C15744335   7.077   0.593   5.209  0.2395 -0.2341 -0.5979
  200MOL   C15844336   7.134   0.723   5.191 -0.6838  0.6040  0.0767
  200MOL   C15944337   7.049   0.836   5.193 -0.5068  0.3181 -0.5865
  200MOL   C16044338   6.904   0.829   5.190 -1.1482 -0.7296  0.1973
  200MOL   C16144339   6.846   0.702   5.211  0.6847 -0.4281  1.1062
  200MOL   O16244340   6.705   0.680   5.205 -0.4190  0.0246  0.5922
  200MOL   H16344341   6.889   0.491   5.230 -0.6291  1.0434 -1.4320
  200MOL   H16444342   7.135   0.502   5.208 -2.1147 -1.7658 -0.8843
  200MOL   H16544343   7.093   0.934   5.191  1.0931 -0.3986 -2.0308
  200MOL   H16644344   6.845   0.918   5.179  1.5367  1.0946 -0.0110
  200MOL   C16744345   6.455   0.874   5.014 -0.3813  0.2134  0.2284
  200MOL   C16844346   6.544   0.836   5.117 -0.2933 -0.5355 -0.1536
  200MOL   C16944347   6.633   0.730   5.102  0.0102  0.5408  0.5926
  200MOL   C17044348   6.642   0.658   4.984 -0.2005  0.4988 -0.5027
  200MOL   C17144349   6.549   0.690   4.880  0.4388  0.4593  0.3133
  200MOL   C17244350   6.452   0.799   4.891 -0.8670  0.4654 -0.4466
  200MOL   O17344351   6.355   0.825   4.800 -0.1925 -0.1504  0.3530
  200MOL   H17444352   6.394   0.962   5.023 -2.2631 -1.1148  0.7816
  200MOL   H17544353   6.556   0.875   5.217  1.3659 -1.6324  0.1120
  200MOL   H17644354   6.701   0.567   4.977 -0.6384  0.2838 -1.3400
  200MOL   H17744355   6.537   0.633   4.789  2.3624  1.8921 -0.8700
  200MOL   C17844356   6.336   1.129   4.593 -0.0570 -0.6601  0.4730
  200MOL   C17944357   6.330   1.039   4.703  0.6437 -0.0718  0.2365
  200MOL   C18044358   6.383   0.909   4.696 -0.6325  0.1375  0.2885
  200MOL   C18144359   6.451   0.871   4.582 -0.3243  0.2045  0.7601
  200MOL   C18244360   6.471   0.963   4.477 -0.7424 -0.3214 -0.3399
  200MOL   C18344361   6.401   1.081   4.474 -0.7203 -0.1640 -0.2350
  200MOL   O18444362   6.413   1.163   4.367  0.1510  0.4838  1.0032
  200MOL   H18544363   6.293   1.228   4.598  0.7173 -0.2764 -0.2933
  200MOL   H18644364   6.274   1.066   4.792  1.4530  0.8766  0.4616
  200MOL   H18744365   6.493   0.772   4.588 -2.3672 -0.6356  1.9192
  200MOL   H18844366   6.523   0.946   4.384 -0.7897  0.8830 -0.5996
  200MOL   C18944367   6.058   1.203   4.256  0.7461 -0.7990 -0.1366
  200MOL   C19044368   6.173   1.146   4.310 -0.0517 -0.1965  0.3273
  200MOL   C19144369   6.300   1.201   4.297  0.1285 -0.1539 -0.1462
  200MOL   C19244370   6.320   1.317   4.221  0.3408 -0.7015  0.5996
  200MOL   C19344371   6.206   1.378   4.168 -0.8326 -0.6174 -0.1681
  200MOL   C19444372   6.080   1.321   4.179 -0.0131 -0.1592 -0.3455
  200MOL   O19544373   5.976   1.406   4.137 -0.0015 -0.1951 -0.1704
  200MOL   H19644374   5.967   1.147   4.270  0.7260 -0.8057 -0.2902
  200MOL   H19744375   6.161   1.064   4.379 -0.9231 -1.4349 -1.2462
  200MOL   H19844376   6.418   1.354   4.196 -0.0966 -0.3064 -0.5285
  200MOL   H19944377   6.215   1.475   4.122  0.0244 -0.4356  0.3631
  200MOL   C20044378   5.855   1.670   4.371  0.8157 -0.2984 -0.4160
  200MOL   C20144379   5.927   1.606   4.269  0.2028  0.0628  0.5582
  200MOL   C20244380   5.912   1.469   4.240 -0.4207  0.2941 -0.8625
  200MOL   C20344381   5.810   1.394   4.305  0.3190  0.2169 -0.4657
  200MOL   C20444382   5.738   1.464   4.403  0.4224  0.7202  0.2584
  200MOL   C20544383   5.758   1.597   4.444  0.5176  0.3916 -0.2369
  200MOL   O20644384   5.682   1.648   4.546 -0.1436 -0.8931  0.2521
  200MOL   H20744385   5.872   1.776   4.383 -1.1547 -0.0676  0.5163
  200MOL   H20844386   5.996   1.665   4.209 -0.2818  0.9353  0.8404
  200MOL   H20944387   5.782   1.294   4.276 -0.5821 -0.2390  1.8689
  200MOL   H21044388   5.659   1.409   4.452 -0.3924  2.8157  1.4015
  200MOL   C21144389   5.892   1.645   4.849 -0.4269 -0.4088  0.0920
  200MOL   C21244390   5.862   1.640   4.712  0.6235 -0.3429  0.1099
  200MOL   C21344391   5.732   1.650   4.671  0.1305 -0.3105  0.1205
  200MOL   C21444392   5.632   1.669   4.765 -0.5624  0.1250  0.3791
  200MOL   C21544393   5.663   1.664   4.900 -0.5225  0.6702  0.2117
  200MOL   C21644394   5.795   1.658   4.943  1.1415 -0.1753 -0.2597
  200MOL   O21744395   5.822   1.657   5.076 -0.7530  0.1762  0.2831
  200MOL   H21844396   5.994   1.641   4.883 -0.5138 -0.8152  0.3129
  200MOL   H21944397   5.939   1.627   4.638 -0.6765 -2.4598 -0.9204
  200MOL   H22044398   5.531   1.684   4.729 -0.4104 -2.6939 -1.3223
  200MOL   H22144399   5.576   1.672   4.964  0.8324  2.4837  1.8565
  200MOL   H22244400   5.740   1.684   5.115 -1.3514 -0.7506 -0.3054
  201MOL     C144401   2.491   1.567   5.959  0.0614 -0.2000 -0.9841
  201MOL     C244402   2.424   1.477   5.876  0.1912 -0.2378  0.7575
  201MOL     C344403   2.488   1.452   5.748 -0.5648 -0.4800  0.6917
  201MOL     C444404   2.614   1.501   5.717 -0.3493 -0.1480  0.3814
  201MOL     C544405   2.676   1.590   5.803 -0.7914 -0.3438 -0.2372
  201MOL     C644406   2.608   1.630   5.922  0.1675  0.7420  1.4682
  201MOL     O744407   2.667   1.719   6.015  0.5594  0.2902 -0.7323
  201MOL     H844408   2.448   1.597   6.054  0.2283  0.7996 -1.2268
  201MOL     H944409   2.332   1.428   5.905 -0.5043  1.5652  1.6891
  201MOL    H1044410   2.655   1.480   5.619 -2.2302 -1.1985 -0.2126
  201MOL    H1144411   2.766   1.642   5.771  1.2437 -3.1768  0.7254
  201MOL    H1244412   2.437   1.390   5.676  0.7764  1.4032 -1.9250
  201MOL    C1344413   2.686   2.047   5.828  1.0797  0.3942  0.0518
  201MOL    C1444414   2.649   1.914   5.869 -0.5340 -0.1669  0.4640
  201MOL    C1544415   2.706   1.846   5.980  0.1063 -0.3658  0.1071
  201MOL    C1644416   2.792   1.923   6.058  0.3361  0.2957 -0.1669
  201MOL    C1744417   2.838   2.051   6.017  0.1280 -1.0788  0.2251
  201MOL    C1844418   2.783   2.120   5.903  0.4874  0.0449  0.0706
  201MOL    O1944419   2.831   2.240   5.869  0.3540 -0.2600  0.3418
  201MOL    H2044420   2.634   2.095   5.747 -0.7445  1.0068  1.5680
  201MOL    H2144421   2.578   1.861   5.808  0.7049 -1.4429  0.1029
  201MOL    H2244422   2.844   1.872   6.138 -1.5901  0.0969  0.9886
  201MOL    H2344423   2.897   2.099   6.093  1.3260 -0.0198 -1.3229
  201MOL    C2444424   2.680   2.490   5.635 -0.6409  0.7454 -0.2022
  201MOL    C2544425   2.770   2.387   5.686 -0.0699 -0.0122 -0.0462
  201MOL    C2644426   2.745   2.326   5.811  0.6087 -0.0698  0.2550
  201MOL    C2744427   2.633   2.368   5.885  0.3984  0.4961 -0.4090
  201MOL    C2844428   2.555   2.476   5.836  0.5028 -0.4093 -0.1976
  201MOL    C2944429   2.572   2.533   5.712  0.2326  0.5008  0.2596
  201MOL    O3044430   2.486   2.635   5.685 -0.2905  0.1741  0.0400
  201MOL    H3144431   2.694   2.546   5.543 -1.0854  0.2796 -0.5542
  201MOL    H3244432   2.852   2.364   5.619  1.5762  3.1567  0.7739
  201MOL    H3344433   2.604   2.328   5.981  1.7973 -2.0665 -1.0251
  201MOL    H3444434   2.464   2.497   5.889 -0.3072 -0.8205 -1.4058
  201MOL    C3544435   2.482   2.826   5.363  0.0735  0.9490  0.0827
  201MOL    C3644436   2.506   2.784   5.497 -0.3605 -0.0693  0.0144
  201MOL    C3744437   2.450   2.669   5.555 -0.5889  0.4506 -0.2170
  201MOL    C3844438   2.358   2.596   5.483 -0.3575 -0.2815 -0.5517
  201MOL    C3944439   2.318   2.638   5.350 -0.3312 -1.2763 -0.5407
  201MOL    C4044440   2.387   2.751   5.289 -0.2447  0.5341  0.2393
  201MOL    O4144441   2.365   2.791   5.159  0.2572 -0.1990  0.6612
  201MOL    H4244442   2.539   2.909   5.324  0.3018  1.1691  0.8781
  201MOL    H4344443   2.576   2.846   5.551 -2.8301  1.4860  1.5190
  201MOL    H4444444   2.317   2.504   5.524 -1.0592 -0.3292 -1.3422
  201MOL    H4544445   2.235   2.590   5.300  0.0808 -1.5003 -1.0104
  201MOL    C4644446   2.691   2.780   4.986 -0.6094  0.0634 -0.9026
  201MOL    C4744447   2.583   2.744   5.067 -0.6067 -0.9238 -0.3953
  201MOL    C4844448   2.472   2.831   5.085  0.4270 -0.4151  0.1747
  201MOL    C4944449   2.473   2.951   5.016  0.0411  0.2089  0.3438
  201MOL    C5044450   2.579   2.991   4.934 -0.5517  0.4615 -0.0870
  201MOL    C5144451   2.691   2.903   4.915  0.2545  0.0605  0.4707
  201MOL    O5244452   2.801   2.947   4.859  0.1558  0.1612 -0.5885
  201MOL    H5344453   2.778   2.716   4.985 -0.7218 -0.0966 -2.8696
  201MOL    H5444454   2.574   2.651   5.121  1.2932  0.3204  2.1638
  201MOL    H5544455   2.393   3.022   5.029 -0.4020 -0.2757  0.2637
  201MOL    H5644456   2.572   3.086   4.883  0.7398  0.1883 -0.7801
  201MOL    C5744457   2.890   2.731   4.571 -0.3734  0.2540 -0.4986
  201MOL    C5844458   2.813   2.817   4.651  0.2978  0.0073  0.3871
  201MOL    C5944459   2.867   2.858   4.780  0.0648  0.2124 -0.3044
  201MOL    C6044460   2.997   2.818   4.815  0.8484 -0.6146 -0.8120
  201MOL    C6144461   3.069   2.730   4.726 -0.7273  0.2049 -0.3692
  201MOL    C6244462   3.014   2.677   4.604 -0.2083  0.2936 -0.3291
  201MOL    O6344463   3.093   2.596   4.524  0.2639  0.4417 -0.2397
  201MOL    H6444464   2.857   2.701   4.472 -0.3119  0.6308 -0.6352
  201MOL    H6544465   2.717   2.856   4.620 -0.1039 -1.8191 -0.7500
  201MOL    H6644466   3.033   2.844   4.913  1.5503 -1.3519 -0.8604
  201MOL    H6744467   3.165   2.694   4.761 -0.0252  0.6869 -1.7467
  201MOL    C6844468   3.333   2.855   4.382 -0.2602 -0.3016 -0.9070
  201MOL    C6944469   3.233   2.795   4.464  0.5028 -0.3683 -0.2582
  201MOL    C7044470   3.186   2.664   4.442 -0.3107 -0.8947 -0.5979
  201MOL    C7144471   3.246   2.595   4.333  0.6390 -0.3266 -0.1890
  201MOL    C7244472   3.349   2.650   4.252 -0.6279  0.0230 -0.1761
  201MOL    C7344473   3.398   2.781   4.279 -0.9886 -0.1704 -0.3252
  201MOL    O7444474   3.517   2.831   4.228  0.0908 -0.1323 -0.3561
  201MOL    H7544475   3.369   2.952   4.411  1.3069 -0.9511 -0.6342
  201MOL    H7644476   3.204   2.855   4.549  1.5512  1.7027 -1.3379
  201MOL    H7744477   3.210   2.494   4.319 -2.0051  0.1373  2.8580
  201MOL    H7844478   3.394   2.588   4.176 -2.1537 -0.4890 -0.6861
  201MOL    C7944479   3.602   3.112   4.001  0.0124  0.2785  1.0812
  201MOL    C8044480   3.601   3.030   4.115  0.6391  0.5516 -0.4256
  201MOL    C8144481   3.522   2.914   4.119  0.4525 -0.1180  0.2552
  201MOL    C8244482   3.435   2.891   4.012 -0.3782 -0.2584  0.2852
  201MOL    C8344483   3.443   2.975   3.896  0.8496  0.2332  0.0812
  201MOL    C8444484   3.528   3.080   3.884  0.3270 -0.4553  0.2299
  201MOL    O8544485   3.542   3.152   3.769 -0.0273  0.4024 -0.0738
  201MOL    H8644486   3.658   3.205   3.999  1.0053 -0.3417 -0.8416
  201MOL    H8744487   3.673   3.055   4.191  1.2241 -3.3340  0.3885
  201MOL    H8844488   3.377   2.800   4.003 -2.0846  0.7342  0.9730
  201MOL    H8944489   3.376   2.968   3.812  3.2088  0.3788 -1.8440
  201MOL    C9044490   3.635   2.962   3.476  0.4180  0.0047 -0.1711
  201MOL    C9144491   3.557   3.027   3.570  0.7911  0.0365 -0.0010
  201MOL    C9244492   3.624   3.094   3.674 -0.9680  0.1363  0.4701
  201MOL    C9344493   3.764   3.094   3.684 -0.2035  0.1912 -0.8539
  201MOL    C9444494   3.843   3.026   3.586 -0.5129 -0.4184  0.0160
  201MOL    C9544495   3.778   2.960   3.484  0.8760  0.5620 -0.0421
  201MOL    O9644496   3.852   2.889   3.387  0.0821 -0.1717  0.0139
  201MOL    H9744497   3.603   2.899   3.395  1.4017 -1.8099  0.8186
  201MOL    H9844498   3.450   3.032   3.564  0.7605  0.1318  0.6636
  201MOL    H9944499   3.817   3.134   3.769  0.7517 -1.7575 -0.5052
  201MOL   H10044500   3.951   3.026   3.597 -0.4082  2.9106 -0.5961
  201MOL   C10144501   4.195   2.750   3.436  0.5412  0.9340 -0.2806
  201MOL   C10244502   4.091   2.830   3.387  0.2370 -0.3842 -0.8124
  201MOL   C10344503   3.954   2.803   3.432  0.0375  0.6004 -0.2397
  201MOL   C10444504   3.929   2.689   3.512  0.4459 -0.6576 -0.3585
  201MOL   C10544505   4.037   2.599   3.543  0.1275  0.0943 -0.7598
  201MOL   C10644506   4.169   2.632   3.514  0.1783  0.0127 -0.9385
  201MOL   O10744507   4.271   2.552   3.549  0.0205  0.0373 -0.2350
  201MOL   H10844508   4.292   2.786   3.406  0.2076  0.5626 -1.8536
  201MOL   H10944509   4.113   2.918   3.329  1.9500  0.2161  0.6889
  201MOL   H11044510   3.826   2.659   3.526  0.4884 -1.3582 -1.5851
  201MOL   H11144511   4.001   2.512   3.595 -0.7674  0.4806 -0.7216
  201MOL   C11244512   4.516   2.723   3.767 -0.5159  0.1778 -0.0253
  201MOL   C11344513   4.391   2.693   3.708 -0.6441 -0.1865 -0.2276
  201MOL   C11444514   4.390   2.596   3.603  0.1693  0.0649  0.2050
  201MOL   C11544515   4.507   2.539   3.553 -0.3676  0.2508  0.4442
  201MOL   C11644516   4.626   2.602   3.591 -0.1798 -0.0506 -0.4553
  201MOL   C11744517   4.634   2.681   3.706  0.2041  0.5057  0.0219
  201MOL   O11844518   4.752   2.732   3.750 -0.1087 -0.1736  0.1817
  201MOL   H11944519   4.515   2.800   3.843 -1.6623 -0.8989  1.0812
  201MOL   H12044520   4.302   2.746   3.737 -0.2227 -0.6064  1.9678
  201MOL   H12144521   4.510   2.467   3.473 -0.4464  0.3676  0.3353
  201MOL   H12244522   4.714   2.581   3.531  2.2327  1.2323  2.4737
  201MOL   C12344523   4.903   2.691   4.084 -0.2073  0.2765  0.7403
  201MOL   C12444524   4.846   2.743   3.968  0.1171 -0.2869 -0.4267
  201MOL   C12544525   4.816   2.669   3.851 -0.0922  0.9649 -0.0976
  201MOL   C12644526   4.823   2.533   3.866 -0.2738  0.4529 -0.5165
  201MOL   C12744527   4.867   2.470   3.983 -0.0509 -0.3361  0.5999
  201MOL   C12844528   4.906   2.549   4.089  0.2245  0.1432  0.5278
  201MOL   O12944529   4.953   2.487   4.205 -0.1885  0.4940 -0.8312
  201MOL   H13044530   4.918   2.753   4.172  0.1592  1.5699 -0.2191
  201MOL   H13144531   4.826   2.849   3.960  1.3654  0.1080  1.3456
  201MOL   H13244532   4.789   2.470   3.785 -1.5682 -0.3027  0.5888
  201MOL   H13344533   4.867   2.363   4.001 -0.2757  0.0321  2.8874
  201MOL   C13444534   4.658   2.472   4.428 -0.2954  0.6842 -0.2883
  201MOL   C13544535   4.741   2.460   4.315 -0.0125 -0.0827  0.3019
  201MOL   C13644536   4.871   2.498   4.321 -0.0410 -0.1630 -0.8860
  201MOL   C13744537   4.919   2.562   4.436 -0.0090 -0.9369  0.3302
  201MOL   C13844538   4.842   2.576   4.544  0.5663  0.2249 -0.1300
  201MOL   C13944539   4.712   2.535   4.542  0.3751  0.3253 -0.1004
  201MOL   O14044540   4.638   2.560   4.652  0.2462 -0.0144 -0.1534
  201MOL   H14144541   4.556   2.439   4.437 -0.1634  0.6806  1.3010
  201MOL   H14244542   4.708   2.422   4.220 -0.3723  0.9397  0.0145
  201MOL   H14344543   5.020   2.600   4.441 -0.3003  0.0093 -0.7196
  201MOL   H14444544   4.887   2.640   4.618  2.3110 -0.4102 -0.6157
  201MOL   C14544545   4.507   2.908   4.624  0.8557  0.3288  0.0463
  201MOL   C14644546   4.548   2.777   4.587  0.1682  0.3768 -0.2023
  201MOL   C14744547   4.603   2.685   4.679 -0.2561 -0.2386 -0.1292
  201MOL   C14844548   4.599   2.724   4.822 -0.5521  0.2207 -0.2951
  201MOL   C14944549   4.550   2.850   4.856  1.1854  0.7697 -0.9794
  201MOL   C15044550   4.505   2.944   4.762  0.0288 -0.4181  0.5971
  201MOL   O15144551   4.463   3.066   4.787 -0.7037 -0.3657  0.0167
  201MOL   H15244552   4.478   2.978   4.547  0.5389 -0.2620 -0.3726
  201MOL   H15344553   4.544   2.743   4.485  2.8055 -0.6517  0.0098
  201MOL   H15444554   4.636   2.657   4.899 -0.0048  0.2147 -0.5612
  201MOL   H15544555   4.534   2.858   4.963 -1.3528 -2.1580 -1.0426
  201MOL   C15644556   4.581   3.393   4.658  0.1528 -0.0765 -0.8753
  201MOL   C15744557   4.493   3.286   4.686 -0.1376 -0.0412  0.0689
  201MOL   C15844558   4.544   3.173   4.761  0.2257 -0.4686  0.2970
  201MOL   C15944559   4.673   3.180   4.817  0.9483  0.5054  0.2254
  201MOL   C16044560   4.766   3.279   4.776 -0.3342 -0.2019 -0.4151
  201MOL   C16144561   4.719   3.386   4.700 -0.2475  0.0838 -0.4379
  201MOL   O16244562   4.811   3.486   4.675  0.1477  0.3892  0.7625
  201MOL   H16344563   4.543   3.472   4.595 -0.8794  1.5737  1.6950
  201MOL   H16444564   4.396   3.283   4.639 -0.5883 -1.0982  1.0459
  201MOL   H16544565   4.708   3.090   4.866  1.6158 -0.5316 -2.0860
  201MOL   H16644566   4.870   3.268   4.801 -0.3259  0.5846 -0.0800
  201MOL   C16744567   4.784   3.754   4.931  0.0517 -0.3379  0.4523
  201MOL   C16844568   4.803   3.631   4.869 -0.3334  0.5081 -0.6964
  201MOL   C16944569   4.772   3.602   4.734 -0.5819 -0.1601  0.0611
  201MOL   C17044570   4.706   3.706   4.664  0.0925  0.1231 -0.4467
  201MOL   C17144571   4.674   3.827   4.732 -0.1002  0.1388  0.2251
  201MOL   C17244572   4.711   3.850   4.865  0.4166  0.2874  0.4464
  201MOL   O17344573   4.666   3.966   4.922  0.4265 -0.5473 -0.6133
  201MOL   H17444574   4.810   3.771   5.034  1.8614  0.2292 -0.0820
  201MOL   H17544575   4.865   3.559   4.921 -0.5329 -0.4412 -1.7559
  201MOL   H17644576   4.666   3.685   4.566 -0.7371 -0.0363 -0.0822
  201MOL   H17744577   4.622   3.900   4.671  0.4828  0.0012 -0.4436
  201MOL   C17844578   4.703   4.087   5.269  1.3233  0.2254  0.4850
  201MOL   C17944579   4.642   4.033   5.153 -0.2359 -0.2217  0.2458
  201MOL   C18044580   4.725   4.022   5.038  0.5677  0.3631  0.1743
  201MOL   C18144581   4.862   4.061   5.038 -0.6249  0.2030  0.2506
  201MOL   C18244582   4.920   4.105   5.160  0.1789  0.0377 -0.7508
  201MOL   C18344583   4.838   4.126   5.272 -0.0765 -0.0634 -0.7424
  201MOL   O18444584   4.893   4.172   5.391 -0.5686  0.2396 -0.8006
  201MOL   H18544585   4.650   4.106   5.361  0.8275 -1.0928  0.4829
  201MOL   H18644586   4.542   3.994   5.155 -1.1518  1.8750 -2.0677
  201MOL   H18744587   4.927   4.062   4.952 -0.7565  1.8092  0.1602
  201MOL   H18844588   5.023   4.139   5.163  0.0550  0.3230  1.1255
  201MOL   C18944589   5.195   4.369   5.370 -0.7491 -0.7697  0.2531
  201MOL   C19044590   5.114   4.256   5.385 -0.8263 -0.2251  0.3819
  201MOL   C19144591   4.975   4.277   5.388  0.2103  0.4891  0.3329
  201MOL   C19244592   4.920   4.405   5.401 -0.0063 -0.4749 -0.1769
  201MOL   C19344593   5.006   4.518   5.384 -0.4137 -0.5612 -0.3231
  201MOL   C19444594   5.147   4.503   5.367 -0.0314  0.1645 -0.3530
  201MOL   O19544595   5.244   4.597   5.345  0.0290  0.2720 -0.5130
  201MOL   H19644596   5.301   4.348   5.369 -0.8095 -1.1887  1.5463
  201MOL   H19744597   5.160   4.159   5.397  0.6900  0.5777  1.1912
  201MOL   H19844598   4.813   4.410   5.412  0.0405  0.1867  0.0167
  201MOL   H19944599   4.965   4.618   5.389  0.2135 -0.3066 -0.2132
  201MOL   C20044600   5.525   4.756   5.506 -0.1853  0.0497  0.6264
  201MOL   C20144601   5.446   4.699   5.406 -0.1085 -1.0236 -0.8406
  201MOL   C20244602   5.322   4.645   5.445  0.2932  0.3521  0.4589
  201MOL   C20344603   5.272   4.645   5.577  0.7826  0.4246 -0.1397
  201MOL   C20444604   5.369   4.691   5.677 -0.0904  0.7697 -1.1498
  201MOL   C20544605   5.491   4.748   5.639 -0.0636 -0.7436  0.2548
  201MOL   O20644606   5.576   4.793   5.737 -0.5836 -0.1847 -0.1028
  201MOL   H20744607   5.619   4.802   5.482 -0.9114  1.6155  0.7073
  201MOL   H20844608   5.480   4.701   5.303 -0.6819 -0.0686 -1.0204
  201MOL   H20944609   5.175   4.599   5.591  0.7882  0.7808  1.1121
  201MOL   H21044610   5.338   4.686   5.780 -0.0212 -2.0582 -1.2317
  201MOL   C21144611   5.922   4.690   5.789  0.9596 -0.5019  0.3311
  201MOL   C21244612   5.810   4.757   5.736 -0.3298  0.6021  0.0363
  201MOL   C21344613   5.678   4.721   5.773  0.5808  0.6222 -0.2756
  201MOL   C21444614   5.662   4.620   5.871 -0.1344 -0.4589 -0.1280
  201MOL   C21544615   5.774   4.543   5.918  0.3421 -0.1266  0.3073
  201MOL   C21644616   5.908   4.577   5.876 -0.0118 -0.1393 -0.2501
  201MOL   O21744617   6.026   4.531   5.936  0.0749  0.1955 -0.2192
  201MOL   H21844618   6.020   4.726   5.760  1.2819 -1.2165  0.5229
  201MOL   H21944619   5.828   4.843   5.674 -0.4401  1.1935  0.8143
  201MOL   H22044620   5.563   4.599   5.908 -0.5282  0.4899 -0.6029
  201MOL   H22144621   5.755   4.472   5.997 -1.7833 -0.8513 -0.8088
  201MOL   H22244622   6.023   4.498   6.024  0.8735  0.6353 -0.0215
  202MOL     C144623   5.954   5.239   2.030  0.3216 -0.4051 -0.3374
  202MOL     C244624   5.925   5.205   1.900  0.5043 -0.1381 -0.4791
  202MOL     C344625   6.022   5.237   1.801  0.0124 -0.1509  0.1334
  202MOL     C444626   6.130   5.321   1.834  0.1404  0.7107 -0.4083
  202MOL     C544627   6.164   5.344   1.969  0.0359 -0.1169  0.4358
  202MOL     C644628   6.074   5.299   2.065 -0.1729 -0.0441  0.2778
  202MOL     O744629   6.092   5.338   2.197 -0.3858 -0.2153  0.0789
  202MOL     H844630   5.873   5.221   2.098  1.1022  2.6083  1.4969
  202MOL     H944631   5.824   5.175   1.881  0.5636 -0.1391 -0.7988
  202MOL    H1044632   6.198   5.346   1.754  0.4769 -0.6665 -0.5667
  202MOL    H1144633   6.263   5.383   1.986 -0.0461  0.8190 -1.0903
  202MOL    H1244634   6.001   5.200   1.702 -1.6792  0.4584  0.2546
  202MOL    C1344635   6.211   5.040   2.372  0.3706  0.0259 -0.4483
  202MOL    C1444636   6.125   5.137   2.317 -0.3592  0.2016 -0.0139
  202MOL    C1544637   6.179   5.253   2.258 -0.2426 -0.0570  0.3146
  202MOL    C1644638   6.318   5.271   2.260 -0.5194 -0.7648 -0.7304
  202MOL    C1744639   6.406   5.174   2.324 -0.2737  0.2779 -0.1054
  202MOL    C1844640   6.347   5.059   2.377  0.7561  0.6418 -0.7158
  202MOL    O1944641   6.421   4.964   2.443  0.4364  0.3597  0.6220
  202MOL    H2044642   6.166   4.955   2.420 -0.8122  0.5290 -0.6451
  202MOL    H2144643   6.017   5.127   2.314 -0.6102  1.8632  2.7804
  202MOL    H2244644   6.364   5.343   2.195 -0.6382  0.5194  0.5806
  202MOL    H2344645   6.513   5.184   2.317 -0.2593  1.1601  1.3830
  202MOL    C2444646   6.555   4.641   2.349  0.3887 -0.3820 -0.3544
  202MOL    C2544647   6.470   4.739   2.400 -0.0295  0.3193 -0.5519
  202MOL    C2644648   6.492   4.872   2.369 -0.6063 -0.0872  0.2567
  202MOL    C2744649   6.577   4.905   2.268  0.5906 -0.3158  0.4915
  202MOL    C2844650   6.657   4.810   2.210  0.5221  0.6966 -0.1984
  202MOL    C2944651   6.639   4.673   2.246  0.1144  0.1204  0.0627
  202MOL    O3044652   6.722   4.579   2.200 -0.2584  0.7108 -0.1536
  202MOL    H3144653   6.534   4.538   2.374  2.9525 -1.1822 -1.3545
  202MOL    H3244654   6.397   4.716   2.476 -0.4016  0.9511 -0.7168
  202MOL    H3344655   6.594   5.008   2.239 -0.7061 -0.2344 -0.0273
  202MOL    H3444656   6.724   4.841   2.131 -0.7471  0.9222 -1.1982
  202MOL    C3544657   6.840   4.519   1.849 -0.1179 -0.0291  0.4254
  202MOL    C3644658   6.832   4.568   1.983 -0.0882 -0.5520  0.7761
  202MOL    C3744659   6.714   4.549   2.065 -0.0224 -0.2709  0.0858
  202MOL    C3844660   6.603   4.478   2.004 -0.5643 -0.9331 -0.0496
  202MOL    C3944661   6.616   4.416   1.875  0.2467 -0.4258  0.1930
  202MOL    C4044662   6.733   4.436   1.795  0.3365  0.0365  0.2275
  202MOL    O4144663   6.744   4.383   1.665 -0.4326 -0.3068 -0.7698
  202MOL    H4244664   6.931   4.544   1.797  0.0422  1.2202  1.2856
  202MOL    H4344665   6.918   4.621   2.023  0.6870 -1.4769  0.3655
  202MOL    H4444666   6.516   4.468   2.067 -0.1956  0.8896  0.7891
  202MOL    H4544667   6.533   4.358   1.836 -1.5680  2.6940 -0.8132
  202MOL    C4644668   7.091   4.406   1.528  0.1682 -0.2703 -0.7472
  202MOL    C4744669   6.984   4.353   1.603  0.5653 -0.1060  0.9066
  202MOL    C4844670   6.859   4.415   1.589  0.1980 -0.4350  0.1201
  202MOL    C4944671   6.842   4.517   1.497 -0.1723 -0.1153 -0.3330
  202MOL    C5044672   6.959   4.570   1.429 -0.0547  0.0055 -0.2081
  202MOL    C5144673   7.081   4.506   1.437 -0.8093  0.1743  0.9070
  202MOL    O5244674   7.196   4.566   1.387 -0.2595 -0.2724 -0.0240
  202MOL    H5344675   7.189   4.361   1.536 -0.0372 -0.3646  1.4498
  202MOL    H5444676   6.983   4.277   1.679  3.5038 -0.3158  0.8186
  202MOL    H5544677   6.742   4.554   1.480 -1.2139 -2.4731  0.4705
  202MOL    H5644678   6.944   4.662   1.376  1.6937 -1.0060 -2.5358
  202MOL    C5744679   7.273   4.750   1.074 -0.3474 -0.0747 -0.0723
  202MOL    C5844680   7.225   4.723   1.203  0.0436 -0.3946  0.2977
  202MOL    C5944681   7.203   4.590   1.250  0.0577  0.1179  0.3852
  202MOL    C6044682   7.209   4.485   1.157  0.1376 -0.0312 -0.1878
  202MOL    C6144683   7.240   4.511   1.020 -0.7440 -0.4399  0.3715
  202MOL    C6244684   7.292   4.643   0.990  0.0743  0.1627 -0.0546
  202MOL    O6344685   7.359   4.652   0.872 -0.2836  0.1171  0.3505
  202MOL    H6444686   7.307   4.849   1.048 -0.6266  0.6570  2.1709
  202MOL    H6544687   7.214   4.802   1.276  3.0891 -1.0558  1.5484
  202MOL    H6644688   7.201   4.382   1.188  0.3369 -0.1654 -0.5786
  202MOL    H6744689   7.257   4.426   0.956 -2.5682 -1.3432  1.0517
  202MOL    C6844690   7.149   4.837   0.621  0.3374  0.3441  0.2780
  202MOL    C6944691   7.197   4.730   0.702  0.1869  0.0171 -0.4531
  202MOL    C7044692   7.314   4.747   0.779  0.9653  0.2485 -0.0332
  202MOL    C7144693   7.390   4.866   0.757  0.6047  0.2596  0.9156
  202MOL    C7244694   7.357   4.958   0.656  0.0495 -0.1716  0.8127
  202MOL    C7344695   7.231   4.953   0.595 -0.6736  0.1707 -0.3827
  202MOL    O7444696   7.187   5.053   0.513 -0.6869 -0.2296 -0.0597
  202MOL    H7544697   7.058   4.830   0.563  0.8242 -0.3091 -0.4270
  202MOL    H7644698   7.129   4.647   0.719 -0.7888  0.4250 -2.2355
  202MOL    H7744699   7.486   4.892   0.799  0.0782  1.2582  1.5323
  202MOL    H7844700   7.418   5.045   0.639 -1.4230  0.4798 -1.3634
  202MOL    C7944701   6.850   5.188   0.532 -0.9343  0.2413 -1.1297
  202MOL    C8044702   6.959   5.124   0.478 -0.5847 -0.1009  0.1478
  202MOL    C8144703   7.083   5.128   0.553 -0.2429 -0.7075 -0.2786
  202MOL    C8244704   7.090   5.207   0.670  0.5322 -0.1283 -0.8092
  202MOL    C8344705   6.983   5.285   0.716  0.4636 -0.2961  0.0938
  202MOL    C8444706   6.858   5.271   0.648 -0.2450  0.6533  0.1194
  202MOL    O8544707   6.758   5.346   0.688  0.2898 -0.3605  0.0999
  202MOL    H8644708   6.753   5.185   0.484 -1.0887  0.0003 -0.8086
  202MOL    H8744709   6.947   5.047   0.403 -0.8856 -1.8176  1.9180
  202MOL    H8844710   7.177   5.210   0.734  0.9628 -2.1884 -1.2768
  202MOL    H8944711   6.987   5.336   0.811  0.4596 -0.3420  0.1186
  202MOL    C9044712   6.583   5.634   0.538  0.2412 -0.2380  0.0260
  202MOL    C9144713   6.606   5.505   0.587  0.3277 -0.3559 -0.5645
  202MOL    C9244714   6.735   5.464   0.620  0.0614 -0.2036  0.2665
  202MOL    C9344715   6.839   5.549   0.575  0.3526 -0.5113  0.4668
  202MOL    C9444716   6.812   5.675   0.516  0.2248 -0.3343  0.2220
  202MOL    C9544717   6.681   5.725   0.503 -0.5059  0.1184 -0.2991
  202MOL    O9644718   6.664   5.857   0.468  0.0010  0.4283  0.5484
  202MOL    H9744719   6.483   5.675   0.535  0.2643 -0.0398  1.5722
  202MOL    H9844720   6.521   5.441   0.605  0.6605 -0.5686  0.2370
  202MOL    H9944721   6.941   5.515   0.580  0.6969 -0.0445 -2.3337
  202MOL   H10044722   6.895   5.742   0.499  1.4570 -1.6660  0.9432
  202MOL   C10144723   6.343   5.913   0.294 -0.0710 -0.3199 -0.2297
  202MOL   C10244724   6.478   5.879   0.325 -0.0995  0.3064 -0.5690
  202MOL   C10344725   6.539   5.911   0.447 -0.6941 -0.0343 -0.0583
  202MOL   C10444726   6.460   5.984   0.538  0.0332 -0.1984 -0.3075
  202MOL   C10544727   6.328   6.030   0.516 -0.5561  0.4183 -0.3209
  202MOL   C10644728   6.268   5.988   0.392 -0.1285 -0.1305 -0.8613
  202MOL   O10744729   6.134   6.029   0.362 -0.2793 -0.0065  0.8578
  202MOL   H10844730   6.300   5.872   0.204 -0.5900 -0.7819  0.2230
  202MOL   H10944731   6.521   5.818   0.247  0.8116 -0.2950  0.3957
  202MOL   H11044732   6.521   6.021   0.620  1.8385 -1.4342 -1.0564
  202MOL   H11144733   6.279   6.094   0.587 -2.6094 -2.0218  0.5235
  202MOL   C11244734   6.183   6.333   0.148  0.3659 -1.5322  0.5527
  202MOL   C11344735   6.181   6.195   0.184  0.0346  0.1266 -0.3717
  202MOL   C11444736   6.130   6.157   0.315 -0.1481 -0.1755 -0.0154
  202MOL   C11544737   6.079   6.263   0.402  0.3664 -0.2971  0.2415
  202MOL   C11644738   6.079   6.393   0.358  1.2701 -0.2713  0.1134
  202MOL   C11744739   6.121   6.431   0.232  0.5659 -0.3889 -0.3778
  202MOL   O11844740   6.118   6.563   0.202  0.0439  0.0628  0.4487
  202MOL   H11944741   6.228   6.367   0.055 -0.8087 -0.9647  0.1883
  202MOL   H12044742   6.207   6.118   0.113 -1.6174 -0.2574 -0.5702
  202MOL   H12144743   6.029   6.230   0.492 -0.2358  0.0117  0.0162
  202MOL   H12244744   6.033   6.468   0.421  0.7888  0.0636 -0.6323
  202MOL   C12344745   5.986   6.818   8.226  0.4096 -0.4076 -1.3523
  202MOL   C12444746   6.068   6.744   0.057 -0.0858  0.8738 -0.1570
  202MOL   C12544747   6.033   6.620   0.106 -0.0089 -0.5204  0.4893
  202MOL   C12644748   5.909   6.569   0.060 -0.1829  0.4499  0.3050
  202MOL   C12744749   5.817   6.638   8.230  0.4269 -0.2280  0.3285
  202MOL   C12844750   5.860   6.765   8.181 -0.1646 -0.4548 -1.0295
  202MOL   O12944751   5.773   6.836   8.106 -0.2069  0.1335 -0.5549
  202MOL   H13044752   6.024   6.905   8.175  0.5263  0.8883  0.9083
  202MOL   H13144753   6.164   6.783   0.087  0.1931 -0.9033  1.3411
  202MOL   H13244754   5.877   6.472   0.094  1.2167  1.1336  3.8620
  202MOL   H13344755   5.724   6.601   8.191  0.7960 -0.3395 -0.4620
  202MOL   C13444756   5.545   7.009   0.093  0.5924  0.1430  0.9872
  202MOL   C13544757   5.659   6.934   0.048 -0.5076 -0.0494  0.3481
  202MOL   C13644758   5.662   6.895   8.166  0.3310 -0.3474 -0.0265
  202MOL   C13744759   5.550   6.916   8.085 -0.1493 -0.2748  0.5438
  202MOL   C13844760   5.436   6.977   8.138  0.3411  0.1869 -0.6844
  202MOL   C13944761   5.432   7.028   0.012 -0.2557  0.4736  0.0539
  202MOL   O14044762   5.331   7.093   0.066 -0.4591 -0.1947 -0.8612
  202MOL   H14144763   5.528   7.047   0.192  1.6369  2.7882  0.1842
  202MOL   H14244764   5.744   6.921   0.114  0.3348 -0.1474 -0.7381
  202MOL   H14344765   5.550   6.896   7.979 -0.7113 -1.5569  0.7788
  202MOL   H14444766   5.345   6.985   8.079 -1.0421 -0.0786  1.3702
  202MOL   C14544767   5.449   7.449   0.023 -0.1067  0.2094  0.4514
  202MOL   C14644768   5.447   7.311   0.055 -0.7730  0.5674  0.4420
  202MOL   C14744769   5.336   7.223   0.032 -0.4507  0.1688  0.0433
  202MOL   C14844770   5.231   7.283   8.215 -0.3979  0.5420  0.1099
  202MOL   C14944771   5.236   7.421   8.178 -0.2324  0.0951  0.6614
  202MOL   C15044772   5.342   7.503   8.203 -1.1718 -0.5406  0.1350
  202MOL   O15144773   5.337   7.632   8.173 -0.0459 -0.4086 -0.6448
  202MOL   H15244774   5.532   7.512   0.051  0.6819 -0.1890 -0.9700
  202MOL   H15344775   5.527   7.266   0.111 -0.0806 -0.3268 -1.2324
  202MOL   H15444776   5.148   7.217   8.197 -2.0102  1.7904  2.5846
  202MOL   H15544777   5.148   7.460   8.129  0.8995 -0.0160 -1.5324
  202MOL   C15644778   5.453   7.681   7.822 -0.0606 -0.8220  0.3795
  202MOL   C15744779   5.465   7.649   7.961  0.0098 -0.5079  0.3913
  202MOL   C15844780   5.349   7.670   8.040 -0.5958  0.1254 -0.3712
  202MOL   C15944781   5.233   7.727   7.985 -0.4101 -0.1327  0.1858
  202MOL   C16044782   5.228   7.764   7.850 -0.2948  0.1547  0.2782
  202MOL   C16144783   5.342   7.748   7.762  0.0498  0.9807 -1.0303
  202MOL   O16244784   5.334   7.779   7.629  0.4294 -0.2589 -0.3459
  202MOL   H16344785   5.544   7.653   7.771  0.4607 -3.1299  2.4504
  202MOL   H16444786   5.559   7.614   8.001  0.1865  1.0231  1.3503
  202MOL   H16544787   5.145   7.738   8.046 -0.1353  0.6862  0.4469
  202MOL   H16644788   5.134   7.807   7.816 -0.1469  0.8381  0.7098
  202MOL   C16744789   5.647   7.811   7.432  0.0778  0.1857 -0.0572
  202MOL   C16844790   5.528   7.757   7.490  0.3045  0.1030  0.0322
  202MOL   C16944791   5.447   7.833   7.583 -0.1642  0.3016  1.1893
  202MOL   C17044792   5.478   7.969   7.603  0.1707 -0.0906 -0.6338
  202MOL   C17144793   5.590   8.023   7.540 -0.1639 -0.7171 -0.0426
  202MOL   C17244794   5.678   7.950   7.456 -0.5937  0.6006 -0.4497
  202MOL   O17344795   5.794   8.009   7.410 -0.3409  0.4205  0.4404
  202MOL   H17444796   5.724   7.749   7.390 -0.0477 -1.1063  1.5898
  202MOL   H17544797   5.488   7.660   7.465  0.3305 -0.0146  0.4568
  202MOL   H17644798   5.411   8.027   7.663 -0.0436 -0.8349 -0.1464
  202MOL   H17744799   5.607   8.129   7.556  1.0993 -0.8983 -0.1039
  202MOL   C17844800   5.893   0.108   7.344 -0.5497 -0.7376  0.6274
  202MOL   C17944801   5.902   8.226   7.387  0.3415 -0.4132  0.0618
  202MOL   C18044802   5.795   8.137   7.357 -0.1825 -0.4430  0.1491
  202MOL   C18144803   5.690   8.185   7.275 -0.3807 -0.4387 -0.4048
  202MOL   C18244804   5.683   0.062   7.219  0.2911  0.3725 -0.6777
  202MOL   C18344805   5.783   0.151   7.261 -0.6669 -0.4027  0.0274
  202MOL   O18444806   5.773   0.280   7.224 -0.2386 -0.0267 -0.0016
  202MOL   H18544807   5.975   0.170   7.377 -1.5120  0.2663  1.1382
  202MOL   H18644808   5.986   8.182   7.441  1.0452  1.6865  0.7387
  202MOL   H18744809   5.614   8.111   7.257 -0.5051 -0.9230  1.8907
  202MOL   H18844810   5.599   0.103   7.164  0.2415 -0.0769 -0.9428
  202MOL   C18944811   5.699   0.594   7.381  0.1923 -0.6522  0.7363
  202MOL   C19044812   5.747   0.495   7.296 -0.2062  0.5218  0.3053
  202MOL   C19144813   5.721   0.362   7.319  0.9749 -0.1350 -0.2859
  202MOL   C19244814   5.630   0.327   7.420 -0.3174  0.2662 -0.3402
  202MOL   C19344815   5.568   0.426   7.507 -0.4558 -0.3628 -0.2101
  202MOL   C19444816   5.603   0.564   7.485 -0.3036 -0.8350 -0.2138
  202MOL   O19544817   5.561   0.664   7.567  0.6121  0.3398 -0.2126
  202MOL   H19644818   5.753   0.687   7.370  2.4119 -1.6782  2.5880
  202MOL   H19744819   5.810   0.508   7.209  2.3028 -2.4634  1.5930
  202MOL   H19844820   5.598   0.225   7.432 -1.5294  0.5252 -1.3359
  202MOL   H19944821   5.496   0.402   7.583  0.9207 -0.0196  1.2231
  202MOL   C20044822   5.845   0.878   7.677 -0.0781  0.7281 -0.1288
  202MOL   C20144823   5.757   0.764   7.657 -0.2646  0.6215 -0.2358
  202MOL   C20244824   5.637   0.775   7.588  0.2057  0.0788  0.1303
  202MOL   C20344825   5.598   0.899   7.537  0.3501 -0.5098  0.2784
  202MOL   C20444826   5.687   1.006   7.551  0.0950 -0.0906  0.2677
  202MOL   C20544827   5.807   0.994   7.617  0.6547  0.0365 -0.6627
  202MOL   O20644828   5.894   1.100   7.615 -0.6996  0.5766 -0.4605
  202MOL   H20744829   5.945   0.872   7.717  0.0788  0.2649 -0.5874
  202MOL   H20844830   5.797   0.671   7.695  0.0931  0.2785 -1.4167
  202MOL   H20944831   5.512   0.922   7.475 -1.1570 -1.9124  1.7985
  202MOL   H21044832   5.668   1.102   7.504  0.2479  0.6888  1.7674
  202MOL   C21144833   6.112   1.234   7.877  0.3158 -0.2640  0.0227
  202MOL   C21244834   6.063   1.161   7.769  0.2968  0.3390  0.1915
  202MOL   C21344835   5.927   1.163   7.729  0.5705 -0.2088 -0.4760
  202MOL   C21444836   5.834   1.233   7.805 -0.5233  0.2177 -0.0685
  202MOL   C21544837   5.880   1.296   7.920  0.0592 -0.0364 -0.0570
  202MOL   C21644838   6.019   1.303   7.951 -0.7712 -0.1007  1.4522
  202MOL   O21744839   6.053   1.372   8.063  0.1624 -0.3142 -0.0145
  202MOL   H21844840   6.212   1.225   7.919  0.0930 -1.5565  0.2891
  202MOL   H21944841   6.136   1.105   7.713  0.5015 -1.0166  1.7885
  202MOL   H22044842   5.732   1.241   7.771 -1.7170 -0.2834  3.1921
  202MOL   H22144843   5.806   1.343   7.983  0.8286 -1.7169  2.1759
  202MOL   H22244844   5.981   1.423   8.099  0.0823 -0.3180 -0.1673
  203MOL     C144845   5.386   0.035   5.567 -0.1106  0.8079 -0.0600
  203MOL     C244846   5.297   8.183   5.530 -0.4449  0.2769 -0.3585
  203MOL     C344847   5.244   8.176   5.400  0.1152 -0.2980 -0.3339
  203MOL     C444848   5.261   0.036   5.320 -0.6308 -0.4992  0.3544
  203MOL     C544849   5.358   0.136   5.346 -0.1787 -0.3789  0.5413
  203MOL     C644850   5.416   0.140   5.473  0.5509 -0.1886 -0.2703
  203MOL     O744851   5.499   0.246   5.501  0.3486 -0.2026  0.0914
  203MOL     H844852   5.420   0.039   5.669 -0.9618 -0.8515  0.3165
  203MOL     H944853   5.276   8.106   5.602 -0.0914 -2.1709 -2.8054
  203MOL    H1044854   5.207   0.048   5.227  0.0614  1.2176  0.1771
  203MOL    H1144855   5.379   0.215   5.275  2.7393  0.0266  1.7734
  203MOL    H1244856   5.193   8.087   5.368  0.3016  0.2262 -2.1356
  203MOL    C1344857   5.835   0.103   5.536 -0.5586  0.4905  0.4231
  203MOL    C1444858   5.706   0.128   5.487  0.7239  0.4524 -0.1591
  203MOL    C1544859   5.626   0.225   5.542  0.6528  0.1543 -0.1730
  203MOL    C1644860   5.677   0.307   5.642  0.5391 -0.8896  0.0229
  203MOL    C1744861   5.805   0.294   5.681 -0.7564 -0.2410  0.0216
  203MOL    C1844862   5.887   0.180   5.639  0.1288 -0.0557  0.2716
  203MOL    O1944863   6.013   0.155   5.686  0.1360 -0.1218 -0.7236
  203MOL    H2044864   5.902   0.029   5.494  1.8359  0.3334  4.2660
  203MOL    H2144865   5.660   0.062   5.415 -0.2689  2.2459 -1.2276
  203MOL    H2244866   5.608   0.379   5.685  0.0379 -0.2584 -1.8069
  203MOL    H2344867   5.844   0.361   5.756 -0.2189 -0.9241  0.3633
  203MOL    C2444868   6.053   0.205   6.046 -0.0292  0.0370  0.9348
  203MOL    C2544869   6.011   0.165   5.926  0.0425  0.0711 -0.1140
  203MOL    C2644870   6.064   0.214   5.804 -0.4900  0.8100 -0.2790
  203MOL    C2744871   6.175   0.301   5.805  0.6323  0.4630  1.1065
  203MOL    C2844872   6.214   0.355   5.931 -0.5428 -0.4429 -0.0933
  203MOL    C2944873   6.163   0.294   6.051 -0.4074 -0.2116 -0.7560
  203MOL    O3044874   6.222   0.324   6.172  0.1488  0.4614 -0.2514
  203MOL    H3144875   6.025   0.153   6.136 -3.3491 -3.3291 -1.9259
  203MOL    H3244876   5.941   0.083   5.918  0.3645 -0.4077  1.6840
  203MOL    H3344877   6.216   0.348   5.717 -3.3807  0.7982 -0.6456
  203MOL    H3444878   6.289   0.433   5.931 -0.9634 -0.0306 -0.7155
  203MOL    C3544879   6.057   0.636   6.285  0.5145 -0.5548  0.0300
  203MOL    C3644880   6.074   0.513   6.217  0.2690 -0.0615  0.2841
  203MOL    C3744881   6.202   0.450   6.227 -0.1531  0.0229  0.1470
  203MOL    C3844882   6.309   0.519   6.292  0.4727  0.1491 -0.2547
  203MOL    C3944883   6.292   0.644   6.351 -0.3332 -0.0891 -0.5191
  203MOL    C4044884   6.167   0.704   6.345 -0.5250  1.0615  0.6386
  203MOL    O4144885   6.159   0.836   6.390  0.2876 -0.3984  0.0933
  203MOL    H4244886   5.963   0.687   6.300  0.5286 -1.0373  1.8703
  203MOL    H4344887   5.990   0.465   6.170  0.8269 -0.6005 -0.1656
  203MOL    H4444888   6.406   0.471   6.285  0.7113  0.4292  1.0637
  203MOL    H4544889   6.378   0.690   6.396 -0.0790  0.7697 -1.8343
  203MOL    C4644890   6.331   1.094   6.191 -0.0466 -0.2649 -0.3857
  203MOL    C4744891   6.307   0.991   6.285  0.4952  0.2301  0.3133
  203MOL    C4844892   6.182   0.931   6.301  0.2010 -0.7154  0.3405
  203MOL    C4944893   6.073   0.998   6.240  0.6320 -0.2879  0.5016
  203MOL    C5044894   6.092   1.096   6.142 -0.4316  0.4242 -0.3554
  203MOL    C5144895   6.223   1.138   6.110  0.2453 -0.0006 -0.4717
  203MOL    O5244896   6.239   1.221   6.000 -0.9636  0.0118 -0.2059
  203MOL    H5344897   6.433   1.128   6.177 -0.0949  0.5156  1.0865
  203MOL    H5444898   6.384   0.944   6.344  0.7519 -1.0547 -1.0009
  203MOL    H5544899   5.974   0.955   6.241  0.0566  0.8303 -2.4827
  203MOL    H5644900   6.006   1.137   6.090 -2.1040 -0.3243  1.7580
  203MOL    C5744901   6.443   1.119   5.708  0.4094  1.0325  0.0242
  203MOL    C5844902   6.400   1.176   5.825 -0.7763  0.1910  0.2526
  203MOL    C5944903   6.275   1.156   5.877  0.1504 -0.6113 -0.2458
  203MOL    C6044904   6.189   1.066   5.808  0.1487 -0.3788 -0.3758
  203MOL    C6144905   6.227   1.007   5.685  0.2851  0.1070  0.1287
  203MOL    C6244906   6.355   1.038   5.629 -0.3653  0.0899  0.6312
  203MOL    O6344907   6.391   0.984   5.509 -0.5661 -0.3688  0.2364
  203MOL    H6444908   6.550   1.120   5.689  0.3966 -2.4976 -0.6170
  203MOL    H6544909   6.470   1.240   5.876 -1.1801  0.9343 -0.1054
  203MOL    H6644910   6.095   1.046   5.858  0.0889  0.3218 -0.2047
  203MOL    H6744911   6.160   0.954   5.618 -1.2279  2.4371 -0.2685
  203MOL    C6844912   6.705   1.056   5.346  0.2929 -0.3856  0.2559
  203MOL    C6944913   6.617   1.007   5.445 -0.7108  0.2841  0.3103
  203MOL    C7044914   6.483   1.041   5.433 -0.4499  0.0884 -0.2946
  203MOL    C7144915   6.435   1.116   5.324 -0.7339  0.4958  0.7715
  203MOL    C7244916   6.517   1.173   5.234 -0.6492  0.2667  0.1678
  203MOL    C7344917   6.657   1.141   5.243 -0.0467 -0.3614 -0.1026
  203MOL    O7444918   6.752   1.181   5.146 -0.0490  0.3019 -0.4875
  203MOL    H7544919   6.811   1.038   5.356  0.8302  1.8755 -0.9274
  203MOL    H7644920   6.655   0.957   5.533 -0.0832  1.2499  0.5909
  203MOL    H7744921   6.329   1.135   5.315 -0.4318  1.2201 -1.5679
  203MOL    H7844922   6.486   1.235   5.152 -0.7658 -1.2153 -0.9139
  203MOL    C7944923   6.654   1.171   4.796  1.4291 -0.1405  0.3953
  203MOL    C8044924   6.685   1.121   4.925  1.3040  0.2446 -0.1974
  203MOL    C8144925   6.710   1.220   5.024  0.6911 -0.1655 -0.4232
  203MOL    C8244926   6.680   1.353   5.004 -1.4585  0.4057 -0.5353
  203MOL    C8344927   6.630   1.396   4.878 -0.2431 -0.6271 -0.6961
  203MOL    C8444928   6.622   1.306   4.773  0.2776 -0.7182 -0.5743
  203MOL    O8544929   6.567   1.348   4.657  0.6603  0.1897 -0.1006
  203MOL    H8644930   6.643   1.106   4.710 -0.2969  2.5092 -1.4820
  203MOL    H8744931   6.706   1.019   4.955 -0.6386  0.1600  0.9556
  203MOL    H8844932   6.701   1.420   5.086 -0.0227  2.1291 -2.2714
  203MOL    H8944933   6.599   1.499   4.874  1.0253 -0.2077 -0.2632
  203MOL    C9044934   6.766   1.335   4.348 -0.0766 -0.3664 -0.4693
  203MOL    C9144935   6.676   1.301   4.451 -0.1012 -0.6544  0.5615
  203MOL    C9244936   6.662   1.384   4.565  0.2951 -0.3616  0.0080
  203MOL    C9344937   6.735   1.506   4.571  0.3190 -0.2618  0.1979
  203MOL    C9444938   6.818   1.544   4.464  0.0911 -0.9832  0.7078
  203MOL    C9544939   6.836   1.461   4.348 -0.1366 -0.3787  0.2159
  203MOL    O9644940   6.912   1.498   4.243 -0.6245 -0.3226 -0.3451
  203MOL    H9744941   6.774   1.269   4.263 -0.9299 -0.0667 -0.7834
  203MOL    H9844942   6.618   1.210   4.451  0.5140 -1.0520  0.0775
  203MOL    H9944943   6.716   1.564   4.660 -3.1321  0.2692 -0.7893
  203MOL   H10044944   6.862   1.642   4.474  0.3157 -0.8220 -1.6407
  203MOL   C10144945   7.246   1.640   4.329 -0.6005  0.5629  0.1499
  203MOL   C10244946   7.140   1.546   4.315 -0.5775 -0.2468 -0.5148
  203MOL   C10344947   7.016   1.590   4.263  0.0013 -0.0739  0.3717
  203MOL   C10444948   7.013   1.720   4.211  0.2218 -0.2291 -0.3596
  203MOL   C10544949   7.114   1.810   4.223  0.2670 -0.0125 -0.1348
  203MOL   C10644950   7.238   1.777   4.291  0.0629  0.3157  0.2333
  203MOL   O10744951   7.337   1.871   4.304  0.0682 -0.5480 -0.1191
  203MOL   H10844952   7.339   1.596   4.361 -0.2010  1.8420  0.7604
  203MOL   H10944953   7.154   1.441   4.336 -0.2476 -0.2578 -0.7847
  203MOL   H11044954   6.926   1.762   4.163  1.9334  2.2882 -1.4250
  203MOL   H11144955   7.109   1.915   4.195 -2.6791 -0.3410 -0.9715
  203MOL   C11244956   7.689   1.733   4.333 -0.1418  0.1357 -0.0444
  203MOL   C11344957   7.552   1.773   4.364 -0.0951  1.0997  0.3571
  203MOL   C11444958   7.464   1.832   4.267 -0.4428  1.0608  0.4346
  203MOL   C11544959   7.523   1.855   4.141 -0.1801 -1.0031  0.2896
  203MOL   C11644960   7.653   1.812   4.104  0.2146 -0.0618  0.4796
  203MOL   C11744961   7.741   1.759   4.202 -0.2212  0.1470 -0.2671
  203MOL   O11844962   7.866   1.710   4.164 -0.5006  0.2204  0.2907
  203MOL   H11944963   7.745   1.677   4.407  1.5741  2.0561  0.1373
  203MOL   H12044964   7.508   1.754   4.460  0.1888 -0.6252  0.1631
  203MOL   H12144965   7.460   1.901   4.066  1.4200  1.9836  0.7043
  203MOL   H12244966   7.676   1.830   4.000 -0.7890 -0.8636  0.1043
  203MOL   C12344967   7.909   1.606   3.815  0.2099  0.2996  0.5365
  203MOL   C12444968   7.910   1.680   3.935 -0.1648  0.1191  0.3212
  203MOL   C12544969   7.875   1.623   4.061  0.2759 -1.0489  0.2117
  203MOL   C12644970   7.838   1.488   4.076 -0.0680  0.2051 -0.1424
  203MOL   C12744971   7.836   1.414   3.955 -0.6224 -0.0502 -0.9118
  203MOL   C12844972   7.869   1.469   3.830 -0.4332 -0.2067  0.4505
  203MOL   O12944973   7.861   1.390   3.719  0.2910 -0.0178  0.2907
  203MOL   H13044974   7.950   1.635   3.719  0.3801 -2.4281 -0.2526
  203MOL   H13144975   7.938   1.784   3.929 -0.1473  0.0381 -1.1720
  203MOL   H13244976   7.798   1.451   4.169 -1.1997  1.8070  0.0259
  203MOL   H13344977   7.815   1.308   3.967  1.2578 -0.4017 -0.5436
  203MOL   C13444978   7.533   1.421   3.550  0.2262  0.1395 -0.0159
  203MOL   C13544979   7.634   1.372   3.636 -0.0076 -0.4350  0.3350
  203MOL   C13644980   7.769   1.430   3.623  0.0381  1.2210 -0.4513
  203MOL   C13744981   7.797   1.524   3.519 -0.3299  0.1287 -1.1503
  203MOL   C13844982   7.695   1.572   3.436  0.1568  0.6976  0.6917
  203MOL   C13944983   7.567   1.514   3.444 -0.3562 -0.3423  0.6647
  203MOL   O14044984   7.473   1.573   3.359  0.2795  0.0226  0.0375
  203MOL   H14144985   7.431   1.385   3.555  0.6843 -1.1115  0.4184
  203MOL   H14244986   7.598   1.309   3.716 -0.4181 -1.1682 -0.4174
  203MOL   H14344987   7.896   1.566   3.516 -0.2801  0.1217 -0.0498
  203MOL   H14444988   7.709   1.650   3.363 -2.3810  0.4221 -0.1306
  203MOL   C14544989   7.419   1.288   3.122  0.7394 -0.6376  0.2761
  203MOL   C14644990   7.471   1.363   3.225 -0.5289 -0.2152 -0.0967
  203MOL   C14744991   7.432   1.497   3.250  0.3385 -0.9255  0.2175
  203MOL   C14844992   7.347   1.559   3.158 -0.0042  0.4581 -0.5687
  203MOL   C14944993   7.299   1.483   3.050 -0.1401  0.5341 -0.0189
  203MOL   C15044994   7.326   1.349   3.035 -0.0298 -0.1305  0.2759
  203MOL   O15144995   7.267   1.292   2.921 -0.4386 -0.2932  0.2798
  203MOL   H15244996   7.450   1.186   3.105  1.9873 -0.1208 -0.6143
  203MOL   H15344997   7.547   1.318   3.287 -0.9340 -1.8301 -0.7456
  203MOL   H15444998   7.315   1.660   3.176  0.2835  0.9291 -2.5079
  203MOL   H15544999   7.226   1.532   2.988 -1.5482  0.1559  1.3114
  203MOL   C15645000   7.431   1.119   2.630 -0.2851 -0.4149  0.5259
  203MOL   C15745001   7.341   1.151   2.741 -0.0367 -0.2545 -0.6717
  203MOL   C15845002   7.350   1.270   2.814  0.3086  0.3276  0.2452
  203MOL   C15945003   7.447   1.366   2.776  0.1865  0.0057 -0.4265
  203MOL   C16045004   7.532   1.333   2.668  0.8028 -0.3733 -0.0064
  203MOL   C16145005   7.525   1.211   2.597  0.2311  0.2090  0.0446
  203MOL   O16245006   7.599   1.193   2.483 -0.1433 -0.2287 -0.4931
  203MOL   H16345007   7.415   1.026   2.579 -0.6039  1.7350 -3.4671
  203MOL   H16445008   7.265   1.083   2.775 -0.1476 -0.8670 -2.1147
  203MOL   H16545009   7.451   1.468   2.810 -0.7452 -0.4096  1.0108
  203MOL   H16645010   7.600   1.406   2.626  0.0772  0.5205  0.3646
  203MOL   C16745011   7.960   1.173   2.381  0.7644 -0.6842  0.0339
  203MOL   C16845012   7.821   1.206   2.384  0.4678  0.4745 -0.2641
  203MOL   C16945013   7.735   1.164   2.487 -0.6086  0.7271 -0.0032
  203MOL   C17045014   7.787   1.076   2.584  0.3017 -0.0055 -0.0994
  203MOL   C17145015   7.919   1.031   2.578 -0.4289  0.3731 -0.6687
  203MOL   C17245016   8.008   1.079   2.478 -0.0321  0.1546 -0.6392
  203MOL   O17345017   8.138   1.038   2.455 -0.1055  0.1628  0.6255
  203MOL   H17445018   8.010   1.227   2.302  0.6497  1.8137  1.6397
  203MOL   H17545019   7.782   1.281   2.316 -1.1871 -0.3040 -0.1928
  203MOL   H17645020   7.723   1.039   2.663 -0.0683  0.8732  0.0199
  203MOL   H17745021   7.959   0.969   2.656 -1.3975 -0.5196 -0.8736
  203MOL   C17845022   0.080   1.247   2.699 -0.5898  0.0381  1.1529
  203MOL   C17945023   8.228   1.174   2.642 -0.5504 -0.3027 -0.2983
  203MOL   C18045024   8.237   1.118   2.510 -0.1050  0.3839 -0.2574
  203MOL   C18145025   0.100   1.123   2.441  0.2351 -0.4541  0.2674
  203MOL   C18245026   0.206   1.186   2.500 -0.7749 -0.8932 -0.6440
  203MOL   C18345027   0.201   1.251   2.625  0.0908 -0.5644  0.5863
  203MOL   O18445028   0.314   1.299   2.686  0.6602  0.0304 -0.4696
  203MOL   H18545029   0.071   1.296   2.795  0.4655 -0.4561  1.4975
  203MOL   H18645030   8.130   1.173   2.685 -0.8324  2.6664 -0.7536
  203MOL   H18745031   0.123   1.079   2.345  0.1342  0.2954 -0.1017
  203MOL   H18845032   0.305   1.201   2.458 -0.6445 -3.0847 -1.1557
  203MOL   C18945033   0.449   1.624   2.789  0.6437 -0.7338 -0.0030
  203MOL   C19045034   0.413   1.489   2.792 -0.8661 -0.3744  0.7815
  203MOL   C19145035   0.348   1.431   2.681  0.8400  0.3488  0.0761
  203MOL   C19245036   0.314   1.505   2.568  0.5312  0.1305  0.1733
  203MOL   C19345037   0.341   1.646   2.572 -0.4758  0.3135 -0.5514
  203MOL   C19445038   0.413   1.708   2.683 -0.4087  0.1052 -0.2951
  203MOL   O19545039   0.441   1.844   2.672 -0.5054  0.6177 -0.3404
  203MOL   H19645040   0.494   1.662   2.880 -1.2497  0.2777  0.5358
  203MOL   H19745041   0.446   1.432   2.878  0.4135  0.8057  1.0997
  203MOL   H19845042   0.276   1.456   2.480  2.4038  1.0753 -1.1948
  203MOL   H19945043   0.316   1.698   2.481  1.8927  0.4745 -1.1585
  203MOL   C20045044   0.216   2.034   2.887 -0.3207 -0.1096  0.5502
  203MOL   C20145045   0.254   1.949   2.779 -0.0971 -0.0360 -0.1097
  203MOL   C20245046   0.395   1.925   2.771 -0.2443  0.4652  0.6411
  203MOL   C20345047   0.485   1.975   2.863  0.0090 -0.1279 -0.0754
  203MOL   C20445048   0.446   2.050   2.974  0.3165  0.5729  0.6373
  203MOL   C20545049   0.309   2.078   2.987  0.5293 -0.1140  0.1413
  203MOL   O20645050   0.267   2.137   3.104  0.2154  0.2756 -0.5960
  203MOL   H20745051   0.112   2.061   2.891 -0.1329  0.5884  0.7999
  203MOL   H20845052   0.184   1.911   2.706 -1.8073 -1.1426  2.0363
  203MOL   H20945053   0.589   1.945   2.861 -0.0092 -0.2868  0.9913
  203MOL   H21045054   0.523   2.081   3.043  0.1375 -0.3231  1.2454
  203MOL   C21145055   8.179   2.164   3.229 -0.5570  0.9307  0.3131
  203MOL   C21245056   0.051   2.117   3.214 -0.1114 -0.0909 -0.4679
  203MOL   C21345057   0.142   2.180   3.127  0.0830 -0.9933 -0.5124
  203MOL   C21445058   0.103   2.306   3.073 -0.0553  0.2647  0.1720
  203MOL   C21545059   8.227   2.352   3.097 -0.5165 -0.1871  0.6750
  203MOL   C21645060   8.132   2.280   3.167 -0.3037  0.8149  1.5471
  203MOL   O21745061   8.008   2.335   3.190 -0.0360 -0.2202  0.3222
  203MOL   H21845062   8.106   2.108   3.285 -0.4611 -0.2844 -0.7460
  203MOL   H21945063   0.072   2.027   3.268 -1.3396 -0.0275  0.1258
  203MOL   H22045064   0.171   2.367   3.015 -0.5368 -0.0962 -0.7762
  203MOL   H22145065   8.201   2.446   3.052  2.9955  0.4275 -0.1967
  203MOL   H22245066   7.987   2.412   3.139  0.2859 -1.7617 -2.2801
  204MOL     C145067   7.773   3.425   8.051 -0.2343  0.0834 -0.0936
  204MOL     C245068   7.773   3.489   8.177 -0.1421 -0.3424 -0.3123
  204MOL     C345069   7.766   3.629   8.184  0.6899 -0.4474  0.1159
  204MOL     C445070   7.758   3.704   8.062 -0.4583  0.0847 -0.8284
  204MOL     C545071   7.737   3.642   7.941  0.1463 -0.5964 -0.3357
  204MOL     C645072   7.746   3.501   7.932 -0.1622  0.3683 -0.3766
  204MOL     O745073   7.743   3.439   7.811 -0.8066  0.0352 -0.0352
  204MOL     H845074   7.793   3.320   8.041 -0.6950 -0.0421  0.2799
  204MOL     H945075   7.786   3.438   0.017  1.3731 -0.8419 -0.7676
  204MOL    H1045076   7.769   3.812   8.058 -0.1467  0.2235  2.1994
  204MOL    H1145077   7.734   3.697   7.849 -3.2592 -1.5488 -0.8384
  204MOL    H1245078   7.776   3.679   0.025 -2.0410 -0.1044  0.2612
  204MOL    C1345079   7.756   3.069   7.787  0.0023  0.2859  0.7920
  204MOL    C1445080   7.796   3.208   7.789  0.1106 -0.2142  0.2818
  204MOL    C1545081   7.698   3.308   7.804  0.0240 -0.2407  0.2434
  204MOL    C1645082   7.563   3.278   7.808  0.6745  0.1506 -0.4986
  204MOL    C1745083   7.527   3.143   7.818  0.0605  0.3040 -0.2509
  204MOL    C1845084   7.620   3.035   7.798  0.1799  0.1105 -0.1912
  204MOL    O1945085   7.570   2.905   7.795  0.3310 -0.2683  0.6110
  204MOL    H2045086   7.832   2.994   7.768  0.3076  0.0968  2.6597
  204MOL    H2145087   7.900   3.235   7.790 -0.4129  1.9552  2.5599
  204MOL    H2245088   7.492   3.359   7.816 -0.6755 -1.0269 -0.3408
  204MOL    H2345089   7.423   3.116   7.824  0.0779  0.3914  0.4765
  204MOL    C2445090   7.680   2.738   7.476  0.1899 -0.4286 -0.1825
  204MOL    C2545091   7.634   2.842   7.563  0.4332  0.7058  0.0237
  204MOL    C2645092   7.622   2.814   7.702  0.9427  0.1279  0.1609
  204MOL    C2745093   7.659   2.683   7.748 -0.3401 -0.9242 -0.4489
  204MOL    C2845094   7.708   2.581   7.664 -0.3041 -0.2044  0.2100
  204MOL    C2945095   7.714   2.608   7.523  0.3461  0.0161  0.5101
  204MOL    O3045096   7.765   2.514   7.439 -0.8628  0.1576 -0.4865
  204MOL    H3145097   7.682   2.760   7.370  2.3076  3.0408  0.5213
  204MOL    H3245098   7.593   2.936   7.529  0.4898  0.7360  0.0397
  204MOL    H3345099   7.651   2.662   7.854 -0.1394  0.1987 -0.2089
  204MOL    H3445100   7.739   2.483   7.698  0.8757 -0.2232 -0.8611
  204MOL    C3545101   8.129   2.502   7.462  0.2807 -0.0194 -0.2101
  204MOL    C3645102   7.994   2.508   7.494  0.7462 -0.0755  0.4642
  204MOL    C3745103   7.897   2.520   7.398  0.2940 -0.7852 -0.4039
  204MOL    C3845104   7.937   2.527   7.262 -0.5012 -0.0529 -0.1895
  204MOL    C3945105   8.074   2.523   7.224 -0.2573 -0.3044 -0.2465
  204MOL    C4045106   8.175   2.513   7.325 -0.0992  0.3036  0.4341
  204MOL    O4145107   0.055   2.506   7.297  0.1821  0.2007  0.4820
  204MOL    H4245108   8.198   2.485   7.543  0.0831  0.8088  0.1427
  204MOL    H4345109   7.971   2.504   7.599  0.0990 -2.2666  0.2654
  204MOL    H4445110   7.855   2.534   7.192 -1.2945 -0.8660  0.6391
  204MOL    H4545111   8.094   2.514   7.118 -0.8868 -1.9235 -0.2480
  204MOL    C4645112   0.126   2.169   7.163  0.4585  0.0502 -0.7432
  204MOL    C4745113   0.079   2.266   7.246  0.8728 -0.0589  0.1729
  204MOL    C4845114   0.118   2.397   7.230  0.0838  0.8250 -0.4789
  204MOL    C4945115   0.232   2.425   7.156 -0.3942  0.6383  0.4137
  204MOL    C5045116   0.287   2.322   7.071  0.3902 -0.1908  0.4037
  204MOL    C5145117   0.229   2.194   7.068 -0.0491  1.1583  0.5686
  204MOL    O5245118   0.269   2.106   6.970  1.1020 -0.4959 -0.1157
  204MOL    H5345119   0.091   2.067   7.164  1.3050 -0.2500 -0.9173
  204MOL    H5445120   8.248   2.255   7.310 -2.1346  1.1020 -3.4362
  204MOL    H5545121   0.267   2.527   7.151 -0.8036  0.7389 -0.5386
  204MOL    H5645122   0.377   2.347   7.015  1.9000  1.7640  3.5571
  204MOL    C5745123   0.330   1.746   7.015 -0.3865  0.1693  0.3673
  204MOL    C5845124   0.276   1.865   6.965  0.1641 -0.2952  0.0609
  204MOL    C5945125   0.328   1.989   7.010 -0.0424  0.0752 -1.2209
  204MOL    C6045126   0.442   1.998   7.091 -0.0286 -0.3278  0.0222
  204MOL    C6145127   0.501   1.877   7.130 -0.4554 -0.3588 -0.7911
  204MOL    C6245128   0.443   1.754   7.098  0.2261  0.1534  0.1756
  204MOL    O6345129   0.507   1.636   7.144  0.7719 -0.4581 -1.0338
  204MOL    H6445130   0.289   1.649   6.991 -0.3934  0.3996 -0.5551
  204MOL    H6545131   0.180   1.870   6.914  0.8616  0.3657 -1.2037
  204MOL    H6645132   0.481   2.093   7.124  0.5225  0.2947 -2.3255
  204MOL    H6745133   0.593   1.879   7.186 -1.4734  0.8534  0.8716
  204MOL    C6845134   0.373   1.298   7.234  0.2754  0.0176 -0.6797
  204MOL    C6945135   0.441   1.402   7.172 -0.0312 -0.2898  0.1695
  204MOL    C7045136   0.432   1.540   7.210 -0.1926  0.0885 -0.8270
  204MOL    C7145137   0.349   1.570   7.316 -0.0743 -0.2361 -0.2277
  204MOL    C7245138   0.277   1.468   7.382 -0.1104  0.4075  0.7105
  204MOL    C7345139   0.285   1.331   7.344  0.2754  0.5997 -0.3074
  204MOL    O7445140   0.209   1.237   7.416  0.2548 -0.5112  0.1473
  204MOL    H7545141   0.364   1.197   7.196  0.6912 -0.4713  0.5199
  204MOL    H7645142   0.505   1.384   7.087 -0.9151 -0.6584 -0.4176
  204MOL    H7745143   0.335   1.675   7.336 -1.5311 -0.7208  1.4706
  204MOL    H7845144   0.205   1.503   7.454 -0.2114  0.7766  0.4289
  204MOL    C7945145   0.100   1.345   7.750 -0.2861  0.4574 -0.2039
  204MOL    C8045146   0.098   1.305   7.617 -0.2681  0.2357 -0.1369
  204MOL    C8145147   0.212   1.258   7.553  1.0258 -0.0434  0.7370
  204MOL    C8245148   0.336   1.251   7.625  0.2593  0.0306  0.3253
  204MOL    C8345149   0.333   1.292   7.759 -0.4897 -0.0103 -0.3313
  204MOL    C8445150   0.220   1.340   7.826 -0.4182  0.5429 -0.4862
  204MOL    O8545151   0.228   1.369   7.962 -0.2080 -0.2986 -0.4048
  204MOL    H8645152   0.010   1.389   7.789 -1.0745  1.3477 -2.9380
  204MOL    H8745153   0.008   1.329   7.564 -0.1349  0.3806 -0.2979
  204MOL    H8845154   0.432   1.207   7.599  0.6149 -0.2632  2.0064
  204MOL    H8945155   0.427   1.280   7.811 -0.3652  0.0739 -0.5389
  204MOL    C9045156   0.382   1.691   8.030 -0.0097 -0.0950 -0.4418
  204MOL    C9145157   0.365   1.564   7.975  0.4280 -0.0687  0.3260
  204MOL    C9245158   0.241   1.501   7.995 -0.7124  0.8090  0.5957
  204MOL    C9345159   0.139   1.558   8.075 -0.3459  0.5616 -0.1670
  204MOL    C9445160   0.154   1.690   8.123 -0.6180  0.7745 -0.6435
  204MOL    C9545161   0.277   1.754   8.104  0.4985  0.3123  0.0593
  204MOL    O9645162   0.304   1.864   8.185 -0.3993  0.4301 -0.2565
  204MOL    H9745163   0.477   1.743   8.019  0.7161 -0.5779  2.9286
  204MOL    H9845164   0.447   1.525   7.917  1.2775 -0.6252  1.8861
  204MOL    H9945165   0.044   1.508   8.089 -1.3890  2.4331 -0.3236
  204MOL   H10045166   0.091   1.745   8.192  0.8188 -0.3092  1.6155
  204MOL   C10145167   0.220   2.220   8.148 -0.2380 -0.7146  0.2017
  204MOL   C10245168   0.222   2.087   8.201 -1.3412  0.4335 -0.4686
  204MOL   C10345169   0.286   1.987   8.127  0.3097  0.3933  0.1266
  204MOL   C10445170   0.352   2.023   8.008  0.1348 -0.4517  0.4640
  204MOL   C10545171   0.350   2.153   7.955 -0.0721  0.1990  0.4619
  204MOL   C10645172   0.285   2.254   8.029 -0.6032  0.4058  0.4117
  204MOL   O10745173   0.293   2.383   7.981 -0.2383 -0.3110 -0.2553
  204MOL   H10845174   0.163   2.298   8.196  1.7357 -0.4673  2.2333
  204MOL   H10945175   0.173   2.071   0.042 -2.0164  1.2232 -0.6841
  204MOL   H11045176   0.410   1.953   7.950 -1.3642 -0.3830 -1.1618
  204MOL   H11145177   0.399   2.180   7.863 -1.8517  1.8159 -0.0528
  204MOL   C11245178   0.119   2.696   8.080 -0.4890  0.2947  0.5209
  204MOL   C11345179   0.215   2.594   8.057 -0.2258 -0.3117  0.5521
  204MOL   C11445180   0.190   2.470   7.994 -0.2476  0.5945 -0.2475
  204MOL   C11545181   0.059   2.447   7.945  0.2560 -0.7887 -0.3720
  204MOL   C11645182   8.215   2.545   7.970 -0.1168 -0.6672 -0.6245
  204MOL   C11745183   8.238   2.669   8.037  0.4150  0.2320 -0.3158
  204MOL   O11845184   8.143   2.769   8.043  0.2382  0.0049 -0.1275
  204MOL   H11945185   0.148   2.790   8.125 -0.4630 -0.6795  2.6072
  204MOL   H12045186   0.318   2.620   8.076 -0.4649  1.1542 -0.0679
  204MOL   H12145187   0.036   2.357   7.891 -1.4757  0.2387 -1.4112
  204MOL   H12245188   8.115   2.521   7.935  0.3501 -2.3306 -0.8613
  204MOL   C12345189   7.765   2.789   8.068  0.3213 -0.1795 -0.7817
  204MOL   C12445190   7.902   2.816   8.023 -0.1730 -0.0132 -0.2582
  204MOL   C12545191   8.012   2.748   8.076  0.4099  0.5786  0.7328
  204MOL   C12645192   7.984   2.654   8.180  0.0071  0.7179 -0.5329
  204MOL   C12745193   7.855   2.633   8.228  0.1359  0.1719 -0.5145
  204MOL   C12845194   7.745   2.704   8.179  0.2025  0.0699  0.3165
  204MOL   O12945195   7.623   2.680   8.232  0.0900  0.2897  0.4718
  204MOL   H13045196   7.682   2.846   8.030  1.3266  1.7218 -0.1611
  204MOL   H13145197   7.928   2.892   7.951 -1.4603  0.7406  0.0580
  204MOL   H13245198   8.061   2.608   8.241 -1.7617 -1.4607  0.0983
  204MOL   H13345199   7.832   2.577   0.063 -1.2374  2.1649  0.4407
  204MOL   C13445200   7.416   2.531   7.961  0.9509  0.4028 -0.1928
  204MOL   C13545201   7.511   2.549   8.063 -0.3048  0.1104 -0.1394
  204MOL   C13645202   7.515   2.666   8.144 -0.0853  0.4041 -0.3243
  204MOL   C13745203   7.409   2.763   8.131  0.4138  0.2909  0.7530
  204MOL   C13845204   7.314   2.744   8.031  0.0369  0.2196 -0.4020
  204MOL   C13945205   7.317   2.632   7.944 -0.0997 -0.3743 -0.6530
  204MOL   O14045206   7.204   2.617   7.862  0.0828 -0.1925  0.3586
  204MOL   H14145207   7.427   2.446   7.896  1.2122  1.7386 -1.9329
  204MOL   H14245208   7.594   2.480   8.073 -0.2086  0.1348 -0.7440
  204MOL   H14345209   7.419   2.851   8.192 -2.8741  0.3593  1.2680
  204MOL   H14445210   7.241   2.822   8.011 -1.8590 -1.6569 -1.0423
  204MOL   C14545211   7.208   2.882   7.597  0.0954 -0.0521 -0.0166
  204MOL   C14645212   7.254   2.786   7.689 -0.5906  0.0012  0.5925
  204MOL   C14745213   7.166   2.712   7.770 -0.5186 -0.6895 -0.1117
  204MOL   C14845214   7.028   2.733   7.754  0.9281  0.1528  0.4146
  204MOL   C14945215   6.982   2.838   7.667  0.8789  0.8898 -0.6205
  204MOL   C15045216   7.070   2.911   7.587  0.2922 -0.1258 -0.0449
  204MOL   O15145217   7.029   3.001   7.496  0.0054  0.4606  0.7431
  204MOL   H15245218   7.279   2.925   7.528 -0.8754  0.7594 -0.5189
  204MOL   H15345219   7.360   2.763   7.697 -0.6979 -0.5864  0.3442
  204MOL   H15445220   6.952   2.682   7.811  1.0315 -0.4527  0.0085
  204MOL   H15545221   6.876   2.853   7.677  1.0337  0.3942  2.4679
  204MOL   C15645222   7.007   3.363   7.460 -0.3510 -0.1227 -1.5461
  204MOL   C15745223   7.027   3.229   7.433  0.6088  0.5144 -0.4864
  204MOL   C15845224   7.005   3.133   7.535  0.8453  0.2164  0.0149
  204MOL   C15945225   6.968   3.177   7.668 -0.1097  0.6632 -0.3343
  204MOL   C16045226   6.952   3.316   7.696  0.2152 -1.1999  0.7274
  204MOL   C16145227   6.963   3.407   7.588  0.4145  0.0063  0.1762
  204MOL   O16245228   6.931   3.539   7.604  0.4380 -0.7005  0.0805
  204MOL   H16345229   7.030   3.426   7.375  1.0497 -2.1320 -2.7126
  204MOL   H16445230   7.065   3.204   7.335  0.1357  1.2579 -0.8640
  204MOL   H16545231   6.952   3.099   7.741 -0.9997  1.7636  0.6686
  204MOL   H16645232   6.911   3.349   7.791  1.3647 -0.9908  1.1646
  204MOL   C16745233   7.158   3.812   7.701 -0.0450  0.0355 -0.3924
  204MOL   C16845234   7.103   3.708   7.625 -0.2805 -0.5312  0.1222
  204MOL   C16945235   7.004   3.623   7.685 -0.2428  0.5604 -0.8131
  204MOL   C17045236   6.961   3.638   7.821 -0.3988  0.2379 -0.1834
  204MOL   C17145237   7.025   3.738   7.895  0.5802 -0.0582 -0.6772
  204MOL   C17245238   7.127   3.815   7.840  0.3447 -0.4420 -0.2731
  204MOL   O17345239   7.191   3.907   7.921 -0.6879 -0.2516  0.0309
  204MOL   H17445240   7.234   3.879   7.664  0.8153  0.5986  2.3272
  204MOL   H17545241   7.146   3.688   7.528  2.1780 -3.7893  1.7970
  204MOL   H17645242   6.882   3.580   7.867 -1.7144  2.5979  0.6399
  204MOL   H17745243   6.995   3.753   7.997 -1.7195  1.3962 -1.5317
  204MOL   C17845244   7.348   3.941   0.006  0.2255 -0.4443 -0.7400
  204MOL   C17945245   7.258   3.969   8.144  0.3902  0.5629 -0.3851
  204MOL   C18045246   7.254   3.875   8.036  0.7737  0.0475  0.1361
  204MOL   C18145247   7.329   3.760   8.051  0.4211 -0.2080  0.2525
  204MOL   C18245248   7.411   3.733   8.162 -0.2829  0.3959  0.1153
  204MOL   C18345249   7.414   3.824   0.011 -0.0935  0.0000  0.1231
  204MOL   O18445250   7.505   3.794   0.107  0.8815 -0.5508 -0.6897
  204MOL   H18545251   7.354   4.014   0.086 -2.4440 -1.1517  0.1809
  204MOL   H18645252   7.200   4.060   8.140 -0.4563  0.0105 -0.9720
  204MOL   H18745253   7.328   3.694   7.966  0.1802 -0.5604  0.5296
  204MOL   H18845254   7.471   3.644   8.174  0.1049  0.7699  0.9755
  204MOL   C18945255   7.303   3.617   0.372 -0.7752 -0.1828 -0.5255
  204MOL   C19045256   7.335   3.694   0.257  0.1686  0.3383 -0.5818
  204MOL   C19145257   7.468   3.721   0.218  0.7291  0.3932 -0.2616
  204MOL   C19245258   7.566   3.673   0.307 -0.5392 -0.5626  0.3514
  204MOL   C19345259   7.540   3.601   0.423  0.1953 -0.1089 -0.5437
  204MOL   C19445260   7.405   3.577   0.460 -0.0065  0.3208  0.0522
  204MOL   O19545261   7.371   3.496   0.567 -0.6218 -0.0469 -0.2289
  204MOL   H19645262   7.199   3.605   0.401 -1.3283  2.7566 -1.0828
  204MOL   H19745263   7.259   3.722   0.185 -1.2404 -1.2701  0.2566
  204MOL   H19845264   7.670   3.673   0.279 -0.2318 -1.2769  1.4402
  204MOL   H19945265   7.625   3.569   0.481  0.0061  0.3948  0.0232
  204MOL   C20045266   7.630   3.256   0.661 -0.3436 -0.1654  0.0782
  204MOL   C20145267   7.542   3.330   0.579 -0.1018 -0.0567 -0.5385
  204MOL   C20245268   7.463   3.426   0.640 -0.5919 -0.0358 -0.3916
  204MOL   C20345269   7.479   3.462   0.774  0.2490  0.0250 -0.0187
  204MOL   C20445270   7.571   3.398   0.849  0.4600 -0.0673 -0.8452
  204MOL   C20545271   7.645   3.291   0.801 -0.2189  0.8446  0.7402
  204MOL   O20645272   7.728   3.220   0.884  0.5182  0.0880 -0.1194
  204MOL   H20745273   7.694   3.175   0.631 -0.1422 -0.8361  2.2450
  204MOL   H20845274   7.533   3.307   0.473  0.0437  1.5468 -0.9099
  204MOL   H20945275   7.410   3.538   0.811 -2.0216  0.0973 -4.0779
  204MOL   H21045276   7.587   3.412   0.954 -0.7909  0.8515 -0.7733
  204MOL   C21145277   7.961   3.413   1.098 -0.4212  0.1526  0.2591
  204MOL   C21245278   7.839   3.371   1.038  0.2812  0.0716  0.3263
  204MOL   C21345279   7.841   3.282   0.929 -0.9699 -0.2793  0.2258
  204MOL   C21445280   7.966   3.235   0.884 -0.8931 -0.6134 -0.5797
  204MOL   C21545281   8.086   3.285   0.941 -0.4974 -0.0553 -0.0565
  204MOL   C21645282   8.086   3.377   1.045  0.1320 -0.2118 -0.2883
  204MOL   O21745283   8.206   3.414   1.096  0.3154 -0.3529 -0.3127
  204MOL   H21845284   7.953   3.475   1.186 -1.6872 -0.3730  0.5253
  204MOL   H21945285   7.749   3.397   1.092 -0.8082  0.7388 -1.7192
  204MOL   H22045286   7.969   3.159   0.808  0.3854 -1.6322  0.4676
  204MOL   H22145287   8.178   3.252   0.893 -0.4576  0.5092 -0.3752
  204MOL   H22245288   8.205   3.450   1.183  0.9565 -0.2084 -0.3638
  205MOL     C145289   3.576   2.535   2.156 -0.6554  0.3909 -0.5778
  205MOL     C245290   3.618   2.623   2.061  0.2051  0.1465 -0.2645
  205MOL     C345291   3.709   2.724   2.093  0.9019  0.1627  0.3589
  205MOL     C445292   3.738   2.748   2.226  0.1921  0.1468 -0.2038
  205MOL     C545293   3.683   2.666   2.323 -0.0861 -0.3704  0.1531
  205MOL     C645294   3.613   2.550   2.291 -1.0107  0.3947  0.1364
  205MOL     O745295   3.560   2.470   2.389 -0.6020 -0.1789 -0.2211
  205MOL     H845296   3.509   2.456   2.126 -1.4954 -1.0481  4.6874
  205MOL     H945297   3.584   2.614   1.959 -0.1344  2.5721 -0.3955
  205MOL    H1045298   3.803   2.829   2.256 -1.0526  1.5838 -1.3551
  205MOL    H1145299   3.707   2.676   2.427  3.1602 -2.2026 -0.3457
  205MOL    H1245300   3.745   2.795   2.020  1.8379 -0.2567  0.3991
  205MOL    C1345301   3.633   2.231   2.661 -0.4948  0.4838 -0.2878
  205MOL    C1445302   3.565   2.311   2.563  0.1633  0.0296  0.3199
  205MOL    C1545303   3.636   2.402   2.479 -0.4622  0.6601  0.3150
  205MOL    C1645304   3.777   2.402   2.489  0.6861  0.0536  0.5573
  205MOL    C1745305   3.842   2.321   2.584  0.2733 -0.3104  0.2845
  205MOL    C1845306   3.775   2.237   2.674  0.5492  0.3347  0.7519
  205MOL    O1945307   3.828   2.144   2.759 -0.7028  0.2924  0.0134
  205MOL    H2045308   3.575   2.157   2.714 -1.7759  0.4057 -1.7662
  205MOL    H2145309   3.458   2.304   2.550  0.4800  0.1934 -2.5696
  205MOL    H2245310   3.846   2.463   2.431 -0.7924  1.3647  0.1259
  205MOL    H2345311   3.950   2.321   2.593  0.2833 -2.8686  0.3170
  205MOL    C2445312   4.098   1.890   2.718 -0.1925  0.8045 -0.7238
  205MOL    C2545313   4.016   1.990   2.769  0.0899  0.2998 -0.3960
  205MOL    C2645314   3.894   2.034   2.707 -0.3519 -0.1135 -0.0661
  205MOL    C2745315   3.860   1.965   2.588 -0.1421  0.8242  0.5041
  205MOL    C2845316   3.941   1.855   2.530  0.0910  0.0102  0.0635
  205MOL    C2945317   4.060   1.818   2.600 -0.0249  0.4729 -0.2218
  205MOL    O3045318   4.146   1.720   2.551  0.8407 -0.2188  0.6714
  205MOL    H3145319   4.191   1.869   2.768 -0.7613  1.8690  0.7837
  205MOL    H3245320   4.040   2.038   2.863 -1.2092  2.0420 -0.9287
  205MOL    H3345321   3.772   2.000   2.536 -1.5930 -0.6662  1.8541
  205MOL    H3445322   3.911   1.801   2.441  0.6346 -2.8473  1.5547
  205MOL    C3545323   4.120   1.403   2.730 -0.3645  0.4514 -0.1228
  205MOL    C3645324   4.161   1.532   2.698 -0.2767  0.1703 -0.5450
  205MOL    C3745325   4.106   1.597   2.580  0.3214  0.0992 -0.9042
  205MOL    C3845326   4.032   1.512   2.492  0.3242  0.4432  0.2070
  205MOL    C3945327   3.983   1.389   2.529 -0.2926 -0.2236 -0.2937
  205MOL    C4045328   4.030   1.336   2.650  0.5925 -0.0554 -0.3653
  205MOL    O4145329   3.975   1.216   2.693 -0.1885  0.1860  0.5579
  205MOL    H4245330   4.154   1.350   2.817 -1.9876 -0.6117 -0.1091
  205MOL    H4345331   4.231   1.585   2.761 -1.1826  2.0195 -1.0705
  205MOL    H4445332   4.000   1.558   2.399 -1.6854  2.5564  1.8628
  205MOL    H4545333   3.909   1.338   2.468  0.7440 -1.4752 -0.5134
  205MOL    C4645334   3.613   1.132   2.747  0.6894  0.1076 -0.0315
  205MOL    C4745335   3.748   1.120   2.703  0.1531 -0.1164  0.2981
  205MOL    C4845336   3.842   1.224   2.734 -0.1396  0.5279 -0.1284
  205MOL    C4945337   3.801   1.335   2.812 -0.0557  0.3962  0.7036
  205MOL    C5045338   3.671   1.345   2.853 -0.4042 -0.5486  0.2296
  205MOL    C5145339   3.572   1.248   2.822  0.4515  0.2616  0.2498
  205MOL    O5245340   3.444   1.268   2.872  0.6382 -0.2039  0.0660
  205MOL    H5345341   3.542   1.057   2.716 -0.3671 -0.9167  4.4632
  205MOL    H5445342   3.781   1.033   2.649  1.1515 -0.4828  1.4857
  205MOL    H5545343   3.881   1.405   2.831  2.2167 -1.2897 -2.1401
  205MOL    H5645344   3.650   1.429   2.917  0.5953 -0.7072  0.7877
  205MOL    C5745345   3.366   0.957   3.060  0.1310  0.4009  0.0953
  205MOL    C5845346   3.434   1.075   3.024  0.1728 -0.6501  0.6438
  205MOL    C5945347   3.378   1.163   2.927  0.2726 -0.0329  0.0830
  205MOL    C6045348   3.253   1.135   2.883 -0.4198  0.6961  0.1416
  205MOL    C6145349   3.185   1.016   2.921 -1.0771 -0.4307  0.2321
  205MOL    C6245350   3.244   0.922   3.002  0.4972  0.0113  0.1168
  205MOL    O6345351   3.178   0.806   3.028  0.5569 -0.4841 -0.0628
  205MOL    H6445352   3.399   0.883   3.131  0.4178 -0.2658 -0.7205
  205MOL    H6545353   3.533   1.093   3.063  0.2059  1.1177 -0.2149
  205MOL    H6645354   3.202   1.198   2.812  0.7479  2.1729  0.5696
  205MOL    H6745355   3.085   0.997   2.885 -0.5460 -0.6100 -1.1900
  205MOL    C6845356   2.911   0.917   3.263  0.0828  0.0234  0.5415
  205MOL    C6945357   3.028   0.916   3.182  0.3199 -0.6268 -0.5094
  205MOL    C7045358   3.073   0.807   3.113 -0.6850  1.0177 -0.4523
  205MOL    C7145359   3.002   0.686   3.118  0.0831  0.2365 -0.4746
  205MOL    C7245360   2.881   0.684   3.193 -0.8334  0.4733 -0.7110
  205MOL    C7345361   2.839   0.796   3.266  0.2482  0.1853 -0.6609
  205MOL    O7445362   2.722   0.801   3.332  0.2855 -0.4936  0.0553
  205MOL    H7545363   2.877   1.007   3.311  1.2398  1.1198 -0.6413
  205MOL    H7645364   3.090   1.004   3.183 -0.1428 -0.2678 -1.6323
  205MOL    H7745365   3.043   0.599   3.068  2.3237  1.0837 -0.1886
  205MOL    H7845366   2.832   0.588   3.198  0.7271 -0.3541 -0.8833
  205MOL    C7945367   2.430   0.567   3.269  0.5685 -0.0924  0.2859
  205MOL    C8045368   2.513   0.684   3.265  0.0241 -0.2650  0.2753
  205MOL    C8145369   2.638   0.691   3.335 -0.2850 -0.2618 -0.4706
  205MOL    C8245370   2.673   0.578   3.410 -0.0049  0.1637  0.5353
  205MOL    C8345371   2.592   0.463   3.414  0.5638 -0.1942 -0.7713
  205MOL    C8445372   2.466   0.459   3.352 -0.0910 -0.1347 -0.0138
  205MOL    O8545373   2.389   0.349   3.356  0.2295 -0.3502 -0.1076
  205MOL    H8645374   2.343   0.554   3.206 -0.2493  1.4336  1.0617
  205MOL    H8745375   2.479   0.763   3.200 -1.6605 -0.7396  0.5625
  205MOL    H8845376   2.767   0.567   3.463 -0.1762 -0.5632  0.7001
  205MOL    H8945377   2.620   0.380   3.477  1.0519  0.9314  0.5200
  205MOL    C9045378   2.113   0.438   3.593  0.1011  0.1960 -0.0818
  205MOL    C9145379   2.233   0.454   3.520  0.1430  0.0102  0.4633
  205MOL    C9245380   2.278   0.347   3.439  0.2988  0.4921 -0.0388
  205MOL    C9345381   2.214   0.222   3.438 -0.7075 -0.9729 -0.0471
  205MOL    C9445382   2.096   0.211   3.511  0.2655 -0.1105  0.1138
  205MOL    C9545383   2.045   0.317   3.591 -0.3795 -0.4736  0.8418
  205MOL    O9645384   1.926   0.305   3.663 -0.2074 -0.1658  0.2919
  205MOL    H9745385   2.086   0.523   3.655 -0.2366 -0.6200  0.9129
  205MOL    H9845386   2.275   0.554   3.516 -1.8772  0.9211  0.8611
  205MOL    H9945387   2.256   0.146   3.374  1.7664  1.2331 -1.1382
  205MOL   H10045388   2.050   0.113   3.509 -0.9580  0.4744 -1.0394
  205MOL   C10145389   1.651   0.385   3.437 -0.4215 -0.1360  0.7503
  205MOL   C10245390   1.769   0.398   3.508 -0.1467  0.2654  0.5076
  205MOL   C10345391   1.815   0.287   3.586 -0.2450 -0.6430  0.7985
  205MOL   C10445392   1.745   0.162   3.586  0.7134 -0.6541  0.6384
  205MOL   C10545393   1.627   0.154   3.511 -0.4666  0.4485 -0.0137
  205MOL   C10645394   1.574   0.269   3.448  0.5047 -0.0723  0.4738
  205MOL   O10745395   1.454   0.248   3.387  0.1917  0.1610 -0.1395
  205MOL   H10845396   1.622   0.475   3.384 -0.4090 -0.4558  0.1978
  205MOL   H10945397   1.821   0.492   3.513  0.0589  0.2595 -1.1759
  205MOL   H11045398   1.776   0.076   3.643  0.3382 -1.3426 -0.1961
  205MOL   H11145399   1.577   0.058   3.509  0.5553 -0.0761 -0.6601
  205MOL   C11245400   1.228   0.467   3.588  0.0729  0.7137 -0.0981
  205MOL   C11345401   1.333   0.376   3.557  0.2956 -0.2641  0.7146
  205MOL   C11445402   1.351   0.341   3.418 -0.1830 -1.0195  0.4283
  205MOL   C11545403   1.279   0.400   3.318  0.0838 -0.2745  0.1537
  205MOL   C11645404   1.178   0.498   3.345  0.2203 -0.3466  0.5395
  205MOL   C11745405   1.155   0.529   3.482  0.3481  0.3459 -0.1477
  205MOL   O11845406   1.055   0.612   3.515 -0.4123 -0.6646 -0.5329
  205MOL   H11945407   1.203   0.490   3.690 -0.3258 -0.0630 -0.0206
  205MOL   H12045408   1.392   0.323   3.631  1.8646 -0.5985 -0.7387
  205MOL   H12145409   1.303   0.375   3.215  0.7038 -1.7305  0.6424
  205MOL   H12245410   1.122   0.557   3.273  0.6356 -1.2222 -0.5103
  205MOL   C12345411   0.926   0.930   3.355 -0.4070  0.4351  0.2275
  205MOL   C12445412   0.929   0.797   3.396 -0.2853 -0.0665  0.2549
  205MOL   C12545413   1.050   0.742   3.458 -0.2918 -0.3385  0.1794
  205MOL   C12645414   1.163   0.827   3.460 -0.3236  0.4522 -0.3172
  205MOL   C12745415   1.157   0.959   3.425  0.8926 -0.2027  0.0447
  205MOL   C12845416   1.036   1.012   3.373 -0.5698  0.2089  0.2333
  205MOL   O12945417   1.024   1.141   3.330 -0.1464 -0.2183 -0.3437
  205MOL   H13045418   0.838   0.977   3.314 -0.0744  1.2230  0.3917
  205MOL   H13145419   0.842   0.732   3.398  1.2242 -2.1022  1.1173
  205MOL   H13245420   1.251   0.782   3.503 -0.9447  1.2431  1.8525
  205MOL   H13345421   1.239   1.027   3.446  0.5210 -0.0527  1.0188
  205MOL   C13445422   1.060   1.083   2.971 -0.2678  0.5051 -0.6742
  205MOL   C13545423   1.089   1.089   3.109 -0.2426 -0.3080 -0.7386
  205MOL   C13645424   1.001   1.153   3.197 -0.0152 -0.3588  0.2065
  205MOL   C13745425   0.889   1.234   3.145  0.0551 -0.4047 -0.1428
  205MOL   C13845426   0.874   1.235   3.004 -0.1234 -0.7136  1.2433
  205MOL   C13945427   0.954   1.159   2.920 -0.4792  0.5533 -0.4204
  205MOL   O14045428   0.934   1.175   2.791 -0.2397  0.4992  0.3906
  205MOL   H14145429   1.125   1.029   2.903  0.2739  0.5030 -0.1600
  205MOL   H14245430   1.178   1.045   3.151  1.3759  1.1996 -2.5052
  205MOL   H14345431   0.827   1.290   3.213  1.1111 -0.0929  0.5747
  205MOL   H14445432   0.785   1.287   2.972 -0.3011 -1.6828  0.1499
  205MOL   C14545433   1.259   1.308   2.642 -0.0716  0.7197  0.2525
  205MOL   C14645434   1.158   1.282   2.743 -0.7999 -0.0750  0.7262
  205MOL   C14745435   1.047   1.201   2.710  0.0172 -0.2924 -0.6179
  205MOL   C14845436   1.046   1.137   2.582  0.4354 -0.1257  0.5305
  205MOL   C14945437   1.150   1.163   2.487  0.0527 -0.5482  0.4771
  205MOL   C15045438   1.254   1.255   2.519 -0.2982  0.3907 -0.2190
  205MOL   O15145439   1.359   1.278   2.434 -0.4321  0.1459  0.1378
  205MOL   H15245440   1.346   1.367   2.666  0.2932  0.6227 -0.8134
  205MOL   H15345441   1.164   1.321   2.844  0.5619 -1.0316  1.0257
  205MOL   H15445442   0.961   1.079   2.551 -0.7593  1.5811  0.5825
  205MOL   H15545443   1.153   1.099   2.400 -1.8815  0.2032 -0.1459
  205MOL   C15645444   1.624   1.009   2.432  0.2083  0.4011  0.4164
  205MOL   C15745445   1.494   1.076   2.421  0.0474 -0.8359  0.2720
  205MOL   C15845446   1.479   1.211   2.459  0.4242  0.0157  0.0254
  205MOL   C15945447   1.591   1.278   2.513  0.7605  0.3710  0.2666
  205MOL   C16045448   1.710   1.217   2.537 -0.2802  0.5360  0.5225
  205MOL   C16145449   1.728   1.078   2.492  0.5246 -0.1318 -0.1558
  205MOL   O16245450   1.848   1.011   2.511 -0.3539  0.2802  0.3765
  205MOL   H16345451   1.635   0.905   2.406  0.4885  1.3293 -3.4849
  205MOL   H16445452   1.414   1.019   2.377  1.6949 -1.9818 -1.3157
  205MOL   H16545453   1.591   1.384   2.534  0.1416  0.2333  0.9596
  205MOL   H16645454   1.789   1.266   2.592  0.9560 -1.1738  0.3095
  205MOL   C16745455   2.103   1.141   2.739  0.9349  0.4884 -0.0658
  205MOL   C16845456   1.984   1.082   2.691  0.1513  0.0806  0.4922
  205MOL   C16945457   1.960   1.072   2.557 -0.1685 -0.0112  0.1744
  205MOL   C17045458   2.054   1.121   2.461 -0.3232 -0.6468 -0.2787
  205MOL   C17145459   2.172   1.185   2.504 -0.0090  0.2824  0.1608
  205MOL   C17245460   2.195   1.196   2.641  0.5129 -0.6624 -1.0743
  205MOL   O17345461   2.299   1.275   2.686 -0.3504  0.6004 -0.2532
  205MOL   H17445462   2.116   1.157   2.845 -0.3833  1.3162 -0.0333
  205MOL   H17545463   1.911   1.044   2.762 -0.7705  1.2910  0.2293
  205MOL   H17645464   2.030   1.113   2.356  0.2117  0.1095 -0.4603
  205MOL   H17745465   2.249   1.227   2.441  1.3646 -2.2193  0.1131
  205MOL   C17845466   2.233   1.608   2.840  0.0576  0.5727  0.1402
  205MOL   C17945467   2.259   1.472   2.823  0.1420 -0.4068 -0.2664
  205MOL   C18045468   2.290   1.413   2.697  0.1484 -0.7645 -0.1754
  205MOL   C18145469   2.294   1.498   2.584  0.0134 -0.0024  0.0303
  205MOL   C18245470   2.269   1.636   2.597  0.1077  0.2704 -0.1782
  205MOL   C18345471   2.232   1.691   2.724 -0.1199 -0.2877 -0.4503
  205MOL   O18445472   2.205   1.816   2.733 -0.4463 -0.8275  0.8114
  205MOL   H18545473   2.210   1.651   2.936 -1.5262 -1.0340  0.5135
  205MOL   H18645474   2.263   1.416   2.915 -0.5705  3.5129  2.2728
  205MOL   H18745475   2.314   1.455   2.487  2.3488  1.1421 -0.0417
  205MOL   H18845476   2.286   1.699   2.511 -0.3925 -0.5660 -0.9002
  205MOL   C18945477   1.837   1.918   2.715  0.3128 -0.3864 -0.9039
  205MOL   C19045478   1.963   1.885   2.772 -0.6143  0.7062 -0.0980
  205MOL   C19145479   2.077   1.855   2.689  1.3802  0.0680 -0.0211
  205MOL   C19245480   2.058   1.866   2.553 -0.1015  0.2858  0.2470
  205MOL   C19345481   1.935   1.897   2.494  0.0400  0.2547 -0.0047
  205MOL   C19445482   1.820   1.921   2.576 -0.2206  0.0416  0.0262
  205MOL   O19545483   1.699   1.964   2.520  0.7054  0.0299  0.1379
  205MOL   H19645484   1.750   1.932   2.777  0.5060  0.5614 -0.8485
  205MOL   H19745485   1.979   1.875   2.879 -2.0205  3.2574  0.3799
  205MOL   H19845486   2.142   1.848   2.487  0.1843  1.3476  0.3011
  205MOL   H19945487   1.916   1.897   2.388 -0.3236 -0.7686  0.0546
  205MOL   C20045488   1.721   2.235   2.251  0.3785  0.0061  0.5892
  205MOL   C20145489   1.712   2.100   2.306 -0.8133  0.4844  0.0462
  205MOL   C20245490   1.686   2.085   2.447 -0.5484 -0.0248  0.4272
  205MOL   C20345491   1.658   2.206   2.516 -0.3440  0.4509 -0.3598
  205MOL   C20445492   1.657   2.330   2.456  0.6586  0.3121  0.3462
  205MOL   C20545493   1.691   2.348   2.324  0.4882  0.1114 -0.6862
  205MOL   O20645494   1.686   2.470   2.267  0.4543  0.0111  0.3239
  205MOL   H20745495   1.763   2.245   2.153  1.6923 -2.2260  0.9014
  205MOL   H20845496   1.739   2.009   2.254 -1.7356 -1.0303  2.1130
  205MOL   H20945497   1.636   2.193   2.621  0.1442  0.8904 -0.1992
  205MOL   H21045498   1.633   2.416   2.517  0.6502  0.3266  0.3225
  205MOL   C21145499   1.911   2.592   1.998  0.1684 -0.2661  0.8565
  205MOL   C21245500   1.805   2.529   2.062  0.5087  0.3203  0.1681
  205MOL   C21345501   1.800   2.518   2.204 -0.2604  0.0298  0.1306
  205MOL   C21445502   1.903   2.571   2.283 -0.4940  0.0281 -0.0866
  205MOL   C21545503   2.017   2.624   2.222 -0.5446 -0.2302 -0.3006
  205MOL   C21645504   2.023   2.632   2.077  0.7923  0.1124 -0.1688
  205MOL   O21745505   2.131   2.692   2.015  0.2513  0.2771  0.1638
  205MOL   H21845506   1.908   2.610   1.892 -0.7322 -0.4033  0.8593
  205MOL   H21945507   1.722   2.493   2.004 -0.7348 -0.1579  2.1784
  205MOL   H22045508   1.889   2.569   2.390  2.3176  0.0431  0.3242
  205MOL   H22145509   2.094   2.671   2.282 -0.7796  0.8747 -0.8464
  205MOL   H22245510   2.203   2.724   2.066  0.7359  1.7751 -1.4277
  206MOL     C145511   4.645   2.937   1.056  0.2248  0.2039 -0.0321
  206MOL     C245512   4.562   2.943   0.937  0.4010 -0.2835  0.4584
  206MOL     C345513   4.478   3.053   0.917 -0.6128  0.3888  0.0897
  206MOL     C445514   4.460   3.149   1.014 -0.3508 -0.0644 -0.0017
  206MOL     C545515   4.549   3.143   1.128 -0.3515  0.8891  0.0659
  206MOL     C645516   4.639   3.038   1.148  0.2066 -0.2087 -0.8093
  206MOL     O745517   4.710   3.038   1.267  0.2448  0.0238  0.0132
  206MOL     H845518   4.721   2.861   1.057  1.0498  1.0058 -1.3278
  206MOL     H945519   4.578   2.871   0.858  1.0827  0.3232  0.0347
  206MOL    H1045520   4.379   3.219   1.011 -1.7778 -1.6810  0.2193
  206MOL    H1145521   4.541   3.207   1.215  0.8119 -1.1524  1.7072
  206MOL    H1245522   4.413   3.060   0.831 -0.5463 -2.4678 -0.2545
  206MOL    C1345523   4.801   3.321   1.479  0.1629  0.0526 -0.0728
  206MOL    C1445524   4.739   3.205   1.433  0.4277 -0.2160  0.9030
  206MOL    C1545525   4.783   3.143   1.314 -0.6386 -0.8766  0.7757
  206MOL    C1645526   4.893   3.194   1.244 -0.4804 -0.1661 -0.3433
  206MOL    C1745527   4.964   3.299   1.299 -0.3537  0.1717 -0.7023
  206MOL    C1845528   4.925   3.358   1.423  0.9107 -0.3333  0.3963
  206MOL    O1945529   4.995   3.469   1.464  0.0814  0.2372 -0.0837
  206MOL    H2045530   4.765   3.376   1.565 -0.7781  0.4173 -0.6943
  206MOL    H2145531   4.650   3.169   1.484  1.3078  0.6001  3.0723
  206MOL    H2245532   4.927   3.145   1.154 -1.3507  1.0121 -1.3251
  206MOL    H2345533   5.056   3.327   1.251  1.4928  0.7274  2.9663
  206MOL    C2445534   5.345   3.400   1.567  0.2217  0.1574  0.4620
  206MOL    C2545535   5.231   3.408   1.481  0.8471  0.3203 -1.3264
  206MOL    C2645536   5.105   3.434   1.540  0.6911  0.7005  0.2696
  206MOL    C2745537   5.097   3.426   1.680  0.4155  0.4234  0.4377
  206MOL    C2845538   5.212   3.415   1.761 -0.2727  0.1904  0.5959
  206MOL    C2945539   5.343   3.408   1.706  0.3182 -0.3356  0.0603
  206MOL    O3045540   5.460   3.402   1.778  0.5149 -0.7299  0.1542
  206MOL    H3145541   5.443   3.379   1.527 -0.0198  1.5841 -0.9316
  206MOL    H3245542   5.234   3.395   1.374  0.0597 -0.3092 -1.2700
  206MOL    H3345543   4.996   3.441   1.717  0.3131 -2.0010  1.2168
  206MOL    H3445544   5.202   3.416   1.868  0.4480  1.1397  0.6588
  206MOL    C3545545   5.717   3.159   1.669 -0.2129 -0.3493  0.2899
  206MOL    C3645546   5.636   3.272   1.671  0.5186 -0.4710  0.5702
  206MOL    C3745547   5.534   3.287   1.764  0.0733  0.5462  0.3497
  206MOL    C3845548   5.511   3.172   1.844  0.8415 -0.3779 -0.4340
  206MOL    C3945549   5.586   3.048   1.830  0.6466  0.2844 -0.3907
  206MOL    C4045550   5.691   3.042   1.737 -0.3527 -0.4472 -0.1786
  206MOL    O4145551   5.767   2.931   1.725  0.2975 -0.3345  0.0930
  206MOL    H4245552   5.803   3.164   1.604  0.1773  0.9251  0.8794
  206MOL    H4345553   5.660   3.366   1.623 -0.0244  0.3055  1.7952
  206MOL    H4445554   5.428   3.165   1.913  1.2028 -0.0153  0.0402
  206MOL    H4545555   5.572   2.961   1.892  2.5453  0.2927  0.0826
  206MOL    C4645556   5.753   2.750   1.410  0.6622 -0.0983  0.1907
  206MOL    C4745557   5.781   2.848   1.508  0.1322 -0.0575  0.4227
  206MOL    C4845558   5.734   2.837   1.637  0.2337 -0.6311 -0.1372
  206MOL    C4945559   5.663   2.720   1.680  0.0755  0.2642 -0.2350
  206MOL    C5045560   5.646   2.613   1.589  0.1476 -0.4425 -0.1184
  206MOL    C5145561   5.691   2.628   1.455  0.1734 -0.8883  0.0118
  206MOL    O5245562   5.680   2.522   1.364  0.3723  0.1236  0.2784
  206MOL    H5345563   5.786   2.746   1.307  0.2470  0.7058  0.0202
  206MOL    H5445564   5.823   2.942   1.475 -0.5772 -0.4465 -1.6856
  206MOL    H5545565   5.632   2.695   1.780 -0.9051  1.1446 -0.3072
  206MOL    H5645566   5.599   2.522   1.625  0.9413 -1.2425 -1.0810
  206MOL    C5745567   5.998   2.399   1.223 -0.5042  0.4173 -0.8315
  206MOL    C5845568   5.890   2.482   1.249 -0.0017 -0.2417 -0.2415
  206MOL    C5945569   5.789   2.440   1.341 -0.8261 -0.3957 -1.0487
  206MOL    C6045570   5.797   2.315   1.404 -0.0759 -0.5583 -0.6406
  206MOL    C6145571   5.909   2.234   1.379 -0.3248 -0.4206  0.9143
  206MOL    C6245572   6.012   2.271   1.284 -0.4323 -0.7125 -0.4551
  206MOL    O6345573   6.122   2.191   1.267 -0.3655  0.6103 -0.5259
  206MOL    H6445574   6.071   2.434   1.152 -1.5175  1.6949 -1.2741
  206MOL    H6545575   5.888   2.583   1.212  0.9378  0.7898  2.3621
  206MOL    H6645576   5.724   2.291   1.481  0.8717 -0.9035  0.1661
  206MOL    H6745577   5.914   2.135   1.424  0.2775 -1.2224 -0.8821
  206MOL    C6845578   6.483   2.276   1.197  0.2400 -0.0088 -0.0319
  206MOL    C6945579   6.353   2.219   1.185 -0.4261  0.4097 -0.5239
  206MOL    C7045580   6.250   2.253   1.274  0.1957 -0.2430  0.4701
  206MOL    C7145581   6.280   2.338   1.385 -0.1790  0.8204 -0.0448
  206MOL    C7245582   6.408   2.396   1.400 -0.6784  0.1583 -0.1128
  206MOL    C7345583   6.507   2.367   1.305 -1.0871 -0.8851  0.2598
  206MOL    O7445584   6.630   2.434   1.301 -0.5512  0.1979 -0.4247
  206MOL    H7545585   6.563   2.250   1.129 -0.2677 -0.8976 -0.3039
  206MOL    H7645586   6.325   2.144   1.113 -1.4451  1.7325 -1.5213
  206MOL    H7745587   6.214   2.345   1.469  0.5204 -0.1053  0.5914
  206MOL    H7845588   6.407   2.465   1.483 -2.1921 -2.0913  1.8028
  206MOL    C7945589   6.978   2.301   1.270 -0.1260  0.1234 -0.8131
  206MOL    C8045590   6.863   2.383   1.248  0.0940 -0.9773 -0.0011
  206MOL    C8145591   6.745   2.360   1.324 -0.0812  0.6788 -1.0402
  206MOL    C8245592   6.754   2.256   1.420  0.4034 -0.3842 -0.0985
  206MOL    C8345593   6.868   2.179   1.448  0.9744  0.7384 -0.2076
  206MOL    C8445594   6.983   2.199   1.371 -0.0730 -0.1774 -0.0442
  206MOL    O8545595   7.097   2.134   1.402  0.2721 -0.2430 -0.5892
  206MOL    H8645596   7.067   2.320   1.212  1.0444  2.1234  1.4958
  206MOL    H8745597   6.872   2.459   1.172  1.1032 -0.1266  0.9492
  206MOL    H8845598   6.667   2.252   1.484 -0.6027 -0.9622 -1.4634
  206MOL    H8945599   6.865   2.125   1.542 -0.9344  1.0670 -0.0630
  206MOL    C9045600   7.248   2.170   1.737 -0.6302  0.0737 -0.3769
  206MOL    C9145601   7.215   2.200   1.606  0.7119 -0.4320 -0.2058
  206MOL    C9245602   7.127   2.112   1.537  0.2168 -0.3673 -0.8163
  206MOL    C9345603   7.089   1.993   1.601 -0.5664  0.4187  0.4202
  206MOL    C9445604   7.132   1.960   1.728  0.0756 -0.2106 -0.1127
  206MOL    C9545605   7.216   2.047   1.797  0.3796 -0.4677  0.0766
  206MOL    O9645606   7.274   2.007   1.915 -0.0502 -0.3615  0.0431
  206MOL    H9745607   7.325   2.230   1.785 -0.0485 -1.7980  1.1075
  206MOL    H9845608   7.245   2.295   1.564  1.0930 -1.0775 -1.4066
  206MOL    H9945609   7.024   1.930   1.542  0.3846  1.0974 -1.4163
  206MOL   H10045610   7.111   1.858   1.756  0.6665 -0.4152 -0.4154
  206MOL   C10145611   7.019   2.069   2.170 -0.1083 -0.1137  0.0856
  206MOL   C10245612   7.079   2.063   2.046  0.4888  0.3140 -0.7951
  206MOL   C10345613   7.206   1.999   2.031 -0.4382  0.2162 -0.2549
  206MOL   C10445614   7.269   1.942   2.144  0.4863 -0.2372 -0.4100
  206MOL   C10545615   7.211   1.942   2.277 -0.6460  0.4313  0.7144
  206MOL   C10645616   7.085   2.009   2.285  0.0347  0.0684 -0.3056
  206MOL   O10745617   7.021   2.018   2.408 -0.6558  0.1995  0.6515
  206MOL   H10845618   6.918   2.105   2.178  0.2258  0.3976  2.5872
  206MOL   H10945619   7.025   2.113   1.966  1.9983 -0.0536 -2.0644
  206MOL   H11045620   7.362   1.887   2.133 -0.9180 -2.2679 -2.5899
  206MOL   H11145621   7.257   1.897   2.365 -0.0601  1.5120  0.9695
  206MOL   C11245622   7.074   2.349   2.565 -0.0599 -0.0681 -0.0200
  206MOL   C11345623   7.025   2.246   2.478 -0.2779  0.2021 -0.1966
  206MOL   C11445624   7.067   2.113   2.495 -0.7540  0.1207 -0.1561
  206MOL   C11545625   7.156   2.075   2.599  0.0878 -0.2860  0.3702
  206MOL   C11645626   7.188   2.171   2.688  0.5043 -0.4580 -0.2415
  206MOL   C11745627   7.149   2.307   2.677  0.6605  0.6468 -0.3034
  206MOL   O11845628   7.174   2.392   2.778 -0.1058 -0.0821  0.3052
  206MOL   H11945629   7.033   2.448   2.554 -1.7577 -0.9267 -1.5729
  206MOL   H12045630   6.951   2.279   2.407 -1.4858 -1.3051  0.3531
  206MOL   H12145631   7.190   1.973   2.608 -1.9082 -1.1343 -1.2956
  206MOL   H12245632   7.260   2.141   2.763 -3.2154 -1.1958  3.2341
  206MOL   C12345633   6.973   2.259   3.058 -0.4538 -0.1985 -0.3193
  206MOL   C12445634   7.010   2.286   2.928 -0.9286  0.4669 -0.2934
  206MOL   C12545635   7.132   2.349   2.904 -0.4025 -0.2988  0.0724
  206MOL   C12645636   7.216   2.381   3.010  0.4174 -0.3495  0.3427
  206MOL   C12745637   7.172   2.357   3.147  0.2106 -0.3818  0.8578
  206MOL   C12845638   7.044   2.302   3.168  0.1193  0.0054 -0.2327
  206MOL   O12945639   6.988   2.287   3.293  0.3215  0.2582  0.1024
  206MOL   H13045640   6.870   2.227   3.061 -0.7673  0.8933  0.8360
  206MOL   H13145641   6.954   2.256   2.841  0.6339 -1.6365 -0.6148
  206MOL   H13245642   7.317   2.415   2.991 -0.1195  0.5956 -0.9418
  206MOL   H13345643   7.233   2.375   3.235 -0.2545  0.9844  0.9101
  206MOL   C13445644   6.918   2.612   3.457 -1.1841 -0.1338  0.5680
  206MOL   C13545645   6.990   2.505   3.390 -0.7626 -0.4676 -0.2118
  206MOL   C13645646   6.918   2.394   3.341 -0.5764 -0.2185 -0.9432
  206MOL   C13745647   6.781   2.387   3.371 -0.1799 -0.0766  0.0082
  206MOL   C13845648   6.714   2.489   3.445 -0.1323 -0.0999 -0.2381
  206MOL   C13945649   6.780   2.608   3.486 -0.2912 -0.5053 -0.3237
  206MOL   O14045650   6.722   2.719   3.549  0.1791  0.0106  0.0272
  206MOL   H14145651   6.972   2.705   3.469 -0.7313  0.1265 -2.9013
  206MOL   H14245652   7.097   2.518   3.384 -0.6918  0.0442  1.8590
  206MOL   H14345653   6.720   2.305   3.336 -0.1802  0.0232 -0.2270
  206MOL   H14445654   6.607   2.491   3.460 -0.1273  3.1968 -0.1431
  206MOL   C14545655   6.389   2.774   3.387  0.5068  0.2313 -0.0388
  206MOL   C14645656   6.530   2.752   3.404 -0.2756 -0.1911  0.2713
  206MOL   C14745657   6.586   2.741   3.537 -0.5054  0.2412 -0.1329
  206MOL   C14845658   6.507   2.767   3.650 -0.5886  0.6381  0.0019
  206MOL   C14945659   6.366   2.787   3.633 -0.6195  0.1069 -0.4244
  206MOL   C15045660   6.310   2.788   3.504 -0.3410 -0.7980 -0.2412
  206MOL   O15145661   6.173   2.802   3.494 -0.5822  0.0948  0.1302
  206MOL   H15245662   6.354   2.774   3.285 -0.4701 -3.1614  0.2421
  206MOL   H15345663   6.593   2.738   3.317 -1.8227  0.3804 -0.9638
  206MOL   H15445664   6.549   2.757   3.749  0.2343  1.6096 -0.2423
  206MOL   H15545665   6.305   2.799   3.722 -0.6596  1.7487 -0.6615
  206MOL   C15645666   5.938   2.926   3.756 -0.1224 -0.2640 -0.1692
  206MOL   C15745667   5.995   2.843   3.653  0.2497 -0.8619  0.2276
  206MOL   C15845668   6.104   2.887   3.580 -0.4474  1.0439  0.1864
  206MOL   C15945669   6.152   3.015   3.609  0.2637 -0.0139  0.4158
  206MOL   C16045670   6.094   3.097   3.703  0.5951  1.1379  0.7378
  206MOL   C16145671   5.993   3.055   3.786 -0.3263 -0.4704  0.1288
  206MOL   O16245672   5.943   3.120   3.897 -0.0130 -0.3978 -0.8992
  206MOL   H16345673   5.856   2.890   3.816 -0.3290  1.5579  0.6644
  206MOL   H16445674   5.953   2.745   3.635 -2.3299  0.6850 -2.8127
  206MOL   H16545675   6.238   3.044   3.550  0.6157  2.6346  2.1227
  206MOL   H16645676   6.144   3.192   3.717 -0.8902  2.2548 -1.2560
  206MOL   C16745677   5.846   3.472   3.826  0.7142  0.6120 -0.2932
  206MOL   C16845678   5.919   3.358   3.833 -0.5213 -0.2961  0.2416
  206MOL   C16945679   5.867   3.232   3.870  0.2193 -0.1801  0.8007
  206MOL   C17045680   5.732   3.216   3.899  0.5154 -0.4233  0.3371
  206MOL   C17145681   5.657   3.331   3.895 -1.2666 -0.2441 -0.1233
  206MOL   C17245682   5.707   3.460   3.857  0.2947  0.3725 -0.5339
  206MOL   O17345683   5.617   3.562   3.857  0.6611 -0.0892 -0.2849
  206MOL   H17445684   5.876   3.574   3.806  0.0781  0.7449 -0.5917
  206MOL   H17545685   6.024   3.363   3.813 -0.4899  0.4884  0.5780
  206MOL   H17645686   5.692   3.118   3.920  1.1072 -1.2886 -2.3400
  206MOL   H17745687   5.551   3.319   3.911 -1.5915  0.8698 -1.3278
  206MOL   C17845688   5.693   3.773   4.159 -0.4389 -0.0667  0.4009
  206MOL   C17945689   5.653   3.666   4.080 -0.9248  0.3778  0.0038
  206MOL   C18045690   5.648   3.673   3.936 -0.4832 -0.2099  0.0716
  206MOL   C18145691   5.674   3.797   3.879 -0.4710  0.0518  0.1050
  206MOL   C18245692   5.715   3.901   3.959 -0.7030  0.3335 -0.0879
  206MOL   C18345693   5.726   3.894   4.096 -0.5299  0.4526 -0.2665
  206MOL   O18445694   5.773   4.004   4.163 -0.1437  0.2774 -0.4447
  206MOL   H18545695   5.700   3.766   4.267 -1.2719 -0.4304  0.4415
  206MOL   H18645696   5.628   3.568   4.120  1.4570 -0.8487 -1.4136
  206MOL   H18745697   5.674   3.811   3.772  2.4054 -1.0627 -0.1070
  206MOL   H18845698   5.745   3.993   3.911 -0.1058 -0.3094 -0.9603
  206MOL   C18945699   5.589   4.119   4.458  0.6071  0.3154 -0.4926
  206MOL   C19045700   5.625   4.093   4.325  0.4027  0.6001 -0.2914
  206MOL   C19145701   5.743   4.021   4.296  0.1189  1.0440  0.5547
  206MOL   C19245702   5.812   3.959   4.401 -0.1402  0.2809  0.2595
  206MOL   C19345703   5.781   3.990   4.530  0.7590 -0.2515 -0.0392
  206MOL   C19445704   5.670   4.078   4.561 -0.5287  0.3604 -1.5108
  206MOL   O19545705   5.628   4.081   4.693 -0.3053 -0.3436  0.3418
  206MOL   H19645706   5.499   4.177   4.472  0.1763 -0.6280  0.7306
  206MOL   H19745707   5.560   4.131   4.247  1.2908  0.7934 -0.9400
  206MOL   H19845708   5.900   3.898   4.384  0.9885  1.6268  1.1618
  206MOL   H19945709   5.841   3.950   4.610  0.7057  0.9578  0.6186
  206MOL   C20045710   5.403   4.303   4.865  0.5540 -0.7399  0.3413
  206MOL   C20145711   5.462   4.193   4.812  0.9397 -0.1262 -0.5436
  206MOL   C20245712   5.579   4.198   4.739  0.3715  0.5364 -0.0408
  206MOL   C20345713   5.639   4.324   4.714 -0.4990  1.0719 -0.4127
  206MOL   C20445714   5.579   4.442   4.757  0.0564 -0.1554 -0.4349
  206MOL   C20545715   5.457   4.434   4.834 -0.1315  0.1898  0.0319
  206MOL   O20645716   5.375   4.544   4.877 -0.5225 -0.6605  0.0660
  206MOL   H20745717   5.314   4.292   4.925 -0.7730 -3.1339 -1.9877
  206MOL   H20845718   5.409   4.099   4.818 -0.5283  0.7672  0.9205
  206MOL   H20945719   5.724   4.335   4.649 -0.7323  0.2584 -0.8658
  206MOL   H21045720   5.630   4.533   4.731 -0.2962  0.1861  0.0696
  206MOL   C21145721   5.550   4.861   4.865  0.0210  0.1355  0.0662
  206MOL   C21245722   5.513   4.733   4.900 -0.5092  0.3050  0.1468
  206MOL   C21345723   5.413   4.667   4.832  0.7298  0.5687 -0.0249
  206MOL   C21445724   5.369   4.716   4.706 -0.3676 -0.0367  0.0084
  206MOL   C21545725   5.425   4.840   4.657 -0.1936  0.3833  0.2678
  206MOL   C21645726   5.508   4.917   4.743 -0.0951 -0.2359 -0.0316
  206MOL   O21745727   5.542   5.044   4.708 -0.1220  0.0997 -0.2729
  206MOL   H21845728   5.611   4.925   4.927 -0.6180  0.6989  0.1143
  206MOL   H21945729   5.541   4.694   4.997  0.2962  2.0279  0.6095
  206MOL   H22045730   5.301   4.654   4.650 -0.7333  1.8517 -1.7263
  206MOL   H22145731   5.402   4.887   4.563 -0.5194  1.2862  0.7964
  206MOL   H22245732   5.475   5.101   4.674  0.6367  1.0154 -0.2522
  207MOL     C145733   6.740   4.141   3.641 -0.1358 -0.2121  0.5434
  207MOL     C245734   6.705   4.253   3.560 -0.0391  0.2291 -0.3710
  207MOL     C345735   6.767   4.375   3.581 -0.2791  0.3435 -0.1356
  207MOL     C445736   6.862   4.388   3.688 -0.3873 -0.5221 -0.1472
  207MOL     C545737   6.913   4.276   3.755 -0.1016 -0.3294  0.9323
  207MOL     C645738   6.850   4.150   3.730  0.0400  0.0178  0.6758
  207MOL     O745739   6.895   4.035   3.789  0.4047  0.5464  0.2562
  207MOL     H845740   6.690   4.046   3.631  1.4538 -0.8054 -2.3422
  207MOL     H945741   6.626   4.249   3.486 -0.0014  3.4899 -0.6534
  207MOL    H1045742   6.901   4.486   3.713  1.6039  0.0011 -4.8360
  207MOL    H1145743   6.974   4.290   3.843 -2.1087 -0.9124  2.4638
  207MOL    H1245744   6.745   4.467   3.529  2.7868  1.7001  0.7920
  207MOL    C1345745   7.207   3.895   3.639 -0.2360 -0.1005  0.7125
  207MOL    C1445746   7.067   3.922   3.654  1.0299 -0.1208 -0.4871
  207MOL    C1545747   7.027   4.003   3.762  0.4472  0.3807 -0.4894
  207MOL    C1645748   7.119   4.061   3.845  0.0126 -0.4120  0.5466
  207MOL    C1745749   7.255   4.034   3.833  0.3027  1.0664 -0.7914
  207MOL    C1845750   7.301   3.953   3.731  0.1297  0.4101  0.5943
  207MOL    O1945751   7.438   3.918   3.724  0.6143 -0.0574 -0.6914
  207MOL    H2045752   7.248   3.833   3.560 -0.7311  1.7142 -1.0153
  207MOL    H2145753   6.996   3.876   3.587  1.6034 -1.3571 -0.2684
  207MOL    H2245754   7.085   4.111   3.934  2.0483  1.0352  0.5498
  207MOL    H2345755   7.317   4.070   3.914 -0.7960  1.4626 -0.1144
  207MOL    C2445756   7.636   3.853   4.025 -0.7600  0.0042  0.1894
  207MOL    C2545757   7.605   3.907   3.903  0.4397 -0.0100 -0.0578
  207MOL    C2645758   7.495   3.854   3.833 -0.6560  0.3256  0.5508
  207MOL    C2745759   7.433   3.736   3.873  0.0431  0.1328 -0.1505
  207MOL    C2845760   7.473   3.673   3.987  0.0651  0.7101  0.7294
  207MOL    C2945761   7.570   3.735   4.067 -0.1298 -0.1715 -0.1268
  207MOL    O3045762   7.619   3.675   4.180 -0.3536  1.0326 -0.3803
  207MOL    H3145763   7.718   3.886   4.087 -1.5255 -1.4473  2.0239
  207MOL    H3245764   7.639   4.006   3.875 -0.6422 -0.1581 -1.9554
  207MOL    H3345765   7.340   3.712   3.824 -0.4549  2.7501 -0.5854
  207MOL    H3445766   7.424   3.583   4.020 -1.5302  1.6499  1.0018
  207MOL    C3545767   7.392   3.713   4.475  0.3398  0.1156 -0.0072
  207MOL    C3645768   7.433   3.695   4.340 -0.2806  0.3365 -0.0518
  207MOL    C3745769   7.572   3.711   4.302  0.4935 -0.5925  0.2194
  207MOL    C3845770   7.665   3.754   4.398 -0.0029  0.0892  0.0319
  207MOL    C3945771   7.629   3.765   4.535 -0.3342  0.0856  0.0905
  207MOL    C4045772   7.492   3.743   4.571  0.7492 -0.3061 -0.9059
  207MOL    O4145773   7.449   3.750   4.705  0.4092  0.7862  0.4259
  207MOL    H4245774   7.299   3.694   4.525 -0.0036 -0.2715 -0.7842
  207MOL    H4345775   7.368   3.669   4.258  2.8652  1.3906 -2.9908
  207MOL    H4445776   7.768   3.766   4.370 -0.4656  0.5483 -1.5178
  207MOL    H4545777   7.709   3.789   4.603 -0.5789 -0.8552  0.7189
  207MOL    C4645778   7.529   3.959   4.997  0.6952  0.9743  0.6004
  207MOL    C4745779   7.521   3.849   4.909  0.9449 -0.5019 -0.5224
  207MOL    C4845780   7.464   3.864   4.780 -0.3036 -0.0014 -0.4028
  207MOL    C4945781   7.408   3.986   4.739 -0.2435  0.3329  0.1301
  207MOL    C5045782   7.411   4.097   4.831 -0.0638 -0.3638  0.1168
  207MOL    C5145783   7.469   4.082   4.962  0.7258  0.5460  0.6710
  207MOL    O5245784   7.475   4.186   5.053 -0.3221  0.4450  0.7117
  207MOL    H5345785   7.587   3.953   5.088 -1.3507  0.3222  1.9047
  207MOL    H5445786   7.560   3.752   4.936 -1.2959 -1.1167  0.6051
  207MOL    H5545787   7.374   4.006   4.639  0.6577 -1.2453 -0.5059
  207MOL    H5645788   7.363   4.188   4.797 -0.8103 -0.9082 -0.2908
  207MOL    C5745789   7.262   4.483   4.981  0.0881 -0.3472 -0.2115
  207MOL    C5845790   7.374   4.397   4.987  0.4067  0.5158  0.4090
  207MOL    C5945791   7.370   4.274   5.049 -1.3408  0.1575  0.8758
  207MOL    C6045792   7.253   4.238   5.118 -0.8615 -0.0304 -0.1884
  207MOL    C6145793   7.143   4.321   5.114  0.0082  0.1291 -0.3910
  207MOL    C6245794   7.148   4.447   5.052  0.2384  0.1998  0.5294
  207MOL    O6345795   7.035   4.531   5.059  0.1980  0.7852 -0.0797
  207MOL    H6445796   7.274   4.580   4.934 -0.4415  0.2086  0.7947
  207MOL    H6545797   7.465   4.418   4.932  0.5967 -0.3702  0.3742
  207MOL    H6645798   7.242   4.148   5.177 -3.2052  0.0889 -0.3713
  207MOL    H6745799   7.054   4.281   5.161 -0.6464  1.8006 -0.1446
  207MOL    C6845800   7.104   4.844   5.233 -0.0658 -0.4248  0.1969
  207MOL    C6945801   7.099   4.707   5.210 -0.0621  0.3174  0.0541
  207MOL    C7045802   7.057   4.663   5.083  0.2389  0.2626 -0.2982
  207MOL    C7145803   7.024   4.755   4.979 -0.0541  1.0072 -1.0497
  207MOL    C7245804   7.029   4.895   5.006 -0.3569 -0.1279 -0.2614
  207MOL    C7345805   7.064   4.941   5.137  0.2793  0.2388 -0.7215
  207MOL    O7445806   7.071   5.076   5.171  0.3036  0.0151 -0.1014
  207MOL    H7545807   7.132   4.872   5.333 -2.2296 -1.5048  1.1556
  207MOL    H7645808   7.131   4.634   5.284 -0.1450  1.0427  0.8133
  207MOL    H7745809   6.979   4.716   4.889 -0.7710  0.4751 -0.4693
  207MOL    H7845810   6.999   4.971   4.936  0.2904 -1.5509 -2.1068
  207MOL    C7945811   6.898   5.398   5.151 -0.2645  0.6292  0.7233
  207MOL    C8045812   7.001   5.299   5.161  0.3958  0.0811  0.3176
  207MOL    C8145813   6.967   5.163   5.149 -0.1435  0.0084  0.5237
  207MOL    C8245814   6.833   5.120   5.121 -0.1516 -0.2257 -0.5943
  207MOL    C8345815   6.738   5.216   5.106  0.5217  0.3644  0.5900
  207MOL    C8445816   6.763   5.354   5.131  0.1735 -0.4058 -0.2997
  207MOL    O8545817   6.666   5.451   5.125  0.3118  0.2041 -0.1794
  207MOL    H8645818   6.922   5.503   5.158  1.2605  0.1790  2.5402
  207MOL    H8745819   7.103   5.330   5.180  1.5675 -2.1136 -1.9761
  207MOL    H8845820   6.812   5.015   5.126  0.4848 -0.5008 -3.1113
  207MOL    H8945821   6.635   5.186   5.106  0.8723 -0.8593  1.2454
  207MOL    C9045822   6.473   5.621   4.849  0.2941  0.1983 -0.1542
  207MOL    C9145823   6.518   5.584   4.985 -0.2423  0.2044  0.1180
  207MOL    C9245824   6.628   5.497   4.999  0.3628  0.0865  0.1059
  207MOL    C9345825   6.704   5.461   4.883 -0.5902 -0.2811 -0.2745
  207MOL    C9445826   6.662   5.499   4.754 -0.2508  0.2484  0.2629
  207MOL    C9545827   6.545   5.575   4.735  0.0092 -0.4222 -0.3823
  207MOL    O9645828   6.503   5.623   4.609  0.2452  0.4410 -0.2941
  207MOL    H9745829   6.382   5.679   4.851  0.3318  0.3344 -1.9760
  207MOL    H9845830   6.469   5.631   5.069  1.4126  2.9394 -0.3596
  207MOL    H9945831   6.799   5.410   4.887 -0.6218 -0.3638 -0.5277
  207MOL   H10045832   6.720   5.479   4.665 -1.4234 -1.5307 -0.1306
  207MOL   C10145833   6.689   5.920   4.510  0.1009 -0.7804  0.3717
  207MOL   C10245834   6.657   5.794   4.564  0.2516  0.0830  0.4106
  207MOL   C10345835   6.527   5.751   4.573  0.3300  0.3968 -0.9237
  207MOL   C10445836   6.421   5.836   4.543  0.5096 -0.3496 -0.4120
  207MOL   C10545837   6.448   5.962   4.487  0.3048 -0.8928  1.1117
  207MOL   C10645838   6.578   6.003   4.474  0.0352 -0.1636 -0.1597
  207MOL   O10745839   6.603   6.133   4.423  0.2714  0.0493 -0.0139
  207MOL   H10845840   6.792   5.950   4.497  0.0374 -0.5171  0.4707
  207MOL   H10945841   6.739   5.742   4.609 -0.8015 -0.8831  1.2380
  207MOL   H11045842   6.320   5.801   4.555 -0.4252  2.4233  0.0892
  207MOL   H11145843   6.369   6.028   4.454 -0.6426 -3.3938 -1.9521
  207MOL   C11245844   6.718   6.417   4.642 -0.7971  0.1086 -0.1323
  207MOL   C11345845   6.638   6.311   4.585  0.2947 -0.7860  0.0911
  207MOL   C11445846   6.689   6.222   4.489 -0.9456 -0.2118 -0.5132
  207MOL   C11545847   6.828   6.231   4.461  0.1304 -0.3039 -0.0184
  207MOL   C11645848   6.914   6.327   4.524  0.7326 -0.0478  0.0035
  207MOL   C11745849   6.859   6.420   4.618  0.2839 -0.8458  0.0848
  207MOL   O11845850   6.936   6.524   4.672  0.3173 -0.0070  0.0726
  207MOL   H11945851   6.670   6.486   4.710 -1.0921 -0.2889  0.0680
  207MOL   H12045852   6.531   6.302   4.600  0.2858 -1.6053 -0.4468
  207MOL   H12145853   6.879   6.166   4.392 -1.2338 -1.8612  0.3905
  207MOL   H12245854   7.015   6.326   4.487  0.7927  0.6510  0.1513
  207MOL   C12345855   6.826   6.691   4.973 -0.5162  0.1003 -0.2947
  207MOL   C12445856   6.861   6.668   4.840  0.4646 -0.7057 -0.1139
  207MOL   C12545857   6.918   6.548   4.804 -0.3964 -0.5789 -0.0600
  207MOL   C12645858   6.950   6.456   4.906 -0.0872  0.7689  0.1727
  207MOL   C12745859   6.914   6.478   5.040  0.7440 -0.1506 -0.2513
  207MOL   C12845860   6.864   6.600   5.075  0.6900 -0.1897 -0.0318
  207MOL   O12945861   6.847   6.627   5.207  0.1291 -0.2415  0.2604
  207MOL   H13045862   6.780   6.786   4.998 -3.5740 -0.9498 -1.6847
  207MOL   H13145863   6.832   6.747   4.772  0.7318  0.0960  0.7095
  207MOL   H13245864   7.004   6.367   4.878 -0.9926 -0.4850  2.2861
  207MOL   H13345865   6.936   6.407   5.118  0.6817 -2.2064 -2.0461
  207MOL   C13445866   6.526   6.710   5.383 -0.0436 -0.4215 -0.4830
  207MOL   C13545867   6.652   6.732   5.313 -0.0257 -0.2282  0.2591
  207MOL   C13645868   6.724   6.616   5.271 -0.0656  0.3613  0.6041
  207MOL   C13745869   6.678   6.486   5.299  0.1567  0.0766  1.1455
  207MOL   C13845870   6.551   6.467   5.362 -0.0073  0.3494  0.0699
  207MOL   C13945871   6.476   6.576   5.407  0.0643 -0.2154 -0.7110
  207MOL   O14045872   6.359   6.563   5.471  0.5549  0.0122 -0.0270
  207MOL   H14145873   6.465   6.794   5.412 -0.1620 -0.7016  0.0784
  207MOL   H14245874   6.681   6.833   5.291 -0.4531 -0.1458  0.0737
  207MOL   H14345875   6.737   6.396   5.288 -0.0958  0.1471 -0.9783
  207MOL   H14445876   6.513   6.369   5.388 -1.6254  1.0733  0.4640
  207MOL   C14545877   6.080   6.563   5.244 -0.4846  0.1208  0.1966
  207MOL   C14645878   6.200   6.524   5.305 -0.5802 -0.2159  0.0646
  207MOL   C14745879   6.249   6.603   5.408  0.5831  0.0242 -0.1343
  207MOL   C14845880   6.185   6.717   5.460  0.5849 -0.1419  0.4308
  207MOL   C14945881   6.073   6.760   5.389 -0.1998 -0.5608  0.8221
  207MOL   C15045882   6.017   6.684   5.278  0.2516 -0.2330 -0.3626
  207MOL   O15145883   5.891   6.722   5.228 -0.6289 -0.0126 -0.8076
  207MOL   H15245884   6.039   6.499   5.168 -0.8374 -2.3613  2.4127
  207MOL   H15345885   6.242   6.427   5.285 -1.7238 -0.4189 -1.3946
  207MOL   H15445886   6.220   6.773   5.545 -0.7028 -1.0092  1.5498
  207MOL   H15545887   6.016   6.846   5.420 -1.0923 -0.5270 -0.8915
  207MOL   C15645888   5.798   6.656   4.872  0.2989  0.3208  0.3151
  207MOL   C15745889   5.810   6.642   5.011  0.3516 -0.4734  0.4734
  207MOL   C15845890   5.880   6.738   5.093  0.2144  0.0465  0.4532
  207MOL   C15945891   5.942   6.851   5.027 -0.6985 -0.8119  0.9575
  207MOL   C16045892   5.935   6.862   4.888  0.4566  0.1037  0.6734
  207MOL   C16145893   5.856   6.772   4.806 -0.3054 -0.3555  0.4004
  207MOL   O16245894   5.845   6.783   4.670  0.1279  0.3322  0.7939
  207MOL   H16345895   5.739   6.584   4.818  1.2318 -0.6726  0.5983
  207MOL   H16445896   5.755   6.566   5.065  1.1311 -1.4157 -0.0371
  207MOL   H16545897   5.989   6.924   5.091  0.3348  0.2348 -0.9490
  207MOL   H16645898   5.985   6.947   4.843 -0.0639  0.1844  0.2354
  207MOL   C16745899   5.764   6.467   4.489 -0.4968  0.4044 -0.3649
  207MOL   C16845900   5.840   6.571   4.548 -0.5771 -0.5478 -0.5050
  207MOL   C16945901   5.778   6.679   4.603  0.4377 -0.8528  0.3607
  207MOL   C17045902   5.639   6.681   4.609 -0.0001 -0.1926  0.3807
  207MOL   C17145903   5.563   6.579   4.552 -0.0405  0.0653  0.1473
  207MOL   C17245904   5.631   6.471   4.484 -0.3542 -0.7278 -0.0991
  207MOL   O17345905   5.557   6.386   4.404  0.3300 -0.9895  0.1746
  207MOL   H17445906   5.820   6.393   4.432  0.0767  1.2309 -0.8792
  207MOL   H17545907   5.948   6.565   4.552 -0.4603  2.0513  1.4000
  207MOL   H17645908   5.591   6.772   4.643  1.8672  1.5713 -1.5391
  207MOL   H17745909   5.458   6.604   4.548  0.2224  1.2336  0.6073
  207MOL   C17845910   5.192   6.438   4.416 -0.6609  0.5686 -0.1741
  207MOL   C17945911   5.327   6.445   4.378 -0.0237  0.3275  0.6843
  207MOL   C18045912   5.429   6.366   4.438 -0.0830 -0.2635  0.3612
  207MOL   C18145913   5.390   6.271   4.536 -0.0590  0.2524  0.4269
  207MOL   C18245914   5.258   6.265   4.569  0.4054  0.2797 -0.1958
  207MOL   C18345915   5.163   6.353   4.517 -0.6426 -0.0377  0.4078
  207MOL   O18445916   5.035   6.344   4.566  0.6521 -0.4090  0.1658
  207MOL   H18545917   5.116   6.502   4.374  0.0752  1.8177  0.3652
  207MOL   H18645918   5.354   6.519   4.303 -0.1587  0.0172  0.3305
  207MOL   H18745919   5.466   6.215   4.590 -0.0231 -0.5410 -0.4297
  207MOL   H18845920   5.214   6.190   4.633  0.3898  0.5315  0.0891
  207MOL   C18945921   4.980   6.677   4.702  0.1365 -0.1140  0.1519
  207MOL   C19045922   5.040   6.553   4.683  0.5304 -0.0948 -0.6350
  207MOL   C19145923   4.974   6.461   4.597 -0.2275  0.2311 -0.7643
  207MOL   C19245924   4.858   6.503   4.536  0.4324  0.7335  0.0516
  207MOL   C19345925   4.794   6.623   4.560 -0.4674 -0.3624  0.0007
  207MOL   C19445926   4.856   6.716   4.645  0.1076  0.3428  0.2059
  207MOL   O19545927   4.788   6.831   4.673 -0.6826  0.3272  0.0524
  207MOL   H19645928   5.026   6.743   4.774 -2.1119  0.0382  1.4842
  207MOL   H19745929   5.127   6.519   4.738 -1.3105 -0.2274  2.3313
  207MOL   H19845930   4.812   6.439   4.462  0.9347  0.1096  0.2676
  207MOL   H19945931   4.698   6.651   4.518 -1.4435 -2.0001  1.0931
  207MOL   C20045932   4.829   6.884   5.039 -0.6691 -0.3765  0.5410
  207MOL   C20145933   4.782   6.837   4.914  0.6063 -1.1620  0.0797
  207MOL   C20245934   4.818   6.896   4.788  0.0357  0.3483 -0.1612
  207MOL   C20345935   4.915   6.996   4.785 -0.6691  0.7698  0.3499
  207MOL   C20445936   4.961   7.045   4.909 -0.0997  0.0830  0.1891
  207MOL   C20545937   4.924   6.987   5.034 -0.2390 -0.0029  0.2987
  207MOL   O20645938   4.981   7.035   5.148 -0.3508  0.4412  0.1523
  207MOL   H20745939   4.800   6.841   5.133  1.2316 -1.7848  0.5238
  207MOL   H20845940   4.723   6.746   4.916 -3.0350  1.0783 -0.6468
  207MOL   H20945941   4.964   7.017   4.691  0.8090 -2.4688  0.3511
  207MOL   H21045942   5.032   7.127   4.913 -1.3146  1.0810  2.1730
  207MOL   C21145943   4.938   7.372   5.298  0.3432  0.4157  0.0885
  207MOL   C21245944   5.000   7.258   5.232 -0.6314  0.3335  0.4922
  207MOL   C21345945   4.920   7.145   5.204 -0.0071  0.2166 -0.2220
  207MOL   C21445946   4.783   7.145   5.237 -0.2658  1.0512 -0.2764
  207MOL   C21545947   4.717   7.253   5.296 -0.1521  0.5952  0.3490
  207MOL   C21645948   4.798   7.367   5.327 -0.3305 -0.7421  0.2917
  207MOL   O21745949   4.740   7.466   5.406 -0.0736  0.0109  0.1534
  207MOL   H21845950   4.995   7.456   5.334  2.2672 -0.3629 -1.0663
  207MOL   H21945951   5.105   7.253   5.210 -0.9513  0.0460 -1.0281
  207MOL   H22045952   4.723   7.057   5.221  0.4994  0.9151 -2.7045
  207MOL   H22145953   4.612   7.241   5.318 -0.0079  1.0588  1.3133
  207MOL   H22245954   4.649   7.457   5.428  0.0385 -0.0911  0.5848
  208MOL     C145955   3.657   4.884   2.922 -0.2926 -0.1910  0.2333
  208MOL     C245956   3.687   4.893   3.059 -0.5816 -0.3610 -0.1614
  208MOL     C345957   3.726   4.778   3.130  0.5836  1.0286  0.6069
  208MOL     C445958   3.708   4.648   3.071  0.0451  0.3229 -0.1758
  208MOL     C545959   3.663   4.640   2.933  0.2932 -0.5543 -0.4852
  208MOL     C645960   3.645   4.757   2.862  0.3279 -0.5198  0.1497
  208MOL     O745961   3.614   4.754   2.731  0.9287 -0.0872  0.3796
  208MOL     H845962   3.632   4.976   2.871 -0.4445 -0.4744 -0.2121
  208MOL     H945963   3.687   4.983   3.119 -0.6858 -0.9911  0.8057
  208MOL    H1045964   3.721   4.564   3.138 -2.5484  0.5257  0.6749
  208MOL    H1145965   3.652   4.542   2.889  1.1567 -0.4051 -1.0314
  208MOL    H1245966   3.749   4.787   3.235 -1.0946  2.0047  0.9055
  208MOL    C1345967   3.435   5.049   2.608  0.0387 -0.1536 -0.3869
  208MOL    C1445968   3.539   4.953   2.620 -0.2012  1.1946 -0.0698
  208MOL    C1545969   3.510   4.838   2.698 -0.3905  0.1216  0.2389
  208MOL    C1645970   3.381   4.798   2.729 -0.0168 -0.3976 -0.3108
  208MOL    C1745971   3.280   4.891   2.714 -0.1710 -0.5415  0.9178
  208MOL    C1845972   3.305   5.015   2.656 -0.1070 -0.3523  0.0888
  208MOL    O1945973   3.198   5.100   2.656 -0.1040 -1.1306  0.2820
  208MOL    H2045974   3.460   5.144   2.562 -2.8818 -0.3338 -2.5497
  208MOL    H2145975   3.642   4.979   2.599 -0.0903  0.3526 -0.5452
  208MOL    H2245976   3.365   4.702   2.778  0.1231  0.4842  1.5066
  208MOL    H2345977   3.179   4.864   2.740  0.1067 -0.9292  1.6266
  208MOL    C2445978   3.193   5.374   2.402 -0.3890 -0.3367 -0.1793
  208MOL    C2545979   3.223   5.305   2.522  0.0988  0.2854 -0.6838
  208MOL    C2645980   3.170   5.169   2.534  0.2396  0.4291  0.4705
  208MOL    C2745981   3.091   5.120   2.435 -0.1374  0.8279 -0.4364
  208MOL    C2845982   3.068   5.191   2.312  0.1918 -0.8719 -0.3159
  208MOL    C2945983   3.129   5.314   2.297  0.1090 -0.1511  0.5502
  208MOL    O3045984   3.110   5.381   2.177 -0.4910  0.3520  0.3714
  208MOL    H3145985   3.233   5.474   2.395 -0.1031 -0.5188 -1.3329
  208MOL    H3245986   3.294   5.343   2.594  0.4703  0.7873 -1.3048
  208MOL    H3345987   3.039   5.026   2.448  2.1048 -0.1860  1.5668
  208MOL    H3445988   3.003   5.145   2.239  0.2239 -0.3071 -0.7050
  208MOL    C3545989   3.214   5.275   1.842 -0.0141  0.4157  0.5681
  208MOL    C3645990   3.129   5.299   1.950 -0.0047 -0.1647 -0.2355
  208MOL    C3745991   3.186   5.343   2.070 -0.0440  0.2808  0.1013
  208MOL    C3845992   3.324   5.365   2.084  0.7227 -0.4731  0.2850
  208MOL    C3945993   3.412   5.342   1.976 -0.1312 -0.3069 -0.3408
  208MOL    C4045994   3.356   5.287   1.857 -0.0011 -0.1293  0.3510
  208MOL    O4145995   3.437   5.244   1.752 -0.2010  0.2093  0.5887
  208MOL    H4245996   3.179   5.247   1.743  1.2551  2.3135 -0.4599
  208MOL    H4345997   3.022   5.299   1.938 -0.0513 -1.2204  0.0709
  208MOL    H4445998   3.359   5.391   2.183 -0.2176  0.6577  0.3281
  208MOL    H4545999   3.517   5.368   1.980 -0.4385  1.0569 -0.8091
  208MOL    C4646000   3.510   4.892   1.849  0.3986  0.8424 -0.3782
  208MOL    C4746001   3.469   5.028   1.857  0.4930  0.3120  0.3258
  208MOL    C4846002   3.478   5.112   1.749  0.0454 -0.6493 -0.5067
  208MOL    C4946003   3.552   5.065   1.642  0.0127 -0.5101  0.2891
  208MOL    C5046004   3.606   4.935   1.635 -0.1175 -0.7945 -0.6630
  208MOL    C5146005   3.588   4.844   1.738  0.3951 -0.6579  0.4941
  208MOL    O5246006   3.646   4.724   1.735 -0.2407  0.1283  0.4957
  208MOL    H5346007   3.511   4.814   1.924  2.1264  1.4676  0.2667
  208MOL    H5446008   3.421   5.057   1.950  1.6153 -2.7569  1.9212
  208MOL    H5546009   3.579   5.135   1.565  1.7818 -1.0292  0.3928
  208MOL    H5646010   3.666   4.910   1.549  1.3042 -0.0836  0.1202
  208MOL    C5746011   3.902   4.651   1.979 -0.0591  0.3761 -0.0862
  208MOL    C5846012   3.776   4.661   1.917  0.4005  0.2442  0.4662
  208MOL    C5946013   3.763   4.715   1.789 -0.6171 -0.1205 -0.3237
  208MOL    C6046014   3.882   4.754   1.724 -0.4649  0.6310 -0.2149
  208MOL    C6146015   4.009   4.742   1.787 -0.2243  0.1574  0.3557
  208MOL    C6246016   4.017   4.696   1.917 -0.0836 -0.1606 -0.0007
  208MOL    O6346017   4.138   4.689   1.984  0.1845 -0.5522 -0.0846
  208MOL    H6446018   3.908   4.615   2.080  1.5454 -1.2776 -0.7594
  208MOL    H6546019   3.690   4.626   1.971  0.7149  0.6098  1.2056
  208MOL    H6646020   3.866   4.769   1.618 -1.5274 -2.6050 -0.5631
  208MOL    H6746021   4.097   4.751   1.725 -0.3458 -2.6810 -0.2655
  208MOL    C6846022   4.471   4.701   1.813 -0.0771 -0.7989 -0.7665
  208MOL    C6946023   4.346   4.743   1.869  0.5361 -0.2265  0.0491
  208MOL    C7046024   4.247   4.649   1.914  0.6421 -0.0183  0.0702
  208MOL    C7146025   4.279   4.514   1.899  0.5497  0.1479 -0.3466
  208MOL    C7246026   4.399   4.473   1.837  1.1419  0.5931  0.1149
  208MOL    C7346027   4.498   4.567   1.811  0.3380  0.0991  0.8688
  208MOL    O7446028   4.619   4.529   1.773  0.1092 -0.4074  0.3244
  208MOL    H7546029   4.546   4.777   1.795  0.5838 -0.4934  2.9318
  208MOL    H7646030   4.324   4.847   1.889  0.2783 -0.0048 -1.2989
  208MOL    H7746031   4.210   4.439   1.934  0.4127  0.3643 -0.1552
  208MOL    H7846032   4.424   4.368   1.840  0.9783  0.5201 -0.9734
  208MOL    C7946033   4.917   4.333   1.875 -0.0190  0.6362  0.3639
  208MOL    C8046034   4.817   4.392   1.794  0.3634  0.0334  0.4551
  208MOL    C8146035   4.705   4.457   1.848  0.7540  0.2004  0.1064
  208MOL    C8246036   4.694   4.461   1.992 -0.0766 -0.1970 -0.2361
  208MOL    C8346037   4.798   4.411   2.069 -0.0698 -0.3211  0.2425
  208MOL    C8446038   4.910   4.345   2.018 -1.0093 -0.4957  1.0446
  208MOL    O8546039   5.014   4.301   2.097  0.0291  0.1350 -0.0539
  208MOL    H8646040   5.008   4.289   1.838  0.8548  1.4189  1.5346
  208MOL    H8746041   4.838   4.375   1.689  1.3097 -0.3705  0.7028
  208MOL    H8846042   4.610   4.508   2.041 -0.2962 -0.6236 -0.1939
  208MOL    H8946043   4.788   4.422   2.176  1.0789 -0.4445  0.3685
  208MOL    C9046044   4.984   3.963   2.224  0.0304  0.1248 -0.0288
  208MOL    C9146045   4.970   4.099   2.215 -0.0188 -0.3437 -0.5299
  208MOL    C9246046   5.030   4.165   2.105  0.2496 -0.2062  0.5370
  208MOL    C9346047   5.108   4.094   2.011 -0.0124 -0.4413 -0.6941
  208MOL    C9446048   5.124   3.958   2.029  0.7012 -1.4601  0.2567
  208MOL    C9546049   5.068   3.894   2.139 -0.4246  0.2792  0.0055
  208MOL    O9646050   5.090   3.764   2.166  0.1991 -0.7083 -0.0633
  208MOL    H9746051   4.940   3.904   2.304 -0.7422  0.7053 -0.0163
  208MOL    H9846052   4.905   4.153   2.282 -1.3475 -2.4626 -0.0812
  208MOL    H9946053   5.158   4.150   1.933  0.8240 -0.2251 -0.0069
  208MOL   H10046054   5.178   3.901   1.955  0.2147 -1.5649 -0.0254
  208MOL   C10146055   5.381   3.552   2.067 -0.1330 -0.3396 -0.6798
  208MOL   C10246056   5.248   3.602   2.076  0.4502 -0.1880 -0.0134
  208MOL   C10346057   5.217   3.711   2.157  0.0519  1.0455  0.4548
  208MOL   C10446058   5.331   3.775   2.219 -0.1398 -0.1184 -0.2207
  208MOL   C10546059   5.461   3.731   2.203  0.3132  0.2113  0.0059
  208MOL   C10646060   5.491   3.609   2.131 -0.1210 -0.1954 -0.0985
  208MOL   O10746061   5.618   3.567   2.104 -0.3149  0.2763 -0.1395
  208MOL   H10846062   5.390   3.464   2.006  0.4442  0.4359 -1.7350
  208MOL   H10946063   5.165   3.549   2.031 -2.0457  2.4324  1.3413
  208MOL   H11046064   5.315   3.872   2.265 -0.1825 -0.8151  1.2680
  208MOL   H11146065   5.539   3.797   2.237  0.7553  0.1591 -0.8873
  208MOL   C11246066   5.794   3.252   2.034  0.6607 -0.8351  0.2853
  208MOL   C11346067   5.740   3.381   2.017  0.2760  0.0735 -0.0447
  208MOL   C11446068   5.661   3.436   2.114 -0.5408 -0.4314 -0.1256
  208MOL   C11546069   5.637   3.373   2.234 -0.6125  1.0101 -0.1867
  208MOL   C11646070   5.691   3.248   2.253  0.2879  0.8726  0.0643
  208MOL   C11746071   5.775   3.188   2.159 -0.1374  0.3173  0.7183
  208MOL   O11846072   5.833   3.071   2.190 -0.6217 -0.0479  0.7781
  208MOL   H11946073   5.854   3.211   1.954  2.0974  0.6474  0.5826
  208MOL   H12046074   5.761   3.448   1.934  1.3629  0.2579  0.3612
  208MOL   H12146075   5.582   3.405   2.321  1.5796 -2.8282  2.7762
  208MOL   H12246076   5.685   3.197   2.348 -0.6664  0.9167  0.0390
  208MOL   C12346077   5.790   2.755   2.005 -0.0274 -0.1747 -0.2492
  208MOL   C12446078   5.849   2.875   2.048  0.5191  0.1980 -0.0508
  208MOL   C12546079   5.784   2.958   2.132 -0.0071  0.2559 -0.2834
  208MOL   C12646080   5.648   2.921   2.173  0.1871  0.1212 -0.3892
  208MOL   C12746081   5.589   2.799   2.138 -0.0800 -0.9465 -0.0481
  208MOL   C12846082   5.656   2.718   2.043 -0.4822  0.2511  0.1288
  208MOL   O12946083   5.589   2.608   2.003  0.0268 -0.2371 -0.3863
  208MOL   H13046084   5.836   2.687   1.934 -0.5652 -0.3643 -0.4159
  208MOL   H13146085   5.952   2.899   2.024  1.2431 -1.7510  0.9823
  208MOL   H13246086   5.600   2.979   2.251 -1.5519 -1.4790 -0.2264
  208MOL   H13346087   5.491   2.772   2.175  0.0539 -1.1530  0.1592
  208MOL   C13446088   5.739   2.281   1.918 -0.0825  0.4536 -0.0401
  208MOL   C13546089   5.679   2.406   1.905 -0.0185 -0.5112 -1.0258
  208MOL   C13646090   5.650   2.489   2.017 -0.3217 -0.0970 -0.1432
  208MOL   C13746091   5.669   2.440   2.146 -0.2912  0.0513  0.2318
  208MOL   C13846092   5.732   2.313   2.163  0.2390  0.3956  0.1539
  208MOL   C13946093   5.776   2.238   2.053 -0.1349 -0.1841  0.4770
  208MOL   O14046094   5.826   2.106   2.065  0.4230 -0.5290 -0.0661
  208MOL   H14146095   5.780   2.219   1.840  1.1743  1.9505 -0.6082
  208MOL   H14246096   5.651   2.433   1.804 -0.2925  1.5972 -0.4166
  208MOL   H14346097   5.629   2.496   2.229 -3.4241 -0.6114 -0.7291
  208MOL   H14446098   5.753   2.272   2.261  2.1155 -3.6930 -1.8779
  208MOL   C14546099   6.157   2.115   2.235 -0.4535  0.6693  0.1234
  208MOL   C14646100   6.053   2.146   2.144 -0.6458 -0.2728 -0.4038
  208MOL   C14746101   5.928   2.084   2.152 -0.4562  0.0746  0.5816
  208MOL   C14846102   5.910   1.980   2.248  0.1620 -0.2330  0.2739
  208MOL   C14946103   6.016   1.946   2.332  0.6369 -1.0489 -0.2745
  208MOL   C15046104   6.137   2.013   2.330 -0.2924  0.5628 -0.3778
  208MOL   O15146105   6.238   1.984   2.418 -0.1164  0.4213  0.1406
  208MOL   H15246106   6.237   2.186   2.221  1.2375 -1.2326 -0.0920
  208MOL   H15346107   6.068   2.229   2.077 -1.3814 -0.4145 -0.7576
  208MOL   H15446108   5.814   1.932   2.260 -1.1020  1.7394 -1.6294
  208MOL   H15546109   6.009   1.865   2.402  0.7770 -1.5326 -0.8228
  208MOL   C15646110   6.201   2.008   2.784  0.0456  0.0937  0.2379
  208MOL   C15746111   6.190   1.953   2.650  0.0822 -0.8730 -0.7987
  208MOL   C15846112   6.231   2.032   2.542  0.3481 -0.4412 -0.8297
  208MOL   C15946113   6.268   2.164   2.562  0.0404  0.4306 -0.0162
  208MOL   C16046114   6.271   2.221   2.688  0.6232  0.2783  0.3648
  208MOL   C16146115   6.230   2.145   2.803 -0.6162  0.1059  0.0403
  208MOL   O16246116   6.229   2.196   2.929 -0.4281 -0.2560  0.0927
  208MOL   H16346117   6.189   1.948   2.873  1.6441  0.0387  0.4236
  208MOL   H16446118   6.161   1.851   2.633 -1.8894 -0.8245  1.9464
  208MOL   H16546119   6.277   2.230   2.477  0.3512  1.1687  0.5823
  208MOL   H16646120   6.320   2.316   2.704  0.9461  0.3913 -1.2696
  208MOL   C16746121   5.903   2.339   2.983  0.4659  0.1378  0.8145
  208MOL   C16846122   6.030   2.320   2.929 -0.0286  0.0955 -0.6463
  208MOL   C16946123   6.113   2.220   2.987 -0.0793 -0.6910 -0.0177
  208MOL   C17046124   6.072   2.136   3.093 -0.2658 -0.0052  0.2892
  208MOL   C17146125   5.944   2.160   3.149  0.0846  0.4120 -0.4670
  208MOL   C17246126   5.861   2.261   3.089  0.5513 -0.1737 -0.3779
  208MOL   O17346127   5.736   2.273   3.139 -0.7622  0.3246  0.5718
  208MOL   H17446128   5.837   2.414   2.942 -0.3922 -1.8405 -1.5274
  208MOL   H17546129   6.069   2.384   2.851  0.1554 -0.6053 -1.1321
  208MOL   H17646130   6.124   2.052   3.139 -0.4376  0.3926  1.2152
  208MOL   H17746131   5.905   2.089   3.220 -1.5830  0.7450 -1.0070
  208MOL   C17846132   5.532   2.044   2.925 -0.2473 -0.3052  0.3656
  208MOL   C17946133   5.634   2.093   3.010 -0.2333  0.6120 -0.0904
  208MOL   C18046134   5.634   2.222   3.060 -0.2999 -0.4252  0.5439
  208MOL   C18146135   5.531   2.303   3.020  0.0402 -0.8141  0.2850
  208MOL   C18246136   5.427   2.264   2.930 -0.0801  0.5062 -0.4898
  208MOL   C18346137   5.432   2.128   2.877  0.2907  0.6233  0.3899
  208MOL   O18446138   5.325   2.074   2.802 -0.2393 -0.1076 -0.4324
  208MOL   H18546139   5.525   1.940   2.895 -1.5094 -0.2428  0.4127
  208MOL   H18646140   5.713   2.029   3.046 -0.3414  1.3619  1.5067
  208MOL   H18746141   5.526   2.404   3.058 -1.3793  0.1511 -2.3667
  208MOL   H18846142   5.349   2.327   2.890  0.7357  2.7388  1.3250
  208MOL   C18946143   5.376   2.176   2.446 -0.0735  0.2130  0.0066
  208MOL   C19046144   5.383   2.186   2.587  0.2835 -0.0109  0.6524
  208MOL   C19146145   5.322   2.085   2.664  0.4079  0.1929  0.7889
  208MOL   C19246146   5.253   1.981   2.598 -0.0003  0.2149  0.3184
  208MOL   C19346147   5.242   1.971   2.457 -0.0310  0.9912  0.8268
  208MOL   C19446148   5.311   2.065   2.383  0.0532 -0.5778  0.2036
  208MOL   O19546149   5.307   2.059   2.247 -0.2279  0.1541 -0.1179
  208MOL   H19646150   5.428   2.254   2.392 -0.1287  0.7781  0.7523
  208MOL   H19746151   5.432   2.271   2.633  0.0016  0.1601  0.6352
  208MOL   H19846152   5.199   1.903   2.651  0.4319  0.2802  0.8620
  208MOL   H19946153   5.207   1.875   2.421  2.2393  0.4498 -0.0399
  208MOL   C20046154   5.284   2.379   2.054  0.5846  0.7292  0.0118
  208MOL   C20146155   5.337   2.270   2.127  0.7821 -0.2923 -0.1375
  208MOL   C20246156   5.248   2.172   2.179 -0.0748  0.6604 -0.1549
  208MOL   C20346157   5.110   2.191   2.169  1.0183 -0.0748  0.0457
  208MOL   C20446158   5.061   2.300   2.093  0.0945 -0.7168  0.1373
  208MOL   C20546159   5.145   2.396   2.035  0.0411  0.3707  0.0793
  208MOL   O20646160   5.083   2.500   1.962  0.0599  0.6101 -0.1827
  208MOL   H20746161   5.348   2.449   2.002  0.8001  1.2177  0.9131
  208MOL   H20846162   5.442   2.256   2.149  0.4871  0.7767  2.0627
  208MOL   H20946163   5.044   2.125   2.223  2.4119 -1.4759  0.0877
  208MOL   H21046164   4.955   2.317   2.087 -0.1806 -1.5144  2.3260
  208MOL   C21146165   5.163   2.862   2.005  0.1388  0.1162 -0.9692
  208MOL   C21246166   5.172   2.726   1.960 -0.4659 -0.2799 -0.8723
  208MOL   C21346167   5.088   2.627   2.012  0.0745 -0.0037 -0.8854
  208MOL   C21446168   4.989   2.664   2.102 -0.1848 -0.7316  0.0777
  208MOL   C21546169   4.975   2.799   2.148 -0.4744 -0.2865  0.6610
  208MOL   C21646170   5.055   2.899   2.092  0.2385  0.1767 -0.1322
  208MOL   O21746171   5.022   3.026   2.124 -0.0879 -0.7884 -0.1654
  208MOL   H21846172   5.218   2.937   1.950  0.1820  0.6677 -0.1766
  208MOL   H21946173   5.239   2.707   1.878  0.9545 -2.8218  0.8296
  208MOL   H22046174   4.926   2.583   2.136 -1.1993  0.3404  0.8200
  208MOL   H22146175   4.895   2.812   2.219  0.7718  0.1839  1.9915
  208MOL   H22246176   4.945   3.043   2.177  0.3276 -0.8651  0.4538
  209MOL     C146177   5.105   3.997   4.212 -0.6326 -0.3750 -0.0264
  209MOL     C246178   5.002   4.090   4.225  0.2483 -0.2379 -0.3231
  209MOL     C346179   5.027   4.228   4.209 -0.6866 -0.8002  0.3682
  209MOL     C446180   5.162   4.271   4.176 -0.1161 -0.0049 -0.2402
  209MOL     C546181   5.267   4.179   4.168  0.3594  0.7093 -0.6157
  209MOL     C646182   5.235   4.042   4.185 -0.2051 -0.6036  0.5284
  209MOL     O746183   5.330   3.950   4.171 -0.0710  0.1138 -0.5955
  209MOL     H846184   5.092   3.890   4.223  0.9255 -0.5455  0.2993
  209MOL     H946185   4.905   4.054   4.253 -0.0005 -0.3294 -1.2712
  209MOL    H1046186   5.191   4.374   4.161  1.3557 -0.4428 -0.5062
  209MOL    H1146187   5.370   4.198   4.144  1.4709 -2.0876  1.6286
  209MOL    H1246188   4.950   4.300   4.230 -2.7750 -3.2432  1.3199
  209MOL    C1346189   5.340   3.606   4.038  0.4596 -0.2473 -0.1971
  209MOL    C1446190   5.350   3.711   4.137 -0.5774  0.1537  0.4238
  209MOL    C1546191   5.324   3.841   4.092 -0.0306  0.1663  0.2321
  209MOL    C1646192   5.295   3.856   3.952  0.2348 -1.2376  0.3750
  209MOL    C1746193   5.284   3.751   3.855 -0.5951  0.1691 -0.5453
  209MOL    C1846194   5.310   3.621   3.903 -0.0215  0.4931  0.4253
  209MOL    O1946195   5.304   3.514   3.818 -0.1021 -0.5278 -0.1253
  209MOL    H2046196   5.348   3.504   4.073  0.4519  0.8585  3.2133
  209MOL    H2146197   5.375   3.695   4.240  1.9918  0.0287 -0.2008
  209MOL    H2246198   5.264   3.951   3.911 -2.0021 -1.3417  1.7082
  209MOL    H2346199   5.258   3.780   3.754 -2.1493  3.0962  0.6485
  209MOL    C2446200   5.004   3.380   3.636  0.1026  0.1236 -0.1073
  209MOL    C2546201   5.136   3.430   3.664 -0.6381  0.7126  0.4690
  209MOL    C2646202   5.175   3.465   3.795  0.1176 -0.8493 -0.2448
  209MOL    C2746203   5.078   3.449   3.904 -0.2599 -0.3644  1.0228
  209MOL    C2846204   4.952   3.398   3.874  0.4425  0.1084 -1.1473
  209MOL    C2946205   4.915   3.358   3.746 -0.2897 -0.4908 -0.2341
  209MOL    O3046206   4.789   3.303   3.723 -0.6592 -0.0759  0.4161
  209MOL    H3146207   4.985   3.355   3.533  2.4321  1.1597 -0.7969
  209MOL    H3246208   5.201   3.445   3.580 -0.9375 -0.0458  0.0949
  209MOL    H3346209   5.095   3.485   4.005  0.8594  1.5853  0.1778
  209MOL    H3446210   4.889   3.377   3.959  1.6667 -0.2022 -0.3062
  209MOL    C3546211   4.511   3.480   3.550 -0.1484  0.6048 -0.0902
  209MOL    C3646212   4.621   3.394   3.580 -0.5377 -0.3262 -0.8172
  209MOL    C3746213   4.686   3.399   3.704 -0.0221  0.2774 -0.0088
  209MOL    C3846214   4.638   3.478   3.812 -0.6786  0.8576 -0.1095
  209MOL    C3946215   4.523   3.557   3.787  0.3884  0.0631 -0.4446
  209MOL    C4046216   4.463   3.564   3.658  0.6973  0.3670  0.8795
  209MOL    O4146217   4.363   3.656   3.632  0.1438  0.2350  0.0318
  209MOL    H4246218   4.484   3.490   3.446 -0.9538  3.1542  0.3253
  209MOL    H4346219   4.664   3.336   3.499 -0.5285 -0.7113 -0.5356
  209MOL    H4446220   4.675   3.476   3.913 -0.5666 -1.4793 -0.1705
  209MOL    H4546221   4.498   3.628   3.865  0.7547  0.3397 -0.5765
  209MOL    C4646222   4.068   3.431   3.635 -0.5949  0.3800  0.4319
  209MOL    C4746223   4.195   3.489   3.666  0.0941  0.1069 -0.6259
  209MOL    C4846224   4.242   3.611   3.616  0.0443  0.9470  0.8544
  209MOL    C4946225   4.151   3.674   3.525 -1.0246 -0.3547  0.0053
  209MOL    C5046226   4.020   3.624   3.498 -0.2875 -0.1214 -0.6331
  209MOL    C5146227   3.978   3.495   3.551 -0.0983 -0.5789  0.7279
  209MOL    O5246228   3.856   3.447   3.527 -0.0572 -0.0250  0.0966
  209MOL    H5346229   4.030   3.339   3.675 -0.6734  0.5019  0.6371
  209MOL    H5446230   4.264   3.430   3.725 -0.1280  1.8059  1.3794
  209MOL    H5546231   4.178   3.766   3.475 -2.5210  0.5407  0.7919
  209MOL    H5646232   3.948   3.683   3.443  1.0895  1.9893 -0.2432
  209MOL    C5746233   3.906   3.198   3.260 -0.2194 -0.3744  0.4350
  209MOL    C5846234   3.941   3.293   3.357  0.4502  0.5631 -0.5294
  209MOL    C5946235   3.837   3.355   3.426  0.3729  0.0692 -0.0655
  209MOL    C6046236   3.695   3.328   3.396 -0.1796 -0.9782 -0.0757
  209MOL    C6146237   3.664   3.240   3.293  0.0782  0.3313  0.3949
  209MOL    C6246238   3.768   3.172   3.227 -0.7148 -0.1781 -0.2504
  209MOL    O6346239   3.736   3.083   3.129  0.2195  0.2678 -0.5587
  209MOL    H6446240   3.975   3.163   3.186  1.5979  0.3581  1.7433
  209MOL    H6546241   4.045   3.314   3.376  0.4175  1.3573 -1.2094
  209MOL    H6646242   3.617   3.389   3.438  0.6511  0.1013 -0.0703
  209MOL    H6746243   3.562   3.223   3.259 -0.2500 -1.2326  2.0593
  209MOL    C6846244   3.672   3.046   2.774  0.0638 -0.4726 -0.3858
  209MOL    C6946245   3.664   3.040   2.912 -0.4209 -0.2446  0.3193
  209MOL    C7046246   3.753   3.111   2.998  0.3310  0.7072  0.0074
  209MOL    C7146247   3.854   3.185   2.936  0.0953 -0.2436 -0.4694
  209MOL    C7246248   3.870   3.181   2.796  0.7212  0.8385  0.6925
  209MOL    C7346249   3.776   3.117   2.713 -0.3905  0.0162  0.0761
  209MOL    O7446250   3.792   3.113   2.579  0.1104  0.1676 -0.1030
  209MOL    H7546251   3.593   2.992   2.723 -0.6974 -0.3046  0.5848
  209MOL    H7646252   3.591   2.974   2.957  0.2779  0.1373  2.0428
  209MOL    H7746253   3.928   3.229   3.001  0.2738 -1.1591 -0.0480
  209MOL    H7846254   3.944   3.229   2.734  1.0826  1.1421  1.3502
  209MOL    C7946255   4.031   2.959   2.347  0.2882 -0.5961  0.4494
  209MOL    C8046256   3.939   3.051   2.406  0.2729  0.1156 -0.1359
  209MOL    C8146257   3.882   3.019   2.532  0.1781 -0.0107  0.6506
  209MOL    C8246258   3.929   2.908   2.607 -0.2178 -0.7039  0.4941
  209MOL    C8346259   4.018   2.819   2.542 -0.0086 -0.1234 -0.0269
  209MOL    C8446260   4.073   2.855   2.417  0.3190  0.0504 -1.1930
  209MOL    O8546261   4.169   2.766   2.375  0.3589  0.0090  0.7245
  209MOL    H8646262   4.061   2.954   2.243  0.0326 -0.8945  0.3894
  209MOL    H8746263   3.891   3.130   2.350 -0.4423 -1.3893 -1.7058
  209MOL    H8846264   3.894   2.890   2.708 -1.8909  1.2618  0.2908
  209MOL    H8946265   4.050   2.733   2.598 -2.0290 -1.8591 -1.4425
  209MOL    C9046266   4.229   2.704   2.011 -0.8087  0.3266  0.5110
  209MOL    C9146267   4.242   2.758   2.142  0.0214 -0.1060  0.7776
  209MOL    C9246268   4.160   2.714   2.249  0.2258 -0.2637  0.0020
  209MOL    C9346269   4.066   2.615   2.217 -0.8949  0.1890  0.1458
  209MOL    C9446270   4.052   2.566   2.085  0.2486  0.3670 -0.2967
  209MOL    C9546271   4.133   2.610   1.984 -0.5173 -0.4176  0.4685
  209MOL    O9646272   4.140   2.544   1.863  0.8121  1.0079 -0.5629
  209MOL    H9746273   4.293   2.724   1.926 -2.2980  0.3639 -0.6299
  209MOL    H9846274   4.311   2.836   2.167  0.1940  0.3349 -1.0129
  209MOL    H9946275   3.999   2.581   2.295 -1.5857  0.0527 -0.4982
  209MOL   H10046276   3.969   2.502   2.060 -0.4933  1.1079  0.2268
  209MOL   C10146277   4.091   2.672   1.525  0.2868 -0.4873  0.5077
  209MOL   C10246278   4.158   2.615   1.630 -0.2800 -0.2622 -0.2529
  209MOL   C10346279   4.087   2.609   1.755  0.3084  0.1945  0.3432
  209MOL   C10446280   3.960   2.676   1.769 -0.2321  0.5038  0.1768
  209MOL   C10546281   3.904   2.743   1.655 -0.3530 -0.1716 -0.2709
  209MOL   C10646282   3.971   2.739   1.536  0.0812 -0.9722  0.0801
  209MOL   O10746283   3.903   2.811   1.436  0.1807 -0.2732  0.5587
  209MOL   H10846284   4.130   2.666   1.424  1.5881  1.1558  0.8939
  209MOL   H10946285   4.254   2.568   1.616 -0.8476 -0.9917 -1.8297
  209MOL   H11046286   3.910   2.682   1.865  0.9752  0.6827  0.8055
  209MOL   H11146287   3.818   2.806   1.669 -0.6179 -0.6238  0.1553
  209MOL   C11246288   4.079   2.964   1.144  0.1220 -0.0668  0.3789
  209MOL   C11346289   4.028   2.949   1.278 -0.4399  0.1014  0.0129
  209MOL   C11446290   3.969   2.830   1.317 -0.1679  0.3103 -0.3671
  209MOL   C11546291   3.947   2.731   1.217 -0.0982 -0.4598 -0.4149
  209MOL   C11646292   3.997   2.744   1.083  0.3777 -0.2806 -0.6779
  209MOL   C11746293   4.056   2.868   1.047  0.3394 -0.0112  0.0841
  209MOL   O11846294   4.108   2.891   0.919 -0.1199  0.7710 -0.2342
  209MOL   H11946295   4.123   3.055   1.107  0.9981  0.7915  3.3451
  209MOL   H12046296   4.034   3.027   1.351  0.6992 -0.5471  0.6236
  209MOL   H12146297   3.891   2.643   1.246  1.9030 -1.7163 -0.2333
  209MOL   H12246298   3.980   2.674   1.003 -1.0443 -1.9251  1.0211
  209MOL   C12346299   4.030   3.096   0.630 -0.6352 -0.4505  0.1792
  209MOL   C12446300   4.101   3.022   0.728  0.6430 -0.0312  0.3088
  209MOL   C12546301   4.031   2.955   0.827 -0.3193 -0.4515  0.0306
  209MOL   C12646302   3.891   2.954   0.825  0.4996 -0.3137  0.0873
  209MOL   C12746303   3.821   3.025   0.722 -0.0147  0.6036  0.2745
  209MOL   C12846304   3.889   3.091   0.620 -0.0797  0.5735  0.0879
  209MOL   O12946305   3.829   3.164   0.519  0.2216 -0.0970 -0.2160
  209MOL   H13046306   4.082   3.141   0.547 -0.1879 -0.0591  0.6707
  209MOL   H13146307   4.208   3.038   0.736  0.4480  2.2379 -1.2746
  209MOL   H13246308   3.838   2.890   0.895  2.0523 -1.1039  0.5562
  209MOL   H13346309   3.713   3.015   0.719  0.1973 -1.3796 -2.0403
  209MOL   C13446310   3.455   3.180   0.536 -0.2787 -0.4140 -0.1430
  209MOL   C13546311   3.594   3.217   0.552 -0.7277  0.5072 -0.3036
  209MOL   C13646312   3.697   3.138   0.498 -0.0035  0.0237  0.3313
  209MOL   C13746313   3.651   3.023   0.422  0.5056 -0.6935 -0.2582
  209MOL   C13846314   3.514   2.987   0.405  0.2547 -0.6877 -0.3463
  209MOL   C13946315   3.411   3.074   0.454 -0.9230 -0.1109  0.3355
  209MOL   O14046316   3.274   3.057   0.412  0.1396  0.0869 -0.0673
  209MOL   H14146317   3.374   3.241   0.573 -0.9151 -1.4396  0.1831
  209MOL   H14246318   3.616   3.298   0.620 -0.0325  0.2431 -0.2142
  209MOL   H14346319   3.730   2.956   0.392  0.5350 -0.1468 -1.4455
  209MOL   H14446320   3.484   2.903   0.345  3.5831 -3.1076  1.1642
  209MOL   C14546321   3.219   2.879   0.098  0.1232 -0.8186 -0.0759
  209MOL   C14646322   3.275   2.972   0.191 -0.0382  0.7355  0.4352
  209MOL   C14746323   3.238   2.956   0.322  0.1784 -0.3067 -0.0684
  209MOL   C14846324   3.174   2.839   0.364  0.1000 -0.7352  0.4948
  209MOL   C14946325   3.114   2.753   0.274 -0.2203  0.4776  0.1325
  209MOL   C15046326   3.129   2.778   0.141  0.1828  1.0587  0.4082
  209MOL   O15146327   3.086   2.687   0.048  0.0608 -0.7136 -0.4259
  209MOL   H15246328   3.247   2.886   8.248  1.4768 -0.1580  0.3117
  209MOL   H15346329   3.327   3.058   0.152 -0.2356  0.6122 -0.1023
  209MOL   H15446330   3.152   2.832   0.470 -1.3822  2.3264  0.4431
  209MOL   H15546331   3.063   2.670   0.321 -2.4901  0.7072 -1.8304
  209MOL   C15646332   2.743   2.806   8.223  0.2839 -0.3261 -0.1673
  209MOL   C15746333   2.881   2.810   8.248  0.3964 -0.2052  0.7593
  209MOL   C15846334   2.948   2.685   0.026 -0.0955  0.4199  0.1170
  209MOL   C15946335   2.872   2.563   0.040  0.2245 -0.3169 -0.3513
  209MOL   C16046336   2.734   2.560   0.005 -0.8018 -0.2546 -0.0314
  209MOL   C16146337   2.665   2.682   8.232 -0.2388 -0.7210 -0.0198
  209MOL   O16246338   2.535   2.679   8.188 -0.7264 -0.2833 -0.1631
  209MOL   H16346339   2.685   2.892   8.193 -1.9594 -1.1930  1.4938
  209MOL   H16446340   2.938   2.902   8.248 -0.9034  0.6416  3.2256
  209MOL   H16546341   2.921   2.469   0.058  0.4537 -0.4232 -1.4645
  209MOL   H16646342   2.696   2.459   0.013  1.3200 -1.1348 -0.8518
  209MOL   C16746343   2.330   2.386   0.046  0.2157 -0.4948  0.0365
  209MOL   C16846344   2.410   2.502   0.057  0.4026  0.3142  0.1163
  209MOL   C16946345   2.451   2.572   8.195 -0.3483 -0.1052 -0.1886
  209MOL   C17046346   2.408   2.525   8.070  0.2530  0.4507  0.3074
  209MOL   C17146347   2.322   2.414   8.066 -0.2826  1.3914 -0.0704
  209MOL   C17246348   2.282   2.338   8.173 -0.0966  0.1648 -0.3109
  209MOL   O17346349   2.201   2.226   8.169  0.5533 -0.4215  0.2295
  209MOL   H17446350   2.312   2.332   0.138 -1.9910 -1.5843 -1.0120
  209MOL   H17546351   2.438   2.536   0.156  0.7965  3.2132 -0.9209
  209MOL   H17646352   2.426   2.580   7.980 -2.2571 -0.7898 -1.0145
  209MOL   H17746353   2.288   2.384   7.968  1.6018  0.7153 -0.5361
  209MOL   C17846354   2.389   1.913   8.096 -0.7832  0.1201  0.2422
  209MOL   C17946355   2.313   2.035   8.078 -0.4639 -0.7996 -0.5880
  209MOL   C18046356   2.258   2.103   8.184  0.6348  0.0964  0.3382
  209MOL   C18146357   2.271   2.043   0.055 -0.2642  0.3606 -0.3495
  209MOL   C18246358   2.340   1.925   0.085 -0.0411 -0.2667  0.3055
  209MOL   C18346359   2.403   1.857   8.223 -0.1894  1.0263 -0.1894
  209MOL   O18446360   2.480   1.743   8.247 -0.7598 -0.2276 -0.0451
  209MOL   H18546361   2.447   1.871   8.016 -1.3994 -0.8806  0.3113
  209MOL   H18646362   2.323   2.079   7.980  0.4727 -0.7350 -0.4697
  209MOL   H18746363   2.216   2.086   0.138 -0.4751 -1.9624  0.7411
  209MOL   H18846364   2.353   1.892   0.187 -1.1964  4.1504  1.9870
  209MOL   C18946365   2.275   1.449   8.127  0.2467  0.5507 -0.0794
  209MOL   C19046366   2.355   1.566   8.123 -0.9268 -0.1379 -0.5439
  209MOL   C19146367   2.399   1.627   8.246 -0.0311 -0.0387 -0.4048
  209MOL   C19246368   2.367   1.562   0.114 -0.4773  0.2938 -0.0051
  209MOL   C19346369   2.274   1.459   0.122  0.0880  0.3771 -0.6501
  209MOL   C19446370   2.243   1.391   8.253  0.4238  0.3157  0.3862
  209MOL   O19546371   2.171   1.276   0.015 -0.1406  0.2117  0.0584
  209MOL   H19646372   2.237   1.413   8.032  0.4022 -0.1389  0.1155
  209MOL   H19746373   2.386   1.613   8.031 -1.4845  0.4812 -0.4160
  209MOL   H19846374   2.409   1.607   0.202 -0.6553 -0.4287  0.4522
  209MOL   H19946375   2.238   1.408   0.209 -2.9969  0.0316 -2.0736
  209MOL   C20046376   1.958   1.170   7.986  0.2407  0.4808  0.4135
  209MOL   C20146377   2.005   1.244   8.096  0.0489 -0.1372 -0.8681
  209MOL   C20246378   2.128   1.214   8.156  0.0177 -0.6854 -0.0895
  209MOL   C20346379   2.204   1.108   8.106  0.2016  0.0953  0.1629
  209MOL   C20446380   2.147   1.021   8.004  0.1700  0.2218 -0.0548
  209MOL   C20546381   2.029   1.055   7.936 -0.7230  0.0582  0.2487
  209MOL   O20646382   1.979   0.974   7.838 -0.2980 -0.4876  0.3331
  209MOL   H20746383   1.863   1.199   7.944  0.2660 -1.1710 -0.8849
  209MOL   H20846384   1.947   1.326   8.135 -0.9876 -1.4800  0.4998
  209MOL   H20946385   2.295   1.075   8.154  0.4851 -1.3280 -1.3017
  209MOL   H21046386   2.206   0.935   7.978  1.6200  0.7059  1.5536
  209MOL   C21146387   1.812   1.170   7.575 -1.2124  0.4106 -0.1051
  209MOL   C21246388   1.914   1.132   7.666 -0.4638  0.0900  0.3102
  209MOL   C21346389   1.890   1.017   7.746 -0.5245 -0.5994 -0.5671
  209MOL   C21446390   1.764   0.961   7.754 -0.1020 -0.1087 -0.3155
  209MOL   C21546391   1.665   0.998   7.653 -0.0705  0.5090 -0.5237
  209MOL   C21646392   1.691   1.100   7.571 -0.1229  0.6478  0.2514
  209MOL   O21746393   1.589   1.151   7.499 -0.1452  0.5806 -1.0584
  209MOL   H21846394   1.820   1.256   7.509 -1.9346 -0.2404 -1.0543
  209MOL   H21946395   2.008   1.185   7.668 -0.4108  0.0857 -1.3480
  209MOL   H22046396   1.738   0.891   7.832  1.2150  0.9139  1.0588
  209MOL   H22146397   1.567   0.953   7.647  0.2998 -0.1471 -1.8904
  209MOL   H22246398   1.519   1.089   7.482 -2.0678  2.3652  0.1587
  210MOL     C146399   8.088   0.890   5.568  0.3010  0.1587  0.4910
  210MOL     C246400   8.139   0.895   5.434 -0.0865  0.3249  0.1650
  210MOL     C346401   8.233   0.797   5.399  0.3571 -0.4102  0.2084
  210MOL     C446402   0.036   0.715   5.503 -0.7450 -0.2224  0.5559
  210MOL     C546403   8.247   0.728   5.638 -0.4529 -0.2826 -0.1045
  210MOL     C646404   8.141   0.811   5.667 -0.1208 -0.0572  0.9120
  210MOL     O746405   8.097   0.818   5.795 -0.1341 -0.2773  0.1464
  210MOL     H846406   8.006   0.952   5.603  1.5700  1.6692  0.8223
  210MOL     H946407   8.109   0.962   5.354  0.6230 -1.3057 -1.5166
  210MOL    H1046408   0.116   0.651   5.471 -0.6873 -0.2550  0.7651
  210MOL    H1146409   0.027   0.679   5.728 -0.6755  0.8764  0.6295
  210MOL    H1246410   0.013   0.780   5.298 -0.9431 -0.1713 -0.2911
  210MOL    C1346411   7.903   0.510   5.857 -0.8139  0.1297 -0.1164
  210MOL    C1446412   8.007   0.598   5.839 -0.3649 -0.1488  0.0367
  210MOL    C1546413   7.987   0.736   5.821  0.6853  0.5308 -0.3585
  210MOL    C1646414   7.852   0.784   5.824 -0.0910  0.3718  0.4646
  210MOL    C1746415   7.744   0.694   5.837 -0.2968  0.6797  0.5561
  210MOL    C1846416   7.769   0.557   5.856  0.2993  0.0524 -0.2609
  210MOL    O1946417   7.663   0.471   5.854  0.1008 -0.7506  0.3992
  210MOL    H2046418   7.928   0.405   5.858 -1.4495 -0.0657  4.1261
  210MOL    H2146419   8.110   0.570   5.821  0.9026  3.9030  0.3649
  210MOL    H2246420   7.824   0.883   5.790  2.9500  1.1382  0.0432
  210MOL    H2346421   7.641   0.727   5.834 -0.2513  0.7811 -0.1128
  210MOL    C2446422   7.565   0.172   6.046 -0.3058 -1.0255 -0.0516
  210MOL    C2546423   7.585   0.262   5.937 -0.7268  0.0158  0.4058
  210MOL    C2646424   7.657   0.381   5.953  0.4927 -0.7420 -0.1341
  210MOL    C2746425   7.707   0.409   6.085 -0.0063 -0.4695 -0.4003
  210MOL    C2846426   7.690   0.322   6.191 -0.1784 -0.7885  0.5288
  210MOL    C2946427   7.621   0.197   6.174  0.2310  0.1148  0.4511
  210MOL    O3046428   7.588   0.124   6.281 -0.5796 -0.2186  0.0081
  210MOL    H3146429   7.499   0.086   6.037 -0.3349 -1.0154  0.0652
  210MOL    H3246430   7.520   0.258   5.851  0.4776 -0.6884 -0.4809
  210MOL    H3346431   7.758   0.503   6.105 -1.3812  0.6787 -2.2110
  210MOL    H3446432   7.725   0.347   6.290 -0.6061  1.7231  0.0664
  210MOL    C3546433   7.738   8.032   6.282 -0.0660  0.4634  0.5955
  210MOL    C3646434   7.718   8.173   6.282 -0.5471 -0.1936  0.3390
  210MOL    C3746435   7.596   8.239   6.268 -0.3922 -0.1539 -0.0038
  210MOL    C3846436   7.482   8.160   6.246 -0.0860  0.6615 -0.1980
  210MOL    C3946437   7.497   8.016   6.256  1.1073  0.3019 -0.4779
  210MOL    C4046438   7.623   7.953   6.261 -0.3046 -0.1652 -0.5708
  210MOL    O4146439   7.627   7.814   6.262  0.2328 -0.3202  0.4160
  210MOL    H4246440   7.835   7.990   6.305 -0.8042  0.1528  3.1795
  210MOL    H4346441   7.799   8.240   6.307  0.4349 -0.5927 -1.6618
  210MOL    H4446442   7.390   8.213   6.224 -1.1162 -0.3550  1.5427
  210MOL    H4546443   7.412   7.950   6.244 -0.4464  2.0880  0.4874
  210MOL    C4646444   7.439   7.687   6.555 -0.0129  0.5211  0.2465
  210MOL    C4746445   7.541   7.757   6.481 -0.1100 -0.2037  0.1985
  210MOL    C4846446   7.534   7.750   6.340  0.1171  0.0562 -0.2829
  210MOL    C4946447   7.437   7.677   6.269  0.2110  0.7886  0.8401
  210MOL    C5046448   7.345   7.601   6.340  0.0137  0.5325  0.5636
  210MOL    C5146449   7.344   7.608   6.488 -0.0720 -0.3530 -0.9846
  210MOL    O5246450   7.246   7.541   6.553 -0.5397 -0.1486  0.1901
  210MOL    H5346451   7.440   7.678   6.662 -0.0875 -2.3656  0.0616
  210MOL    H5446452   7.608   7.821   6.536  1.0281  0.2698 -1.6839
  210MOL    H5546453   7.442   7.670   6.162  0.3999 -2.4512  1.0309
  210MOL    H5646454   7.280   7.535   6.286  1.2591  1.5796 -2.2968
  210MOL    C5746455   7.316   7.175   6.586 -0.1701  0.3357  0.4543
  210MOL    C5846456   7.304   7.309   6.533 -0.4616  1.0252 -0.5625
  210MOL    C5946457   7.270   7.416   6.616 -0.6749 -0.3363  0.7254
  210MOL    C6046458   7.263   7.400   6.755  0.1303  0.7693 -0.1547
  210MOL    C6146459   7.287   7.272   6.813  0.7469  0.2029 -0.0888
  210MOL    C6246460   7.310   7.162   6.728  0.7860  0.1047 -0.6084
  210MOL    O6346461   7.324   7.033   6.785  0.8017  0.0532 -0.4094
  210MOL    H6446462   7.334   7.092   6.520 -1.4813 -0.6930  1.3725
  210MOL    H6546463   7.324   7.324   6.428 -0.1987 -0.0021 -0.6647
  210MOL    H6646464   7.263   7.491   6.814  1.8647  0.4452  0.3835
  210MOL    H6746465   7.304   7.269   6.920  2.7076 -1.1839 -0.3912
  210MOL    C6846466   7.695   6.991   6.797  0.0687  0.4294 -0.0995
  210MOL    C6946467   7.570   7.052   6.788  0.2712 -0.0054 -0.7119
  210MOL    C7046468   7.452   6.977   6.783  1.0783 -0.0111 -0.4676
  210MOL    C7146469   7.459   6.840   6.781 -0.2999 -0.3259 -0.5791
  210MOL    C7246470   7.587   6.778   6.792  0.3473 -0.6776 -0.2934
  210MOL    C7346471   7.706   6.849   6.801  1.3116 -0.5631 -0.0304
  210MOL    O7446472   7.827   6.784   6.811 -0.0052  0.3061  0.0840
  210MOL    H7546473   7.777   7.059   6.815 -1.0129  2.0918 -1.3294
  210MOL    H7646474   7.565   7.159   6.797 -1.1013 -0.0576 -0.7228
  210MOL    H7746475   7.368   6.782   6.783 -0.4555 -0.0837 -0.7201
  210MOL    H7846476   7.592   6.671   6.777  3.2179 -0.5547 -0.4832
  210MOL    C7946477   8.167   6.882   6.929  0.3977 -0.0443  0.6245
  210MOL    C8046478   8.062   6.838   6.846  0.5199  0.4642  0.7349
  210MOL    C8146479   7.928   6.833   6.894 -0.2634 -1.0625  0.4475
  210MOL    C8246480   7.902   6.876   7.025  0.7247 -0.3446 -0.1496
  210MOL    C8346481   8.007   6.920   7.110 -0.6902 -0.2317 -0.2093
  210MOL    C8446482   8.138   6.923   7.063  0.2373 -0.3618  0.3349
  210MOL    O8546483   8.234   6.984   7.137  0.1915 -0.5229  0.0201
  210MOL    H8646484   0.014   6.895   6.896  0.9373 -1.6913  1.6127
  210MOL    H8746485   8.089   6.799   6.748  0.9359 -0.3824  1.1843
  210MOL    H8846486   7.808   6.881   7.078  0.8904 -1.9006  0.3063
  210MOL    H8946487   7.977   6.960   7.205  0.6602  0.7588 -0.1760
  210MOL    C9046488   0.230   6.872   7.387  0.0622 -0.4372  0.2338
  210MOL    C9146489   0.152   6.956   7.307  0.3403 -0.4816 -0.0440
  210MOL    C9246490   0.041   6.901   7.233 -0.3999 -0.1110 -0.7818
  210MOL    C9346491   0.016   6.763   7.249 -0.2663 -0.2134  0.6601
  210MOL    C9446492   0.093   6.682   7.337  0.4935 -0.0378 -0.4683
  210MOL    C9546493   0.205   6.733   7.396 -0.4244 -0.8049  0.6998
  210MOL    O9646494   0.280   6.663   7.479 -0.7239 -0.4491  0.1880
  210MOL    H9746495   0.316   6.909   7.441  0.0105 -0.8597  0.6067
  210MOL    H9846496   0.173   7.061   7.297  1.1199 -0.7616 -1.5024
  210MOL    H9946497   8.201   6.720   7.179  0.2151 -0.8469  0.5728
  210MOL   H10046498   0.077   6.577   7.360 -0.3214  0.5228  1.6967
  210MOL   C10146499   0.481   6.425   7.295  0.3899  0.8429 -0.5184
  210MOL   C10246500   0.375   6.493   7.346  0.0671  0.5784 -0.1079
  210MOL   C10346501   0.390   6.602   7.428 -0.1080  0.0691 -0.7321
  210MOL   C10446502   0.521   6.643   7.461  0.7423  0.5254  0.1304
  210MOL   C10546503   0.633   6.559   7.425 -0.0486 -0.1066 -0.3470
  210MOL   C10646504   0.615   6.456   7.333 -0.3516  1.1628  0.5568
  210MOL   O10746505   0.730   6.394   7.293  0.0733 -0.1319  0.0424
  210MOL   H10846506   0.457   6.344   7.227 -0.4256  2.1751 -1.8498
  210MOL   H10946507   0.278   6.459   7.312  0.8117 -1.2748 -0.4187
  210MOL   H11046508   0.536   6.726   7.528  0.2015  1.4683 -0.9017
  210MOL   H11146509   0.730   6.582   7.466 -0.3518 -1.8053  1.3573
  210MOL   C11246510   0.753   6.253   6.963 -0.1030  0.1639 -1.1600
  210MOL   C11346511   0.746   6.263   7.103 -0.0854  0.3890  0.1012
  210MOL   C11446512   0.756   6.389   7.155  1.4658 -0.1314  0.3926
  210MOL   C11546513   0.782   6.505   7.077  0.2703 -0.4316  0.2457
  210MOL   C11646514   0.791   6.500   6.936  0.0888 -0.3282 -0.0194
  210MOL   C11746515   0.774   6.372   6.884  0.3818  0.6638 -0.8854
  210MOL   O11846516   0.781   6.355   6.749 -0.5292  0.1186 -0.4706
  210MOL   H11946517   0.741   6.156   6.918  3.1254  0.0015 -1.8231
  210MOL   H12046518   0.724   6.180   7.168  0.0512  1.0145  0.9638
  210MOL   H12146519   0.797   6.601   7.124  1.0620 -0.5961  0.3402
  210MOL   H12246520   0.810   6.581   6.867 -2.8042  0.8758  0.5572
  210MOL   C12346521   0.502   6.488   6.549 -0.2597  1.0590 -0.3524
  210MOL   C12446522   0.572   6.396   6.625  0.3124 -1.1203 -0.4136
  210MOL   C12546523   0.705   6.436   6.667  0.6709  0.1539 -0.3838
  210MOL   C12646524   0.753   6.560   6.629 -1.0373  0.2197  0.3311
  210MOL   C12746525   0.677   6.651   6.551 -0.3885  0.1697  0.8325
  210MOL   C12846526   0.554   6.614   6.507  0.4022 -0.4493 -0.3299
  210MOL   O12946527   0.476   6.700   6.434  0.4953 -0.0793 -0.0616
  210MOL   H13046528   0.402   6.455   6.522 -0.6484  0.4781  1.7218
  210MOL   H13146529   0.526   6.306   6.663  2.2251 -1.5682  0.9042
  210MOL   H13246530   0.853   6.582   6.665 -0.2766 -0.3518 -1.3345
  210MOL   H13346531   0.719   6.746   6.521 -0.5886 -0.0852 -0.2650
  210MOL   C13446532   0.297   7.013   6.524  0.3618  0.0059  0.1287
  210MOL   C13546533   0.381   6.921   6.456 -1.1303  0.5177  0.3230
  210MOL   C13646534   0.396   6.791   6.498  0.1642  0.7930  0.0079
  210MOL   C13746535   0.313   6.748   6.605 -0.3385  0.6123 -0.2897
  210MOL   C13846536   0.219   6.835   6.666  0.5307 -0.2957 -0.2323
  210MOL   C13946537   0.213   6.969   6.623  0.2204 -0.6794 -0.5323
  210MOL   O14046538   0.115   7.051   6.678  0.4074  0.2669 -0.3241
  210MOL   H14146539   0.289   7.117   6.495 -0.2887 -1.0335 -3.6249
  210MOL   H14246540   0.430   6.947   6.363 -0.4840 -0.2535  0.4462
  210MOL   H14346541   0.306   6.644   6.631  1.1750  0.4601 -0.4195
  210MOL   H14446542   0.139   6.799   6.729  0.1863 -2.0188 -1.6221
  210MOL   C14546543   0.243   7.183   7.004 -0.1306 -0.8422 -0.1831
  210MOL   C14646544   0.208   7.091   6.904  0.3024  0.5144 -0.6331
  210MOL   C14746545   0.156   7.136   6.773  0.2547  0.2993  0.0797
  210MOL   C14846546   0.127   7.273   6.756 -0.2241 -0.6798 -0.6137
  210MOL   C14946547   0.161   7.363   6.862 -0.3460 -0.2218  0.2132
  210MOL   C15046548   0.212   7.319   6.983  0.1303  0.1809  0.2914
  210MOL   O15146549   0.236   7.401   7.090  0.6819  0.3074  0.0003
  210MOL   H15246550   0.289   7.153   7.097 -1.3854  0.8453  0.9963
  210MOL   H15346551   0.225   6.985   6.919 -0.3493  0.2554 -1.7040
  210MOL   H15446552   0.079   7.312   6.667  0.7141 -1.1415 -1.3240
  210MOL   H15546553   0.126   7.465   6.853 -1.5746 -0.4677  1.8548
  210MOL   C15646554   0.591   7.505   7.029 -0.4340 -0.1665 -0.6924
  210MOL   C15746555   0.480   7.427   7.026 -0.1518 -0.0659 -1.0176
  210MOL   C15846556   0.361   7.467   7.095  1.3009 -0.1770 -0.2228
  210MOL   C15946557   0.372   7.581   7.184  0.7444 -0.0143  0.8963
  210MOL   C16046558   0.502   7.644   7.203  0.2520 -0.7889 -0.0793
  210MOL   C16146559   0.607   7.608   7.121  0.0717 -0.4302  0.2247
  210MOL   O16246560   0.730   7.677   7.134  0.1211  0.1885 -0.0104
  210MOL   H16346561   0.675   7.478   6.968 -1.2369 -1.8189 -1.0944
  210MOL   H16446562   0.471   7.339   6.964 -1.9579 -0.5297 -0.1426
  210MOL   H16546563   0.286   7.623   7.233 -0.0863 -1.1777  0.4583
  210MOL   H16646564   0.513   7.728   7.270 -1.1321 -0.4425 -0.2648
  210MOL   C16746565   0.925   7.559   7.423  0.6496 -0.5780 -0.6877
  210MOL   C16846566   0.825   7.617   7.344 -0.3338 -0.4163  0.0862
  210MOL   C16946567   0.822   7.605   7.204  0.3230 -0.0986  0.1231
  210MOL   C17046568   0.921   7.527   7.142 -0.4181 -0.4256  0.0429
  210MOL   C17146569   1.013   7.455   7.223 -0.1979 -0.0125  0.1013
  210MOL   C17246570   1.015   7.474   7.358 -0.2298 -0.3849  0.2795
  210MOL   O17346571   1.103   7.396   7.434 -0.0226 -0.2723  0.4742
  210MOL   H17446572   0.912   7.572   7.529  1.3294 -1.1076 -0.5398
  210MOL   H17546573   0.748   7.680   7.387 -0.2199  0.6495 -1.2397
  210MOL   H17646574   0.930   7.505   7.036  0.8771  0.8629 -0.1372
  210MOL   H17746575   1.079   7.387   7.171  1.4912  0.8514  1.0991
  210MOL   C17846576   1.203   7.045   7.433 -0.5674 -0.5139  0.2209
  210MOL   C17946577   1.206   7.184   7.456 -0.0218  0.0744  0.6470
  210MOL   C18046578   1.099   7.263   7.423  0.5718  0.2544  0.7100
  210MOL   C18146579   0.973   7.201   7.398 -0.2479 -0.5701  0.3232
  210MOL   C18246580   0.960   7.062   7.386 -0.2577  0.1005 -0.0131
  210MOL   C18346581   1.085   6.983   7.395  0.5564 -0.1228 -0.4360
  210MOL   O18446582   1.079   6.841   7.383  0.3443  0.2396 -0.0806
  210MOL   H18546583   1.299   6.994   7.429 -0.1184  0.4217 -1.2732
  210MOL   H18646584   1.298   7.235   7.478  0.0357  1.2596 -2.1518
  210MOL   H18746585   0.889   7.265   7.379  0.4070 -0.0194 -0.7835
  210MOL   H18846586   0.868   7.018   7.352 -0.3987  0.6902 -0.4019
  210MOL   C18946587   1.083   6.713   7.043 -0.0012  0.3066 -0.4343
  210MOL   C19046588   1.039   6.782   7.156 -0.3805 -0.0736 -0.7945
  210MOL   C19146589   1.123   6.784   7.268  0.1689 -0.1278 -0.4020
  210MOL   C19246590   1.252   6.722   7.273 -0.6613 -0.8106  0.3838
  210MOL   C19346591   1.302   6.664   7.158  0.2230 -0.3715 -0.1388
  210MOL   C19446592   1.217   6.655   7.043  0.4426 -0.0477  0.0114
  210MOL   O19546593   1.248   6.573   6.939  0.3602 -0.5365 -0.1903
  210MOL   H19646594   1.017   6.703   6.958  0.0772 -0.8921 -0.3654
  210MOL   H19746595   0.942   6.830   7.152 -0.7447 -0.6898  0.2905
  210MOL   H19846596   1.314   6.732   7.360  1.5672 -0.3811 -1.2278
  210MOL   H19946597   1.400   6.622   7.170  0.1400 -0.7926 -0.9113
  210MOL   C20046598   1.138   6.235   7.062 -0.4521 -0.7831  0.0590
  210MOL   C20146599   1.132   6.377   7.034 -0.0863  0.2997 -1.0156
  210MOL   C20246600   1.231   6.443   6.955  0.1056 -0.3293  0.2964
  210MOL   C20346601   1.328   6.357   6.896 -0.4384 -0.2108 -0.1065
  210MOL   C20446602   1.324   6.217   6.914  0.1130 -0.6099 -0.5198
  210MOL   C20546603   1.230   6.161   6.998  0.6333 -0.2196  0.3143
  210MOL   O20646604   1.233   6.026   7.016  0.1808  0.4609  0.3984
  210MOL   H20746605   1.065   6.184   7.123 -0.6502  0.3444  0.7769
  210MOL   H20846606   1.060   6.441   7.083  0.9578  0.8216 -0.1201
  210MOL   H20946607   1.408   6.393   6.834  0.3779 -0.0883  1.0035
  210MOL   H21046608   1.406   6.162   6.871 -0.7636 -0.6786 -2.1360
  210MOL   C21146609   0.933   5.895   6.830  0.3194  0.0736  0.3729
  210MOL   C21246610   1.022   5.989   6.884 -0.1860 -0.1624  0.5719
  210MOL   C21346611   1.132   5.947   6.965 -0.3805  0.0540  0.5400
  210MOL   C21446612   1.149   5.809   6.994 -0.2366 -0.1386  0.5802
  210MOL   C21546613   1.052   5.718   6.951  0.8965  0.3885 -0.3010
  210MOL   C21646614   0.940   5.759   6.867 -0.5228 -0.6462 -0.2728
  210MOL   O21746615   0.856   5.667   6.813  0.6934  0.2046  0.1130
  210MOL   H21846616   0.853   5.938   6.771  0.1985 -1.2523 -0.4406
  210MOL   H21946617   1.001   6.093   6.868  2.9518  0.4172 -0.1366
  210MOL   H22046618   1.224   5.773   7.063  2.2999  2.9172 -0.5177
  210MOL   H22146619   1.069   5.620   6.993  2.5416 -0.0602 -1.9478
  210MOL   H22246620   0.893   5.585   6.839  0.2359 -0.4053 -1.1316
  211MOL     C146621   6.589   6.418   8.092  0.2819  0.4891 -0.3328
  211MOL     C246622   6.577   6.509   8.198 -0.2853  0.0009  0.1281
  211MOL     C346623   6.448   6.560   8.229  0.0103 -0.4213 -0.1999
  211MOL     C446624   6.341   6.544   8.142  0.3776 -0.0286  0.3736
  211MOL     C546625   6.365   6.456   8.028  0.2482 -0.6055 -0.4888
  211MOL     C646626   6.485   6.392   8.002 -0.1013 -0.1496  1.0335
  211MOL     O746627   6.511   6.303   7.910  0.2831 -0.4566  0.6202
  211MOL     H846628   6.679   6.359   8.092 -0.5065 -0.8119  3.1947
  211MOL     H946629   6.667   6.532   8.252  0.9231 -0.5728 -1.6006
  211MOL    H1046630   6.246   6.592   8.159  0.8132  1.4115 -1.1510
  211MOL    H1146631   6.288   6.431   7.957 -0.5484 -2.4648  0.9858
  211MOL    H1246632   6.425   6.624   0.059 -1.3486  0.0501 -0.9091
  211MOL    C1346633   6.743   6.301   7.623 -0.0612 -0.6544  0.5079
  211MOL    C1446634   6.680   6.262   7.744 -0.0911 -0.0525 -0.2836
  211MOL    C1546635   6.574   6.335   7.796  0.1522 -0.1046 -0.0894
  211MOL    C1646636   6.531   6.448   7.724 -0.3259  0.0349 -0.3819
  211MOL    C1746637   6.582   6.478   7.599  0.2322 -0.5543 -0.0885
  211MOL    C1846638   6.691   6.405   7.544 -0.8968 -0.5126  0.4871
  211MOL    O1946639   6.740   6.439   7.419 -0.2504 -0.0102  0.6066
  211MOL    H2046640   6.826   6.244   7.584  0.0259  0.8429 -1.5355
  211MOL    H2146641   6.722   6.191   7.813 -0.2749 -1.4222 -1.5483
  211MOL    H2246642   6.444   6.495   7.767 -0.8533 -0.8114 -0.5080
  211MOL    H2346643   6.547   6.557   7.535  1.8400  0.7534  0.5896
  211MOL    C2446644   6.899   6.764   7.389 -0.0875  0.2795  0.1072
  211MOL    C2546645   6.803   6.667   7.404 -0.5727  0.0392 -0.0062
  211MOL    C2646646   6.837   6.530   7.420  0.3574  0.2937  0.4545
  211MOL    C2746647   6.973   6.499   7.428 -0.2964 -0.3025 -0.0537
  211MOL    C2846648   7.066   6.600   7.428 -1.0203 -0.3771 -0.1214
  211MOL    C2946649   7.035   6.728   7.400  0.1036  0.6105  0.5448
  211MOL    O3046650   7.125   6.832   7.397 -0.0351  0.4634  0.0607
  211MOL    H3146651   6.865   6.865   7.372  0.7628  0.3035 -1.5117
  211MOL    H3246652   6.698   6.687   7.389 -0.6281 -1.0501 -1.0614
  211MOL    H3346653   6.999   6.395   7.440 -0.4666 -0.3484 -0.0708
  211MOL    H3446654   7.168   6.567   7.441 -1.2687 -0.9312  0.4835
  211MOL    C3546655   7.469   6.710   7.381 -0.3709  0.0147  0.0970
  211MOL    C3646656   7.345   6.748   7.435 -0.4090 -0.1905  0.5952
  211MOL    C3746657   7.248   6.808   7.353  0.3790  0.1695 -0.6715
  211MOL    C3846658   7.277   6.837   7.217  0.3311 -0.6595  0.6595
  211MOL    C3946659   7.399   6.791   7.161  0.8561 -0.6577 -0.5415
  211MOL    C4046660   7.492   6.726   7.245 -0.5531 -0.1223 -0.2177
  211MOL    O4146661   7.615   6.689   7.190 -0.2945 -0.1100  0.5578
  211MOL    H4246662   7.542   6.662   7.445  1.5738  0.4698 -1.7178
  211MOL    H4346663   7.326   6.732   7.541  2.7008 -1.3985  1.0592
  211MOL    H4446664   7.200   6.875   7.151  3.2048 -1.1296 -3.1493
  211MOL    H4546665   7.426   6.805   7.057  0.8768 -0.6999 -0.5422
  211MOL    C4646666   7.569   6.327   7.115  0.0005 -0.5705  0.2742
  211MOL    C4746667   7.543   6.464   7.128 -0.1712  0.6463 -0.1144
  211MOL    C4846668   7.643   6.558   7.159  0.1192 -0.3815  0.7150
  211MOL    C4946669   7.769   6.509   7.177  0.0182  0.2501 -0.1690
  211MOL    C5046670   7.807   6.378   7.157 -0.3261 -0.3338 -0.3127
  211MOL    C5146671   7.702   6.285   7.132 -0.5495 -0.2133 -0.1785
  211MOL    O5246672   7.728   6.154   7.137 -0.1548  0.6555  0.0761
  211MOL    H5346673   7.477   6.270   7.107 -0.4025  0.1551 -0.3138
  211MOL    H5446674   7.439   6.488   7.111 -0.2867  3.6931  4.0604
  211MOL    H5546675   7.845   6.582   7.203  0.7192  0.2304 -2.0695
  211MOL    H5646676   7.909   6.345   7.164 -0.6623 -1.2105  0.4870
  211MOL    C5746677   7.988   5.997   7.342 -0.3274 -0.2505  0.5970
  211MOL    C5846678   7.915   6.033   7.228  0.1612  0.2576 -0.2380
  211MOL    C5946679   7.790   6.106   7.244  0.3656 -0.2495 -0.7925
  211MOL    C6046680   7.738   6.132   7.369  0.6892  0.3005 -0.1533
  211MOL    C6146681   7.803   6.086   7.482 -0.2768 -0.1519 -0.5006
  211MOL    C6246682   7.927   6.019   7.467  0.0464  0.5468  0.2768
  211MOL    O6346683   7.980   5.975   7.588 -0.4391  0.4106 -0.1099
  211MOL    H6446684   8.083   5.949   7.325 -0.6516 -0.9171  0.6422
  211MOL    H6546685   7.942   6.003   7.128 -1.0778  1.9089 -1.0980
  211MOL    H6646686   7.645   6.186   7.380  0.9039  0.8446 -0.9440
  211MOL    H6746687   7.758   6.104   7.578  0.6870 -0.7347  0.0716
  211MOL    C6846688   8.245   5.716   7.530  0.2741 -0.7298 -0.3327
  211MOL    C6946689   8.126   5.784   7.520  0.7992  0.3201 -0.0374
  211MOL    C7046690   8.101   5.901   7.599  0.1800  0.4718  0.0858
  211MOL    C7146691   8.199   5.951   7.687  0.4178  0.0718  0.9187
  211MOL    C7246692   0.060   5.881   7.705 -0.5642  0.5177 -0.6511
  211MOL    C7346693   0.092   5.769   7.622  0.2507 -1.6002  0.6799
  211MOL    O7446694   0.212   5.705   7.628  0.0184  0.2247 -0.1533
  211MOL    H7546695   0.011   5.633   7.465  0.2624  0.1104 -1.4195
  211MOL    H7646696   8.051   5.745   7.452 -0.8496  2.2724  0.6210
  211MOL    H7746697   8.175   6.037   7.748 -3.7761 -1.4899  1.6854
  211MOL    H7846698   0.132   5.916   7.776 -1.0131  1.0638 -0.4585
  211MOL    C7946699   0.489   5.893   7.477 -0.5054 -0.0021 -0.0912
  211MOL    C8046700   0.383   5.811   7.489 -0.0055 -0.6526  0.5758
  211MOL    C8146701   0.324   5.780   7.617  0.2365 -0.3307  1.3441
  211MOL    C8246702   0.400   5.823   7.729  0.0794 -0.6864  0.3457
  211MOL    C8346703   0.513   5.902   7.711 -0.0921 -0.1487 -0.0510
  211MOL    C8446704   0.559   5.938   7.588 -0.2394 -0.3662 -0.0487
  211MOL    O8546705   0.666   6.022   7.579 -0.3065 -0.0949  0.2530
  211MOL    H8646706   0.513   5.930   7.379  1.9310  0.1189  0.5227
  211MOL    H8746707   0.317   5.783   7.408  0.1407 -0.0529  0.2507
  211MOL    H8846708   0.358   5.791   7.823 -1.8114 -2.1171 -0.9267
  211MOL    H8946709   0.555   5.933   7.806  0.1282  0.6660 -0.4124
  211MOL    C9046710   0.590   6.355   7.718  0.6928  0.3540 -0.0147
  211MOL    C9146711   0.589   6.238   7.636 -1.0108 -0.2969  0.2119
  211MOL    C9246712   0.680   6.133   7.658  0.3282 -0.2166  0.6756
  211MOL    C9346713   0.768   6.140   7.766 -0.6172  0.0555  0.7000
  211MOL    C9446714   0.774   6.257   7.841 -0.0620 -0.0303 -0.2730
  211MOL    C9546715   0.687   6.365   7.819 -0.4701 -0.4105 -0.2523
  211MOL    O9646716   0.703   6.485   7.882 -0.0100 -0.1584 -0.4079
  211MOL    H9746717   0.524   6.438   7.699 -0.5488 -0.7376 -0.5299
  211MOL    H9846718   0.531   6.235   7.544  1.3978  0.3023 -1.3725
  211MOL    H9946719   0.840   6.060   7.779  0.3031  0.8711  0.6357
  211MOL   H10046720   0.853   6.247   7.915  0.5132  1.5494 -0.6639
  211MOL   C10146721   0.457   6.528   8.162  0.0406  0.0759 -0.1611
  211MOL   C10246722   0.567   6.472   8.081  0.3431 -0.0955 -0.0393
  211MOL   C10346723   0.594   6.519   7.950  0.7548  0.0390 -0.0438
  211MOL   C10446724   0.512   6.620   7.897 -0.8802  0.5853 -0.9430
  211MOL   C10546725   0.404   6.664   7.976 -0.8215 -0.0660  0.4932
  211MOL   C10646726   0.381   6.626   8.106  0.4056 -0.4032  0.5271
  211MOL   O10746727   0.280   6.688   8.170  0.5762 -0.0824 -0.3411
  211MOL   H10846728   0.450   6.494   0.011 -2.1402  0.5903 -0.1158
  211MOL   H10946729   0.629   6.393   8.123  0.5279 -0.6192 -1.2913
  211MOL   H11046730   0.522   6.653   7.794 -0.9742  0.3346 -1.0315
  211MOL   H11146731   0.350   6.747   7.933  3.0938  2.6711  0.5224
  211MOL   C11246732   0.449   6.964   0.126  0.0001  0.3468 -0.2332
  211MOL   C11346733   0.419   6.874   0.019  0.2041  0.1863  0.4099
  211MOL   C11446734   0.316   6.779   0.021  0.0617  0.5884  0.2784
  211MOL   C11546735   0.231   6.780   0.139  0.1095 -0.2176  0.6794
  211MOL   C11646736   0.262   6.857   0.247  0.9106  0.1118  0.0350
  211MOL   C11746737   0.365   6.952   0.241 -0.3340 -0.4609 -0.6044
  211MOL   O11846738   0.373   7.043   0.347 -0.0393 -0.0980 -0.2627
  211MOL   H11946739   0.538   7.026   0.123  2.5267 -3.1243 -0.5326
  211MOL   H12046740   0.480   6.876   8.184  0.8016 -1.5666  0.7572
  211MOL   H12146741   0.144   6.719   0.158  0.0101  0.1303  1.3528
  211MOL   H12246742   0.211   6.853   0.342  1.3918  1.5690  0.3573
  211MOL   C12346743   0.429   6.998   0.711  0.2513 -0.2778  0.1328
  211MOL   C12446744   0.372   7.039   0.588  0.4617  0.0293 -0.1484
  211MOL   C12546745   0.423   6.993   0.468  0.6602  0.2843 -0.2237
  211MOL   C12646746   0.531   6.903   0.466 -0.0166 -0.2636 -0.6517
  211MOL   C12746747   0.588   6.863   0.588  0.2197 -0.0887  0.4957
  211MOL   C12846748   0.530   6.905   0.710 -0.0947  0.0180  0.4579
  211MOL   O12946749   0.587   6.878   0.830 -1.0219 -0.2009  0.6075
  211MOL   H13046750   0.394   7.029   0.808 -1.4175 -0.8297 -0.2690
  211MOL   H13146751   0.296   7.116   0.590 -0.0275 -0.4634  0.9855
  211MOL   H13246752   0.569   6.871   0.371  0.6456 -0.3313 -0.3651
  211MOL   H13346753   0.668   6.790   0.583  0.5726  0.1568  2.0836
  211MOL   C13446754   0.806   7.139   0.966 -0.8892 -1.1586  0.1456
  211MOL   C13546755   0.686   7.073   0.923 -0.2705 -0.2169  0.1511
  211MOL   C13646756   0.700   6.949   0.859  0.0771  0.9205  0.5291
  211MOL   C13746757   0.828   6.897   0.826  0.0558  0.0533 -0.4510
  211MOL   C13846758   0.945   6.976   0.855  0.3928 -0.0881 -0.0548
  211MOL   C13946759   0.935   7.092   0.930  0.2474  0.9446  0.2378
  211MOL   O14046760   1.045   7.163   0.979 -0.1425  0.2289 -0.2873
  211MOL   H14146761   0.793   7.231   1.021 -1.5964 -0.6857 -0.8026
  211MOL   H14246762   0.588   7.111   0.950 -0.7715  0.8652 -2.9348
  211MOL   H14346763   0.837   6.796   0.790 -0.6106  0.0773 -0.6763
  211MOL   H14446764   1.039   6.924   0.843  0.4021 -1.0771  3.4995
  211MOL   C14546765   1.356   7.088   0.797  0.8024 -0.5838 -0.4009
  211MOL   C14646766   1.222   7.135   0.829  0.2509 -0.0501  0.4728
  211MOL   C14746767   1.171   7.125   0.954  0.2838 -0.3681  0.1896
  211MOL   C14846768   1.251   7.079   1.059  0.2985  0.0654 -0.5917
  211MOL   C14946769   1.388   7.045   1.037  0.8602  0.2311  0.3515
  211MOL   C15046770   1.440   7.051   0.907  0.0910  0.3710  0.9832
  211MOL   O15146771   1.571   7.020   0.878  0.1505 -0.7701  0.1555
  211MOL   H15246772   1.392   7.098   0.696  0.7237  2.4081 -0.1716
  211MOL   H15346773   1.167   7.170   0.743  0.5394 -0.9752 -0.0913
  211MOL   H15446774   1.210   7.080   1.158  0.0600 -2.0732 -0.6514
  211MOL   H15546775   1.445   7.015   1.123 -0.3143 -1.8027  0.4421
  211MOL   C15646776   1.696   6.803   0.610  0.3072  0.1092 -0.8481
  211MOL   C15746777   1.672   6.918   0.681  0.6646  0.3425  0.5120
  211MOL   C15846778   1.601   6.905   0.809 -0.1024  0.5363 -1.0193
  211MOL   C15946779   1.561   6.780   0.861  0.9955  0.4240  0.0845
  211MOL   C16046780   1.593   6.664   0.782  0.4289  0.7761 -1.2405
  211MOL   C16146781   1.660   6.675   0.662 -0.6882 -0.4435 -0.0113
  211MOL   O16246782   1.697   6.561   0.598  0.1085  0.0254  0.1470
  211MOL   H16346783   1.754   6.809   0.519  0.5967 -0.6199 -0.7158
  211MOL   H16446784   1.704   7.017   0.652  0.7935  0.0221 -0.4697
  211MOL   H16546785   1.531   6.759   0.963 -0.7730 -1.7712 -0.8301
  211MOL   H16646786   1.566   6.567   0.821  1.5125  0.3289 -1.5856
  211MOL   C16746787   1.577   6.561   0.250  0.0800 -0.7071  0.1918
  211MOL   C16846788   1.650   6.593   0.370 -0.7000 -0.1113  0.3371
  211MOL   C16946789   1.615   6.534   0.491 -0.3226  0.2656 -0.6338
  211MOL   C17046790   1.514   6.441   0.504  0.3367  0.6986 -0.2068
  211MOL   C17146791   1.444   6.406   0.386 -0.3116  0.3991  0.6027
  211MOL   C17246792   1.474   6.464   0.260  0.1225 -0.4171 -0.6584
  211MOL   O17346793   1.411   6.435   0.149 -0.1804 -0.0564 -0.1113
  211MOL   H17446794   1.603   6.611   0.158  2.1122 -0.6727  0.7583
  211MOL   H17546795   1.722   6.673   0.363 -2.2878  1.2152 -1.4709
  211MOL   H17646796   1.478   6.401   0.597  0.5913  1.6180  0.2942
  211MOL   H17746797   1.372   6.326   0.394 -0.1388  0.2814  1.0108
  211MOL   C17846798   1.083   6.599   0.195  0.2605 -0.1535 -0.0295
  211MOL   C17946799   1.211   6.554   0.227 -0.4510  0.2750 -0.1648
  211MOL   C18046800   1.282   6.478   0.131  0.1572 -0.0685 -0.3355
  211MOL   C18146801   1.215   6.441   0.014 -0.0466 -0.8167  0.3145
  211MOL   C18246802   1.081   6.475   8.240  1.0213  0.5976  1.0228
  211MOL   C18346803   1.019   6.572   0.071  0.3521 -0.4803  0.7522
  211MOL   O18446804   0.890   6.606   0.041  0.2072 -0.2695 -0.8648
  211MOL   H18546805   1.034   6.660   0.269 -0.3904  0.1624 -0.7213
  211MOL   H18646806   1.256   6.587   0.319  1.1230 -3.7263  0.5797
  211MOL   H18746807   1.275   6.374   8.208 -0.5343  0.4304 -1.5928
  211MOL   H18846808   1.027   6.437   8.154 -0.0948  0.7868  1.6300
  211MOL   C18946809   0.681   6.386   0.257  0.0877  0.5360  0.9600
  211MOL   C19046810   0.785   6.427   0.174  0.1232 -0.0345  1.0855
  211MOL   C19146811   0.792   6.557   0.126 -0.0585 -0.3058  0.7416
  211MOL   C19246812   0.695   6.654   0.166 -0.4380 -0.1999  0.4601
  211MOL   C19346813   0.595   6.615   0.255  0.4978  0.2104 -0.5101
  211MOL   C19446814   0.587   6.483   0.297  0.1565 -0.4535  0.5770
  211MOL   O19546815   0.480   6.446   0.375 -0.4820 -0.2004  0.0147
  211MOL   H19646816   0.673   6.288   0.302 -0.0302  1.2432  2.5318
  211MOL   H19746817   0.858   6.351   0.149 -1.0117 -1.0860  0.9072
  211MOL   H19846818   0.693   6.752   0.120 -0.4504 -0.8812 -1.0311
  211MOL   H19946819   0.518   6.686   0.281  1.8420  0.5636  2.7987
  211MOL   C20046820   0.135   6.457   0.249  0.1662  1.0732  0.0397
  211MOL   C20146821   0.255   6.498   0.313  0.6086 -0.0068 -0.1277
  211MOL   C20246822   0.368   6.419   0.304  1.5497  0.1480 -0.0290
  211MOL   C20346823   0.361   6.302   0.218  1.1508  0.3055 -0.5611
  211MOL   C20446824   0.247   6.269   0.153  0.6679 -0.3389  0.4515
  211MOL   C20546825   0.130   6.344   0.167  0.3898 -0.9625 -0.3546
  211MOL   O20646826   0.011   6.316   0.100 -0.0944  0.0663  0.7841
  211MOL   H20746827   0.051   6.524   0.256 -1.2056 -0.6749  0.6974
  211MOL   H20846828   0.264   6.587   0.374 -2.9105  0.9939 -0.9234
  211MOL   H20946829   0.452   6.244   0.212  0.5355 -0.4453 -2.7987
  211MOL   H21046830   0.247   6.193   0.077  2.5883 -0.3115  0.3931
  211MOL   C21146831   7.965   6.216   0.289  0.4458  0.1986 -0.7991
  211MOL   C21246832   8.055   6.296   0.215  0.2379  0.1995  0.2429
  211MOL   C21346833   8.170   6.239   0.157  0.2735  0.4106 -0.8307
  211MOL   C21446834   8.191   6.101   0.177 -0.1169  0.1515 -0.2291
  211MOL   C21546835   8.102   6.024   0.246  0.1907 -0.2925 -0.5101
  211MOL   C21646836   7.986   6.081   0.305 -0.5418  0.2945  0.8373
  211MOL   O21746837   7.899   6.012   0.388  0.1103  0.4538 -0.2366
  211MOL   H21846838   7.881   6.268   0.332 -0.0602 -1.2146 -0.0548
  211MOL   H21946839   8.037   6.402   0.203  0.0880  0.4695  2.6155
  211MOL   H22046840   0.019   6.053   0.127  0.6451 -0.3542  1.4555
  211MOL   H22146841   8.120   5.918   0.247  0.5665 -0.2137  1.0633
  211MOL   H22246842   7.925   5.923   0.404 -2.0813 -0.5239 -1.9917
  212MOL     C146843   3.686   1.057   6.789  0.4034 -0.0519 -0.1636
  212MOL     C246844   3.594   1.118   6.706 -0.7000 -0.1278 -0.4065
  212MOL     C346845   3.633   1.197   6.594 -0.2113  0.3042  0.2753
  212MOL     C446846   3.769   1.215   6.560  0.2969 -0.0540  0.3390
  212MOL     C546847   3.859   1.143   6.639  0.1414 -0.0452  0.1553
  212MOL     C646848   3.820   1.068   6.748  0.2505  1.0483  0.3368
  212MOL     O746849   3.913   1.000   6.823 -0.4961  0.2368 -0.2114
  212MOL     H846850   3.661   1.006   6.881  0.3742  1.2621  0.5814
  212MOL     H946851   3.489   1.114   6.732 -0.9124  1.9151 -0.8625
  212MOL    H1046852   3.794   1.275   6.474  2.7703 -1.0016  0.3717
  212MOL    H1146853   3.963   1.154   6.610  0.3360 -1.5587  0.2372
  212MOL    H1246854   3.554   1.235   6.532 -1.4199 -0.9659  1.0269
  212MOL    C1346855   3.945   1.088   7.181 -0.3000  0.1042 -0.3351
  212MOL    C1446856   3.898   1.022   7.065  0.1228  0.6962  0.9052
  212MOL    C1546857   3.952   1.053   6.941 -0.0625 -0.3532 -0.5125
  212MOL    C1646858   4.062   1.146   6.938  0.1306 -0.2534  0.0578
  212MOL    C1746859   4.104   1.216   7.053 -0.0537 -0.8879 -0.6699
  212MOL    C1846860   4.047   1.181   7.173  0.4699 -0.1563  0.5783
  212MOL    O1946861   4.097   1.247   7.283  0.6980  0.3349 -0.4184
  212MOL    H2046862   3.890   1.068   7.272 -1.8489  0.2529 -1.2143
  212MOL    H2146863   3.812   0.957   7.055  1.0562 -0.3481 -0.5678
  212MOL    H2246864   4.109   1.162   6.842 -0.0526  0.3373  0.0647
  212MOL    H2346865   4.179   1.293   7.048  0.0320 -0.7531  2.0563
  212MOL    C2446866   4.321   1.028   7.480  0.1813 -0.1655 -0.2147
  212MOL    C2546867   4.269   1.113   7.380  0.8824  0.3012  0.0426
  212MOL    C2646868   4.137   1.163   7.388 -0.2293 -0.1477 -0.3592
  212MOL    C2746869   4.062   1.141   7.504  0.0378 -0.1089  0.2711
  212MOL    C2846870   4.112   1.052   7.596 -0.2518 -0.4206  0.1448
  212MOL    C2946871   4.238   0.990   7.585 -0.1994 -0.2321  0.0860
  212MOL    O3046872   4.296   0.905   7.673 -0.2378 -0.1103  0.3191
  212MOL    H3146873   4.417   0.980   7.463  0.2797 -0.0204 -0.0744
  212MOL    H3246874   4.336   1.132   7.297 -0.0768  2.5408 -0.2643
  212MOL    H3346875   3.962   1.179   7.515 -0.5593 -1.2503 -1.0964
  212MOL    H3446876   4.063   1.033   7.690  1.4913 -0.4703  1.0612
  212MOL    C3546877   4.085   0.721   7.911  0.7371 -0.0332 -0.0332
  212MOL    C3646878   4.171   0.816   7.858 -0.0028  0.1196 -0.3368
  212MOL    C3746879   4.213   0.811   7.721  0.9510  0.3284 -0.2060
  212MOL    C3846880   4.163   0.718   7.636 -0.2233 -0.0660 -0.5923
  212MOL    C3946881   4.081   0.615   7.692 -0.4708 -0.3476 -0.3750
  212MOL    C4046882   4.038   0.621   7.826  0.0660  0.1182 -0.5055
  212MOL    O4146883   3.938   0.529   7.870 -0.3799 -0.0500  0.1348
  212MOL    H4246884   4.048   0.735   8.012  1.1669 -1.2027  0.2928
  212MOL    H4346885   4.210   0.887   7.928  0.6632 -1.5293  0.9804
  212MOL    H4446886   4.196   0.711   7.534  0.2370  1.1536 -0.5427
  212MOL    H4546887   4.056   0.531   7.629 -0.0767 -0.3823 -0.4850
  212MOL    C4646888   3.871   0.398   8.202  1.1008  0.7445 -0.1830
  212MOL    C4746889   3.856   0.455   8.078  0.6699 -0.2860 -0.0259
  212MOL    C4846890   3.963   0.463   7.991 -0.0792 -0.1338  0.5309
  212MOL    C4946891   4.092   0.413   8.029  0.1775 -0.5129 -0.5568
  212MOL    C5046892   4.111   0.348   8.154 -0.8245  0.1556  0.3605
  212MOL    C5146893   3.997   0.339   8.238 -0.5466 -0.3544 -0.3840
  212MOL    O5246894   4.016   0.273   0.099  0.0082  0.4002  0.1607
  212MOL    H5346895   3.781   0.398   0.008  1.4746  1.4240  0.3848
  212MOL    H5446896   3.762   0.503   8.055  0.7106  0.7165  1.7705
  212MOL    H5546897   4.169   0.410   7.954  0.4037  1.6001 -0.4276
  212MOL    H5646898   4.209   0.318   8.187 -0.2508  2.4909  0.8868
  212MOL    C5746899   3.904   8.212   0.237 -0.1724  0.0698  0.4714
  212MOL    C5846900   3.956   0.088   0.224  0.4895 -0.2712  0.9844
  212MOL    C5946901   3.978   0.144   0.099 -0.1947  0.1209  0.6659
  212MOL    C6046902   3.950   0.068   8.238  0.7271  0.7332  0.2732
  212MOL    C6146903   3.908   8.189   8.252  0.1187  0.1480  0.5841
  212MOL    C6246904   3.881   8.134   0.119  0.2810  0.2856 -0.5112
  212MOL    O6346905   3.832   8.009   0.132  0.3044 -0.0527 -0.1999
  212MOL    H6446906   3.884   8.168   0.333 -1.2914  1.4365  0.8890
  212MOL    H6546907   3.979   0.150   0.309 -0.6028  3.0738 -1.0590
  212MOL    H6646908   3.974   0.101   8.138  1.7425 -0.9533 -0.0517
  212MOL    H6746909   3.909   8.120   8.168 -1.5435  1.5719 -0.6532
  212MOL    C6846910   3.493   8.032   8.235 -0.5659 -0.1519  0.1840
  212MOL    C6946911   3.612   8.073   0.047  0.1376  0.5704 -0.6658
  212MOL    C7046912   3.713   7.975   0.072 -0.0198  0.0363  0.5881
  212MOL    C7146913   3.698   7.846   0.028  0.8192 -0.1522 -0.1667
  212MOL    C7246914   3.580   7.808   8.212  0.1415  0.2011  0.3522
  212MOL    C7346915   3.479   7.904   8.181  0.2916  0.0924  0.0708
  212MOL    O7446916   3.371   7.871   8.109 -0.2277 -0.6303  0.5928
  212MOL    H7546917   3.416   8.103   8.210 -0.7487 -0.1712  0.6947
  212MOL    H7646918   3.611   8.175   0.082  0.6745  0.7770 -1.2346
  212MOL    H7746919   3.771   7.768   0.045  0.3270 -0.7565 -0.7720
  212MOL    H7846920   3.563   7.707   8.176  0.0944 -0.3094  1.7870
  212MOL    C7946921   3.014   7.783   8.144  0.7180 -0.2413 -0.3218
  212MOL    C8046922   3.142   7.807   8.089 -0.5346 -0.5345 -0.6250
  212MOL    C8146923   3.252   7.839   8.172 -0.8001  0.0135 -0.4102
  212MOL    C8246924   3.231   7.848   0.057  0.5518 -0.8071 -0.1561
  212MOL    C8346925   3.105   7.836   0.114 -0.6430  0.6021  0.3919
  212MOL    C8446926   2.999   7.790   0.030  0.5342 -0.3850  0.1635
  212MOL    O8546927   2.876   7.770   0.089 -0.5411  0.1075 -0.6145
  212MOL    H8646928   2.928   7.748   8.088 -0.1138  0.3044  0.5995
  212MOL    H8746929   3.165   7.805   7.984 -1.8488 -1.1559 -0.9071
  212MOL    H8846930   3.311   7.875   0.124  0.2384  0.6260 -0.3371
  212MOL    H8946931   3.106   7.829   0.222  2.5242 -1.0644  0.2950
  212MOL    C9046932   2.833   7.397   0.087  0.0085  0.5588  0.2947
  212MOL    C9146933   2.871   7.530   0.050 -0.3570 -0.8473  0.0820
  212MOL    C9246934   2.833   7.645   0.124 -0.1529  0.3649  0.3787
  212MOL    C9346935   2.753   7.624   0.240  0.2182 -0.2368  0.1262
  212MOL    C9446936   2.712   7.493   0.271 -0.0062 -0.2927 -0.4754
  212MOL    C9546937   2.742   7.384   0.188 -0.1507  0.4533  0.2606
  212MOL    O9646938   2.693   7.258   0.221  0.1704  0.0869  0.0876
  212MOL    H9746939   2.860   7.315   0.023  1.3938  3.3168 -2.8459
  212MOL    H9846940   2.940   7.545   8.222  1.2280  0.6347  1.6498
  212MOL    H9946941   2.725   7.709   0.300 -1.0966  0.4920 -1.4783
  212MOL   H10046942   2.651   7.476   0.358 -0.0798  0.4641 -0.3768
  212MOL   C10146943   2.623   7.152   0.567 -0.7812 -0.0908 -0.3094
  212MOL   C10246944   2.612   7.179   0.430 -0.3738 -0.7241 -0.1132
  212MOL   C10346945   2.723   7.221   0.351 -0.4341 -0.6223  0.1858
  212MOL   C10446946   2.852   7.226   0.411 -0.6127 -0.0797 -0.8237
  212MOL   C10546947   2.858   7.212   0.552  0.6911  0.3381 -0.8686
  212MOL   C10646948   2.747   7.179   0.628  0.1219 -0.0781 -1.5636
  212MOL   O10746949   2.768   7.153   0.760 -0.5753  0.4385 -0.2606
  212MOL   H10846950   2.545   7.122   0.636 -0.5762  0.1891  0.0469
  212MOL   H10946951   2.514   7.180   0.385 -0.7631 -2.0387  0.6740
  212MOL   H11046952   2.935   7.258   0.350 -0.8023  0.7253 -0.6664
  212MOL   H11146953   2.957   7.215   0.595  0.9547 -1.0675 -1.3323
  212MOL   C11246954   3.003   7.268   1.013  0.4082  0.0174  0.6005
  212MOL   C11346955   2.936   7.190   0.920 -0.7141 -0.0800  0.2645
  212MOL   C11446956   2.836   7.240   0.840 -0.4700 -0.5226  0.1635
  212MOL   C11546957   2.822   7.378   0.831  0.4425 -0.1682 -0.3331
  212MOL   C11646958   2.882   7.461   0.927 -0.5235 -0.1614 -0.4230
  212MOL   C11746959   2.975   7.407   1.020 -0.8829 -0.0590  0.0764
  212MOL   O11846960   3.037   7.480   1.119  0.1415  0.4782 -0.2753
  212MOL   H11946961   3.067   7.216   1.082  0.2070 -0.3186  0.5302
  212MOL   H12046962   2.957   7.084   0.914 -0.7108 -0.1653  1.5672
  212MOL   H12146963   2.753   7.429   0.765  1.3076 -0.3974 -1.4322
  212MOL   H12246964   2.855   7.565   0.927  1.0154  0.3359 -4.3111
  212MOL   C12346965   3.277   7.753   1.042 -0.4939  0.2792  0.1409
  212MOL   C12446966   3.228   7.620   1.065  0.6615  0.1894 -0.3470
  212MOL   C12546967   3.095   7.601   1.094 -0.0155  0.2223 -0.2602
  212MOL   C12646968   3.015   7.718   1.109  0.4946 -0.5388 -0.1506
  212MOL   C12746969   3.063   7.853   1.089 -0.1438  0.5525 -0.0023
  212MOL   C12846970   3.199   7.866   1.059 -0.4251 -0.9002 -0.0131
  212MOL   O12946971   3.259   7.981   1.023 -0.7395 -0.0375 -0.1810
  212MOL   H13046972   3.382   7.757   1.016 -0.4669  1.3668  0.3964
  212MOL   H13146973   3.290   7.533   1.051  3.6415  2.0234  0.9550
  212MOL   H13246974   2.915   7.707   1.148 -0.8923 -1.6948 -3.8466
  212MOL   H13346975   3.005   7.944   1.094  0.0580  0.7061 -0.4813
  212MOL   C13446976   3.279   8.027   0.660  1.1789 -0.5103  0.8223
  212MOL   C13546977   3.309   7.978   0.790  0.0768 -0.2334 -0.2355
  212MOL   C13646978   3.241   8.031   0.895 -0.1795 -0.0990 -0.1139
  212MOL   C13746979   3.136   8.128   0.877 -0.4915 -0.3213  0.3602
  212MOL   C13846980   3.122   8.186   0.753 -0.1633  0.0499  0.5691
  212MOL   C13946981   3.189   8.133   0.642  0.3900  0.7524 -0.4048
  212MOL   O14046982   3.178   8.183   0.516 -0.0231 -0.2614  0.3737
  212MOL   H14146983   3.330   7.983   0.576 -0.5575  1.0280 -1.0879
  212MOL   H14246984   3.385   7.904   0.804 -0.1424 -0.4047  0.0597
  212MOL   H14346985   3.081   8.162   0.964  1.6070  2.2427  0.7618
  212MOL   H14446986   3.039   0.001   0.744 -2.4784 -2.7275 -0.3107
  212MOL   C14546987   2.897   8.007   0.349  0.0241  0.3245  0.3705
  212MOL   C14646988   3.028   8.031   0.402 -0.3506 -0.7187  0.9344
  212MOL   C14746989   3.059   8.161   0.450  0.8175 -0.0587  0.3056
  212MOL   C14846990   2.972   0.018   0.427  0.1618  0.2569  0.0023
  212MOL   C14946991   2.843   8.245   0.368  0.2085 -0.7314  0.9361
  212MOL   C15046992   2.811   8.117   0.315 -0.2252 -1.5950  0.2865
  212MOL   O15146993   2.688   8.103   0.256 -0.3998 -0.4647 -0.1826
  212MOL   H15246994   2.872   7.909   0.312  1.8286 -0.2516  0.6053
  212MOL   H15346995   3.094   7.948   0.420 -1.2508 -2.0774 -1.7606
  212MOL   H15446996   2.994   0.117   0.464  1.6678 -0.1275  0.1521
  212MOL   H15546997   2.768   0.068   0.361  0.5733 -0.5223 -1.1212
  212MOL   C15646998   2.381   8.219   0.434 -0.4960  0.0676  0.1363
  212MOL   C15746999   2.489   8.223   0.345  0.1685  0.7532  0.6211
  212MOL   C15847000   2.587   8.117   0.345  0.1475 -0.1895 -0.5600
  212MOL   C15947001   2.564   8.006   0.427  0.6801 -0.4061 -0.0861
  212MOL   C16047002   2.467   8.003   0.528  0.6008  0.2899 -0.1694
  212MOL   C16147003   2.372   8.116   0.532  0.3410  0.2664  0.2727
  212MOL   O16247004   2.293   8.108   0.640  0.3468 -0.6119  0.0719
  212MOL   H16347005   2.311   0.046   0.445 -0.0801  0.6009 -1.0431
  212MOL   H16447006   2.499   0.049   0.273  0.3744  0.2035  0.0292
  212MOL   H16547007   2.618   7.916   0.403  1.6980 -0.4946  2.3584
  212MOL   H16647008   2.468   7.920   0.597  2.2409  1.4173  1.2095
  212MOL   C16747009   2.464   0.004   0.924 -0.0283 -0.5957  0.1081
  212MOL   C16847010   2.419   8.166   0.834 -0.4019 -0.5589  0.9734
  212MOL   C16947011   2.326   8.200   0.736  0.4778 -0.5429  0.4813
  212MOL   C17047012   2.290   0.083   0.720  0.4611  0.5016  0.0977
  212MOL   C17147013   2.323   0.180   0.823 -0.6451 -0.4718  0.6001
  212MOL   C17247014   2.411   0.133   0.925  0.4995  0.3354 -0.4074
  212MOL   O17347015   2.445   0.223   1.021  0.0056  0.1585 -0.7357
  212MOL   H17447016   2.525   8.221   1.005  2.7694 -1.4573 -2.2872
  212MOL   H17547017   2.455   8.065   0.842  1.2820  0.0514  1.2211
  212MOL   H17647018   2.215   0.112   0.647 -0.2462  0.0548  0.6370
  212MOL   H17747019   2.284   0.281   0.819 -1.7920 -0.8769  1.1401
  212MOL   C17847020   2.371   0.161   1.374 -0.0440 -0.4968  0.5023
  212MOL   C17947021   2.438   0.162   1.256 -0.7033  0.1523  0.3430
  212MOL   C18047022   2.373   0.216   1.139 -0.4401  0.4848 -0.0904
  212MOL   C18147023   2.236   0.251   1.145 -0.3821  0.4005 -0.7507
  212MOL   C18247024   2.166   0.235   1.266  0.0179 -0.0546 -0.3904
  212MOL   C18347025   2.234   0.184   1.378 -0.4349 -0.9198 -0.0302
  212MOL   O18447026   2.161   0.159   1.492 -0.3804  0.3832 -0.0214
  212MOL   H18547027   2.423   0.114   1.456  0.2078  0.7697  1.0673
  212MOL   H18647028   2.539   0.123   1.257 -0.4069  0.8484 -1.0572
  212MOL   H18747029   2.178   0.283   1.060 -0.2726 -2.0639 -1.7871
  212MOL   H18847030   2.065   0.273   1.274 -1.1772 -3.4275  1.4451
  212MOL   C18947031   1.810   0.301   1.543 -0.1066  0.1063  0.3851
  212MOL   C19047032   1.918   0.208   1.514 -0.1862 -0.2735 -0.3891
  212MOL   C19147033   2.054   0.240   1.518  0.7124  0.8531  0.8114
  212MOL   C19247034   2.087   0.378   1.543 -1.3827 -0.2707 -0.5603
  212MOL   C19347035   1.984   0.475   1.567 -0.7091 -0.3930  0.0356
  212MOL   C19447036   1.847   0.438   1.558  0.5884 -0.7049 -1.2435
  212MOL   O19547037   1.746   0.526   1.566  0.2274 -0.0327 -0.2807
  212MOL   H19647038   1.706   0.276   1.527 -0.1338  1.8990 -2.5066
  212MOL   H19747039   1.889   0.106   1.493  0.1959 -0.2588 -1.0062
  212MOL   H19847040   2.186   0.420   1.550 -2.4401  2.4870 -1.4509
  212MOL   H19947041   2.008   0.580   1.572 -1.2381 -0.1047 -2.6889
  212MOL   C20047042   1.818   0.727   1.869  0.1689 -0.7270 -0.6946
  212MOL   C20147043   1.815   0.624   1.781  0.6990  0.1290 -0.0567
  212MOL   C20247044   1.746   0.631   1.656 -0.2113 -0.5676 -0.5823
  212MOL   C20347045   1.682   0.753   1.620 -0.1652 -0.3844 -0.4098
  212MOL   C20447046   1.691   0.855   1.714  0.0198 -0.5725  0.0399
  212MOL   C20547047   1.753   0.849   1.838 -0.4255 -0.1296 -0.3879
  212MOL   O20647048   1.746   0.945   1.930  0.2296 -0.4806  0.0679
  212MOL   H20747049   1.856   0.714   1.969  0.5081 -1.9162 -0.9694
  212MOL   H20847050   1.853   0.529   1.817 -0.0529  0.9342  2.9858
  212MOL   H20947051   1.627   0.759   1.527 -0.9689 -0.6780  0.0473
  212MOL   H21047052   1.631   0.942   1.689  0.3796  0.0741  1.3635
  212MOL   C21147053   1.422   0.926   2.108 -0.1957 -0.5640 -0.2480
  212MOL   C21247054   1.545   0.885   2.053  0.0626  0.6359 -0.5529
  212MOL   C21347055   1.620   0.976   1.974 -0.1891  0.1192  0.1536
  212MOL   C21447056   1.568   1.105   1.949  0.3977 -0.9080 -0.6140
  212MOL   C21547057   1.446   1.141   2.006  0.1528  0.0700 -0.3089
  212MOL   C21647058   1.370   1.052   2.087  0.1148 -0.1647 -0.6488
  212MOL   O21747059   1.259   1.105   2.151 -0.5330  0.3539 -0.2654
  212MOL   H21847060   1.378   0.869   2.188 -1.7364  1.8549  0.6891
  212MOL   H21947061   1.577   0.789   2.092  2.9835  2.2113  1.1090
  212MOL   H22047062   1.621   1.178   1.889 -2.9674  1.5351 -0.8126
  212MOL   H22147063   1.407   1.239   1.986 -0.8411 -0.5165 -1.3195
  212MOL   H22247064   1.231   1.191   2.126  3.4751  1.9519  0.2703
  213MOL     C147065   1.452   1.077   2.844  0.0958  0.5319  0.4211
  213MOL     C247066   1.432   0.974   2.748 -0.0262 -0.5061 -0.1619
  213MOL     C347067   1.527   0.880   2.731  0.3449  0.5147 -0.4110
  213MOL     C447068   1.654   0.888   2.800  0.1245  0.3874 -0.0835
  213MOL     C547069   1.671   0.996   2.885 -0.1645  0.4200  0.3546
  213MOL     C647070   1.580   1.089   2.907  0.6669  0.0909  0.4434
  213MOL     O747071   1.609   1.200   2.981  0.0049 -0.4982 -0.2200
  213MOL     H847072   1.378   1.156   2.845 -0.5131  0.1310 -3.2102
  213MOL     H947073   1.339   0.981   2.693 -0.6189  0.0717  0.9081
  213MOL    H1047074   1.742   0.829   2.781  0.1501  0.8627 -1.5379
  213MOL    H1147075   1.762   1.006   2.942 -1.1734  0.3420  2.0324
  213MOL    H1247076   1.519   0.801   2.657 -1.1113  1.1865 -0.9918
  213MOL    C1347077   1.616   1.130   3.349  0.2793 -0.2912  0.5586
  213MOL    C1447078   1.656   1.157   3.219 -0.1611 -0.3374  1.2693
  213MOL    C1547079   1.570   1.200   3.117 -0.1029 -0.1996 -0.2879
  213MOL    C1647080   1.441   1.240   3.152  0.0382  0.1582 -0.2536
  213MOL    C1747081   1.404   1.221   3.290 -0.3566 -0.1564 -0.5571
  213MOL    C1847082   1.487   1.162   3.381 -0.0612  0.5301 -0.2327
  213MOL    O1947083   1.442   1.127   3.507 -0.2634 -0.3733  0.3487
  213MOL    H2047084   1.680   1.088   3.424  1.7042  1.8774  0.6173
  213MOL    H2147085   1.757   1.130   3.192  0.6255  1.6539  2.1092
  213MOL    H2247086   1.376   1.295   3.085  0.7186 -0.6592 -1.6018
  213MOL    H2347087   1.314   1.264   3.333  1.4367  0.4387  2.7972
  213MOL    C2447088   1.497   1.388   3.763  1.5431 -0.5004 -0.2902
  213MOL    C2547089   1.523   1.287   3.670  0.1657  0.0059  0.3336
  213MOL    C2647090   1.416   1.229   3.594  0.3815  0.0311  0.8425
  213MOL    C2747091   1.292   1.290   3.600  0.1149 -0.5810 -0.0352
  213MOL    C2847092   1.264   1.399   3.680 -0.3277  0.5756 -0.1115
  213MOL    C2947093   1.364   1.445   3.761  0.1829 -1.0262 -0.4393
  213MOL    O3047094   1.348   1.554   3.842  0.0321 -0.3695 -0.3655
  213MOL    H3147095   1.577   1.425   3.826 -0.3976  0.7733  1.4963
  213MOL    H3247096   1.623   1.250   3.653 -0.7862 -2.3059 -0.4923
  213MOL    H3347097   1.211   1.259   3.536  0.2943 -0.3824 -0.3557
  213MOL    H3447098   1.169   1.448   3.666  0.8680  2.8077 -0.6510
  213MOL    C3547099   1.337   1.421   4.194  0.7492  0.3955 -0.0694
  213MOL    C3647100   1.313   1.433   4.056 -0.4813  0.3949 -0.3475
  213MOL    C3747101   1.374   1.537   3.978  0.3645 -0.1828 -0.1021
  213MOL    C3847102   1.441   1.632   4.048 -0.0263  0.1894 -0.0812
  213MOL    C3947103   1.456   1.627   4.187 -0.6518  0.4073 -0.0826
  213MOL    C4047104   1.406   1.521   4.260 -0.5284  0.8060 -0.0730
  213MOL    O4147105   1.433   1.510   4.396  0.3127 -0.3967 -0.2436
  213MOL    H4247106   1.307   1.337   4.255 -0.8598 -0.4700 -1.9793
  213MOL    H4347107   1.254   1.363   3.999 -4.1584  2.1509  1.1838
  213MOL    H4447108   1.490   1.706   3.987  0.4376  1.1583  1.4372
  213MOL    H4547109   1.516   1.705   4.231  0.6542 -1.2395  1.1218
  213MOL    C4647110   1.374   1.845   4.548  0.6247  0.5759  0.4098
  213MOL    C4747111   1.433   1.733   4.483 -0.5959  0.4642  0.2972
  213MOL    C4847112   1.376   1.607   4.481 -0.1267 -0.0012 -0.4040
  213MOL    C4947113   1.244   1.595   4.545  0.1116 -0.1491  0.1322
  213MOL    C5047114   1.180   1.703   4.607  0.2047 -0.2530 -0.0854
  213MOL    C5147115   1.248   1.830   4.607 -0.8606  0.3571 -0.2691
  213MOL    O5247116   1.193   1.928   4.679  0.4651 -0.1636  0.4486
  213MOL    H5347117   1.425   1.939   4.543  1.4591  0.0432 -1.8439
  213MOL    H5447118   1.524   1.753   4.429 -0.0645 -1.6089  0.3826
  213MOL    H5547119   1.188   1.502   4.544  0.5768 -0.4234 -0.1621
  213MOL    H5647120   1.087   1.682   4.657  1.4635  2.4528  3.6441
  213MOL    C5747121   1.198   1.947   5.039 -0.4029  0.0164  0.4315
  213MOL    C5847122   1.165   1.907   4.907  0.9407  0.0867 -0.5376
  213MOL    C5947123   1.244   1.954   4.804 -0.3070  0.1948  0.3828
  213MOL    C6047124   1.363   2.024   4.827 -0.3844 -0.0182 -1.0436
  213MOL    C6147125   1.405   2.045   4.962  0.1542 -0.5458  0.2593
  213MOL    C6247126   1.321   2.007   5.070 -0.7628 -0.0814 -0.8843
  213MOL    O6347127   1.354   2.022   5.203 -0.1202  0.4737 -0.2151
  213MOL    H6447128   1.129   1.916   5.117  0.1971 -3.1407 -0.2460
  213MOL    H6547129   1.079   1.854   4.870  0.8452  0.3248 -0.6615
  213MOL    H6647130   1.436   2.037   4.749  0.1940 -1.2954 -0.7316
  213MOL    H6747131   1.504   2.086   4.972  0.6216 -0.6714 -3.2520
  213MOL    C6847132   1.592   1.754   5.344  0.4394  0.2774  0.2472
  213MOL    C6947133   1.544   1.863   5.268  0.0655 -0.3731 -0.6572
  213MOL    C7047134   1.409   1.910   5.268 -0.1768 -0.3147  0.3408
  213MOL    C7147135   1.316   1.832   5.343 -0.1546 -0.0913  1.0418
  213MOL    C7247136   1.354   1.715   5.420  0.4773 -0.4433  0.7875
  213MOL    C7347137   1.489   1.683   5.423  0.3654  0.5256 -0.1370
  213MOL    O7447138   1.521   1.573   5.503  0.1100 -0.2176 -0.1296
  213MOL    H7547139   1.689   1.708   5.347  0.1399 -0.4065 -0.3444
  213MOL    H7647140   1.609   1.919   5.201 -0.6178 -0.5046 -1.4435
  213MOL    H7747141   1.211   1.847   5.327 -0.1370 -1.0516 -0.0801
  213MOL    H7847142   1.288   1.652   5.479  0.5156 -0.6461  0.6158
  213MOL    C7947143   1.573   1.266   5.303  0.4036 -0.1577 -0.4900
  213MOL    C8047144   1.514   1.368   5.383  0.3117  0.1531 -0.1352
  213MOL    C8147145   1.589   1.476   5.440 -0.6904 -0.1268  0.8063
  213MOL    C8247146   1.729   1.467   5.425  0.2926 -0.1946 -0.8848
  213MOL    C8347147   1.786   1.369   5.341  0.4197 -0.8120  0.2656
  213MOL    C8447148   1.714   1.264   5.283  0.7273 -0.0307  0.4388
  213MOL    O8547149   1.774   1.172   5.204 -0.0475  0.3234  0.4929
  213MOL    H8647150   1.507   1.190   5.264 -0.9492  0.9713 -0.4284
  213MOL    H8747151   1.407   1.370   5.394  0.1182  0.0420 -1.7947
  213MOL    H8847152   1.789   1.542   5.475 -0.9089 -0.6978  1.3689
  213MOL    H8947153   1.893   1.380   5.333  0.4529 -0.9333  0.5359
  213MOL    C9047154   1.609   0.844   5.216 -0.5487 -0.4344 -0.2874
  213MOL    C9147155   1.694   0.952   5.262  0.3563  0.7391  0.2472
  213MOL    C9247156   1.706   1.058   5.172 -0.4011  0.0175  0.1636
  213MOL    C9347157   1.648   1.058   5.045  0.3816 -0.1527  0.2970
  213MOL    C9447158   1.578   0.946   4.999  0.0190  0.0830 -0.0477
  213MOL    C9547159   1.557   0.839   5.087 -0.4797  0.4174  0.5772
  213MOL    O9647160   1.493   0.726   5.050 -0.3236 -0.4628  0.0372
  213MOL    H9747161   1.587   0.769   5.291 -1.6833  0.1444 -0.0206
  213MOL    H9847162   1.731   0.944   5.363  1.6793  0.2324 -0.2745
  213MOL    H9947163   1.656   1.153   4.994 -2.2760  1.1085  2.0824
  213MOL   H10047164   1.538   0.944   4.899 -0.9688  0.4523  0.3375
  213MOL   C10147165   1.704   0.533   4.824  0.1798 -0.3635  0.3098
  213MOL   C10247166   1.647   0.648   4.882 -0.3046  0.5903  0.2770
  213MOL   C10347167   1.561   0.628   4.993  0.4398 -0.4941 -0.4752
  213MOL   C10447168   1.523   0.495   5.032  0.2264 -1.2208 -0.6057
  213MOL   C10547169   1.590   0.390   4.982  0.1151  0.1926 -0.7415
  213MOL   C10647170   1.682   0.405   4.873  0.1145  0.1964  0.6320
  213MOL   O10747171   1.750   0.305   4.813  0.1753 -0.2712 -0.0462
  213MOL   H10847172   1.762   0.535   4.733  0.3631  2.0683  0.4578
  213MOL   H10947173   1.685   0.741   4.843  0.2671 -0.7112 -2.3472
  213MOL   H11047174   1.450   0.487   5.111  1.7087  0.2750  0.9735
  213MOL   H11147175   1.570   0.290   5.017 -1.1442  1.5148  2.5283
  213MOL   C11247176   1.483   0.090   4.652 -0.0963 -0.7421  0.2044
  213MOL   C11347177   1.548   0.202   4.709 -0.2668  0.9513 -0.1270
  213MOL   C11447178   1.678   0.193   4.765  0.6371  0.4121 -0.5698
  213MOL   C11547179   1.742   0.067   4.772  0.9732 -0.4521 -0.6038
  213MOL   C11647180   1.673   8.207   4.726  0.3086  0.0247 -0.5993
  213MOL   C11747181   1.545   8.212   4.670 -0.5668 -0.0511 -0.5694
  213MOL   O11847182   1.488   8.095   4.639 -0.3426  0.1910  0.2289
  213MOL   H11947183   1.388   0.110   4.606  0.1049 -0.8305 -0.2498
  213MOL   H12047184   1.496   0.296   4.694 -0.5525  0.3638 -3.1593
  213MOL   H12147185   1.844   0.056   4.804  1.2379 -0.4748 -1.4678
  213MOL   H12247186   1.729   8.115   4.720  0.3410  0.0593 -0.8226
  213MOL   C12347187   1.470   8.070   4.263  0.1524 -0.6773  0.2247
  213MOL   C12447188   1.525   8.094   4.396  0.3165  0.5496 -0.4357
  213MOL   C12547189   1.443   8.074   4.512  0.3678 -0.1083  0.1880
  213MOL   C12647190   1.314   8.027   4.489  0.3465  0.1656  0.0015
  213MOL   C12747191   1.257   8.013   4.361  0.0609  0.0661 -0.8585
  213MOL   C12847192   1.337   8.034   4.249  0.8714 -0.4087  0.4920
  213MOL   O12947193   1.294   8.001   4.124 -0.4745  0.5676  0.3780
  213MOL   H13047194   1.538   8.085   4.180 -0.9664 -0.2280 -0.6318
  213MOL   H13147195   1.629   8.122   4.404  0.7871 -0.8090 -1.6780
  213MOL   H13247196   1.254   8.016   4.578  0.6560 -3.2359 -0.1654
  213MOL   H13347197   1.153   7.982   4.358 -0.4097  1.3815  1.0134
  213MOL   C13447198   1.307   7.634   4.083 -0.4501  0.0894  0.4149
  213MOL   C13547199   1.285   7.758   4.144  0.0527  0.2061  0.3347
  213MOL   C13647200   1.331   7.876   4.080  0.1496  0.7219 -0.3371
  213MOL   C13747201   1.401   7.861   3.959 -0.3290 -0.2110  0.3899
  213MOL   C13847202   1.421   7.737   3.896  0.4451  0.4838 -0.3744
  213MOL   C13947203   1.379   7.623   3.958  0.2438 -0.0221 -0.3001
  213MOL   O14047204   1.401   7.499   3.900 -0.4711  0.5857  0.5065
  213MOL   H14147205   1.270   7.544   4.129 -0.3686 -1.8202 -3.0282
  213MOL   H14247206   1.224   7.762   4.233 -1.1250 -0.5433 -0.4154
  213MOL   H14347207   1.434   7.953   3.914 -1.5121  1.2610  2.4443
  213MOL   H14447208   1.485   7.722   3.810  0.0276 -0.1683 -0.5743
  213MOL   C14547209   1.053   7.360   3.892  0.5018 -0.2120 -0.1452
  213MOL   C14647210   1.157   7.453   3.886  0.2039  0.0751  0.4633
  213MOL   C14747211   1.290   7.412   3.892  0.0158  0.6223  0.2577
  213MOL   C14847212   1.319   7.275   3.877 -0.1550 -0.1162  0.2101
  213MOL   C14947213   1.220   7.174   3.875  0.2228 -0.3249 -0.2675
  213MOL   C15047214   1.090   7.217   3.892 -0.0559 -0.2304  0.0902
  213MOL   O15147215   0.993   7.122   3.917  0.3081 -0.4097  0.3216
  213MOL   H15247216   0.948   7.382   3.897  0.8803  1.4988  0.7542
  213MOL   H15347217   1.126   7.557   3.886 -2.0715 -0.5670  1.2518
  213MOL   H15447218   1.421   7.240   3.874 -1.2949 -3.6404 -0.4794
  213MOL   H15547219   1.248   7.069   3.873  2.7043  0.2494  1.6594
  213MOL   C15647220   0.983   7.103   4.293  0.0542 -0.0453  0.8401
  213MOL   C15747221   1.025   7.140   4.163  0.4192 -0.4223 -0.7501
  213MOL   C15847222   0.955   7.093   4.046 -0.6219 -0.6269  0.4857
  213MOL   C15947223   0.840   7.016   4.064 -1.1730 -0.2152  0.6836
  213MOL   C16047224   0.804   6.968   4.190  0.6500 -0.7189  0.0830
  213MOL   C16147225   0.877   7.012   4.304  0.2910 -0.6868 -0.8820
  213MOL   O16247226   0.831   6.981   4.429 -0.0262  0.4169 -0.1638
  213MOL   H16347227   1.036   7.127   4.384  0.5492 -0.0304  0.5506
  213MOL   H16447228   1.120   7.192   4.155  0.1824  0.3490  1.2707
  213MOL   H16547229   0.792   6.977   3.975  1.3386  2.4875 -1.9515
  213MOL   H16647230   0.715   6.909   4.205 -0.8397  1.5485  0.3038
  213MOL   C16747231   0.755   6.631   4.489 -0.3755 -0.4080  0.3979
  213MOL   C16847232   0.739   6.768   4.460  0.3321  0.4123  0.2110
  213MOL   C16947233   0.850   6.853   4.457  0.2964 -0.4656  0.1384
  213MOL   C17047234   0.979   6.808   4.495 -0.2260 -0.6228 -0.2619
  213MOL   C17147235   0.998   6.670   4.508 -0.3901  0.0752  0.6367
  213MOL   C17247236   0.889   6.577   4.505  0.2670 -0.0849  0.2123
  213MOL   O17347237   0.922   6.446   4.513  0.1259 -0.3715  0.4172
  213MOL   H17447238   0.673   6.562   4.475 -0.4176 -0.1036 -0.8695
  213MOL   H17547239   0.646   6.818   4.440 -0.3761  0.0084  2.3487
  213MOL   H17647240   1.061   6.878   4.492 -0.2025 -0.6756 -1.2582
  213MOL   H17747241   1.097   6.627   4.506 -0.5240 -0.2864  1.4674
  213MOL   C17847242   0.666   6.194   4.434 -0.3206 -0.7515  0.0545
  213MOL   C17947243   0.771   6.285   4.419 -0.3888 -0.0482  0.2475
  213MOL   C18047244   0.818   6.363   4.529 -0.9490  0.1139  0.0435
  213MOL   C18147245   0.747   6.364   4.649  0.7600  0.3356 -0.2668
  213MOL   C18247246   0.631   6.286   4.655 -0.5237  0.2606  0.1554
  213MOL   C18347247   0.590   6.201   4.555  0.2963  0.1702 -0.5506
  213MOL   O18447248   0.472   6.136   4.573  0.0986  0.2016 -0.0727
  213MOL   H18547249   0.639   6.119   4.361  1.1153  0.5655 -1.8567
  213MOL   H18647250   0.823   6.288   4.325  0.4997  2.1401  0.7758
  213MOL   H18747251   0.766   6.435   4.728 -0.0120  0.7110 -0.4100
  213MOL   H18847252   0.575   6.293   4.747  2.3727  0.9119  1.9281
  213MOL   C18947253   0.439   5.815   4.400  0.1366 -0.5902  0.0514
  213MOL   C19047254   0.473   5.905   4.498 -0.6687 -0.7464 -0.4938
  213MOL   C19147255   0.434   6.041   4.482 -0.4546 -0.1258  0.7913
  213MOL   C19247256   0.352   6.080   4.373 -0.0997  0.7245 -0.2943
  213MOL   C19347257   0.330   5.991   4.269 -0.3552  0.7103  0.2330
  213MOL   C19447258   0.372   5.857   4.281  0.3964  0.8026 -0.2267
  213MOL   O19547259   0.348   5.773   4.172 -0.2468 -0.2727  0.3223
  213MOL   H19647260   0.468   5.713   4.416  0.5886 -0.7192 -1.4561
  213MOL   H19747261   0.531   5.873   4.584  0.6284 -1.0608 -1.4747
  213MOL   H19847262   0.317   6.182   4.365 -1.4545  0.1664 -1.8237
  213MOL   H19947263   0.270   6.025   4.186 -0.6430  1.4278  0.7204
  213MOL   C20047264   0.554   5.469   4.138  0.0914 -0.2428 -0.4134
  213MOL   C20147265   0.522   5.600   4.137  0.6861  0.2147 -0.1929
  213MOL   C20247266   0.389   5.642   4.175  0.1508 -0.1688 -0.7059
  213MOL   C20347267   0.288   5.548   4.213 -0.2748  0.3780  0.3853
  213MOL   C20447268   0.327   5.414   4.223 -0.6462 -0.3389 -0.0435
  213MOL   C20547269   0.458   5.372   4.179 -0.4042  0.3692 -0.2852
  213MOL   O20647270   0.502   5.243   4.190 -0.0523 -0.2047  0.3007
  213MOL   H20747271   0.648   5.434   4.098  0.3268 -1.5055  1.1607
  213MOL   H20847272   0.578   5.688   4.109 -0.0103  0.3249 -1.2627
  213MOL   H20947273   0.189   5.575   4.246  0.7453  1.4950  2.6597
  213MOL   H21047274   0.254   5.343   4.257 -0.2675 -0.5555  0.3157
  213MOL   C21147275   0.300   5.040   3.960 -0.2814  0.0367 -0.3067
  213MOL   C21247276   0.374   5.148   4.009  1.0479  0.1754  1.5997
  213MOL   C21347277   0.420   5.143   4.142  0.0552 -0.0361 -0.3432
  213MOL   C21447278   0.397   5.032   4.224 -0.0017 -0.6468 -0.4284
  213MOL   C21547279   0.316   4.926   4.175  0.7176 -0.5303  0.7000
  213MOL   C21647280   0.274   4.926   4.038  0.2222  0.4526  0.6618
  213MOL   O21747281   0.206   4.821   3.986 -0.3100 -0.9482 -0.2736
  213MOL   H21847282   0.258   5.051   3.861 -0.5433  0.6339 -0.1314
  213MOL   H21947283   0.386   5.238   3.951  0.6875 -0.2228  0.9056
  213MOL   H22047284   0.437   5.033   4.325  1.1169 -1.3796 -0.8656
  213MOL   H22147285   0.289   4.844   4.241 -0.2609 -0.1349  0.8064
  213MOL   H22247286   0.161   4.849   3.908  1.0888 -0.6035 -0.9837
  214MOL     C147287   6.437   7.580   6.313 -0.6337 -0.3584  0.7519
  214MOL     C247288   6.526   7.665   6.237  0.5433 -0.0123 -0.1146
  214MOL     C347289   6.610   7.607   6.138  0.8571  0.0273 -0.0338
  214MOL     C447290   6.611   7.470   6.109  0.1571 -0.2937  0.8302
  214MOL     C547291   6.541   7.390   6.197  0.5365 -0.4346 -0.3180
  214MOL     C647292   6.449   7.439   6.291  1.0239  0.2007  0.5616
  214MOL     O747293   6.374   7.369   6.387 -0.8478 -0.2665  0.5038
  214MOL     H847294   6.369   7.616   6.390 -2.0549 -0.1164 -0.5874
  214MOL     H947295   6.524   7.771   6.260  1.0093  0.6712 -2.9426
  214MOL    H1047296   6.671   7.428   6.030  0.0763 -1.7919  1.5502
  214MOL    H1147297   6.540   7.285   6.176  0.2756 -0.0994 -2.0642
  214MOL    H1247298   6.684   7.670   6.091 -0.1064  1.4008  0.2367
  214MOL    C1347299   6.589   7.246   6.653  0.2818  0.7325 -0.3436
  214MOL    C1447300   6.523   7.335   6.570  0.3575 -0.0278  0.4253
  214MOL    C1547301   6.451   7.285   6.462  0.1301  0.1405 -0.0087
  214MOL    C1647302   6.433   7.147   6.437  0.1596  0.6415 -0.5570
  214MOL    C1747303   6.505   7.056   6.516  0.2063  0.1564  0.3378
  214MOL    C1847304   6.586   7.110   6.619 -0.0181 -0.7675 -0.6559
  214MOL    O1947305   6.654   7.033   6.716  0.3637 -0.6112 -0.0750
  214MOL    H2047306   6.639   7.280   6.743 -1.6146  1.2880  0.5291
  214MOL    H2147307   6.516   7.442   6.581 -1.0877 -0.0664  0.0275
  214MOL    H2247308   6.372   7.105   6.358  1.2131 -1.0034 -0.5252
  214MOL    H2347309   6.493   6.953   6.487 -0.1077  0.3906 -0.3876
  214MOL    C2447310   6.432   6.826   6.916  0.0166 -0.2626  0.0082
  214MOL    C2547311   6.499   6.942   6.872  0.6679  0.3964  0.3457
  214MOL    C2647312   6.582   6.928   6.760 -0.2722  0.1614 -0.3186
  214MOL    C2747313   6.607   6.801   6.708  0.1338  0.0544 -0.1268
  214MOL    C2847314   6.542   6.692   6.758 -0.1193  0.5979  1.0305
  214MOL    C2947315   6.455   6.698   6.862  0.2799 -0.3384 -0.4362
  214MOL    O3047316   6.392   6.585   6.906 -0.1139  0.3812 -0.3476
  214MOL    H3147317   6.354   6.838   6.990 -0.2628 -3.9144  0.3663
  214MOL    H3247318   6.471   7.036   6.916  1.5964  0.2768  1.2195
  214MOL    H3347319   6.672   6.794   6.622 -1.0049  1.0700 -1.0736
  214MOL    H3447320   6.565   6.589   6.734  0.3262  0.4038  2.2677
  214MOL    C3547321   6.266   6.567   7.253 -0.3323  0.1637 -0.6779
  214MOL    C3647322   6.276   6.610   7.123  0.4123 -0.0942  0.0950
  214MOL    C3747323   6.385   6.565   7.048 -0.6134 -0.0450  0.1087
  214MOL    C3847324   6.471   6.469   7.100  0.0354 -0.4183 -0.7826
  214MOL    C3947325   6.457   6.422   7.234 -0.1738 -0.3200  0.0887
  214MOL    C4047326   6.350   6.469   7.309 -0.5771 -0.3578  0.3574
  214MOL    O4147327   6.326   6.421   7.435 -0.7095 -0.1476  0.0685
  214MOL    H4247328   6.182   6.605   7.310 -0.3626 -0.0744 -0.5597
  214MOL    H4347329   6.202   6.671   7.074 -0.3257  0.8548  2.3281
  214MOL    H4447330   6.536   6.410   7.037  1.4734  1.1039 -0.7564
  214MOL    H4547331   6.520   6.346   7.278  0.6882  0.1386 -0.3353
  214MOL    C4647332   6.301   6.063   7.521 -0.0099  0.6982 -0.3433
  214MOL    C4747333   6.350   6.193   7.499 -0.0497  0.2336 -0.0302
  214MOL    C4847334   6.268   6.299   7.458 -0.0156  0.4086 -0.0263
  214MOL    C4947335   6.131   6.272   7.443  0.9171 -0.1187 -0.3772
  214MOL    C5047336   6.075   6.145   7.474 -0.3200  0.0401  0.1114
  214MOL    C5147337   6.164   6.035   7.510  0.0026 -0.0537  0.2344
  214MOL    O5247338   6.118   5.909   7.511 -0.0219 -0.1379 -0.3233
  214MOL    H5347339   6.365   5.981   7.548 -0.0311  0.3879 -1.2292
  214MOL    H5447340   6.455   6.216   7.510 -0.5533  2.0912  1.2100
  214MOL    H5547341   6.065   6.350   7.409  0.8329 -0.5913 -1.3291
  214MOL    H5647342   5.970   6.136   7.450  0.0756  0.2147 -1.7192
  214MOL    C5747343   5.923   5.747   7.246  0.1239  0.0805 -0.1730
  214MOL    C5847344   5.954   5.808   7.368  0.0925 -0.5420 -0.3391
  214MOL    C5947345   6.086   5.847   7.390  0.5612  0.0841  0.8576
  214MOL    C6047346   6.186   5.825   7.297  0.1242  0.7828 -0.0898
  214MOL    C6147347   6.155   5.771   7.173 -0.6747  0.2333  0.4043
  214MOL    C6247348   6.020   5.729   7.146 -0.5416 -0.4959 -0.1730
  214MOL    O6347349   5.990   5.675   7.023 -0.6900 -0.0723 -0.2761
  214MOL    H6447350   5.824   5.704   7.238 -0.2407  0.8693  0.0521
  214MOL    H6547351   5.886   5.829   7.449  1.0569 -0.5585  0.4669
  214MOL    H6647352   6.285   5.858   7.324 -0.1072  0.6981  0.8875
  214MOL    H6747353   6.232   5.752   7.100  1.5233  2.5110  2.0232
  214MOL    C6847354   6.061   5.313   6.970 -0.3458  0.0355 -0.3055
  214MOL    C6947355   6.092   5.448   7.003 -0.3569  0.1855 -0.5142
  214MOL    C7047356   5.978   5.537   7.020  0.1143  0.3252 -0.1678
  214MOL    C7147357   5.846   5.488   7.019  0.5408  0.6384 -0.3954
  214MOL    C7247358   5.818   5.346   7.000  0.6012 -0.4737  0.7431
  214MOL    C7347359   5.927   5.260   6.968 -0.1380  0.2305  0.3254
  214MOL    O7447360   5.909   5.129   6.950 -0.2397  0.4454  0.2535
  214MOL    H7547361   6.143   5.247   6.950  1.0527  1.6553 -0.0093
  214MOL    H7647362   6.195   5.479   7.012  0.2084 -2.2959  2.8394
  214MOL    H7747363   5.758   5.550   7.027  0.2180  0.0574  0.5956
  214MOL    H7847364   5.715   5.315   6.994  0.1572  1.3744 -2.2309
  214MOL    C7947365   5.988   4.804   7.091  0.7888 -0.3190  0.2358
  214MOL    C8047366   5.940   4.902   7.007 -0.0273 -0.2294 -0.6768
  214MOL    C8147367   5.955   5.037   7.035  0.3287  0.3162 -0.7940
  214MOL    C8247368   6.017   5.081   7.158 -0.3403  0.2212  0.0819
  214MOL    C8347369   6.071   4.978   7.238  0.0633  0.0921 -0.4160
  214MOL    C8447370   6.064   4.841   7.202  0.3899 -0.2134  0.2136
  214MOL    O8547371   6.111   4.752   7.296  0.0833 -0.0405  0.8094
  214MOL    H8647372   5.952   4.704   7.072 -0.2970  0.1029  0.0636
  214MOL    H8747373   5.885   4.867   6.921  1.7783 -2.2203 -1.0760
  214MOL    H8847374   6.019   5.184   7.190 -0.1667  0.6020 -1.1147
  214MOL    H8947375   6.122   5.010   7.327  0.7592  0.2540 -0.8765
  214MOL    C9047376   6.228   4.443   7.135 -0.1344  0.3876 -0.1867
  214MOL    C9147377   6.228   4.573   7.182  0.5651 -0.0525 -0.5337
  214MOL    C9247378   6.124   4.620   7.268  0.3614 -0.1729  0.3351
  214MOL    C9347379   6.012   4.533   7.302 -0.1621  0.2346  0.0609
  214MOL    C9447380   6.020   4.398   7.250 -0.3786  0.6375 -0.1051
  214MOL    C9547381   6.129   4.353   7.172 -0.1735  0.7599  0.3896
  214MOL    O9647382   6.138   4.220   7.126  0.1868  0.2182  0.1922
  214MOL    H9747383   6.307   4.417   7.066 -1.1569 -1.1247 -0.7911
  214MOL    H9847384   6.298   4.647   7.146 -2.9363  3.3785 -0.6742
  214MOL    H9947385   5.940   4.575   7.370 -0.4582  1.0341 -0.7401
  214MOL   H10047386   5.949   4.321   7.275  0.8685 -0.7241 -0.6777
  214MOL   C10147387   5.964   3.915   7.247  0.3857 -0.1060 -0.5104
  214MOL   C10247388   6.015   4.010   7.158  0.6788 -0.5095  0.3442
  214MOL   C10347389   6.094   4.115   7.202  0.3279 -0.0301 -0.5551
  214MOL   C10447390   6.143   4.112   7.333  0.7414 -0.2867 -0.6118
  214MOL   C10547391   6.113   4.007   7.418  0.6730 -0.5251 -0.1240
  214MOL   C10647392   6.015   3.913   7.381 -0.1834 -0.4087 -0.0417
  214MOL   O10747393   5.971   3.817   7.474 -0.1817 -0.3502 -0.7816
  214MOL   H10847394   5.888   3.844   7.218 -1.1517  1.1079  0.4140
  214MOL   H10947395   5.979   4.022   7.057 -0.0259 -0.1372  0.6353
  214MOL   H11047396   6.219   4.185   7.359  0.1302  0.3869 -0.6818
  214MOL   H11147397   6.162   3.999   7.514 -1.0950 -1.5695  0.7152
  214MOL   C11247398   5.664   3.623   7.411 -0.1818 -0.1213 -0.0032
  214MOL   C11347399   5.750   3.723   7.452 -0.6643 -0.0559  0.5039
  214MOL   C11447400   5.892   3.719   7.435  0.1530  1.0870 -0.3091
  214MOL   C11547401   5.948   3.608   7.370 -0.4965 -0.3824 -0.6932
  214MOL   C11647402   5.867   3.504   7.333  0.1371 -0.1955  1.2833
  214MOL   C11747403   5.727   3.507   7.357  0.4799 -0.0975 -0.2383
  214MOL   O11847404   5.658   3.392   7.318  0.4050 -0.4031  0.0445
  214MOL   H11947405   5.558   3.629   7.432  0.1153  0.2474  1.4641
  214MOL   H12047406   5.714   3.814   7.499  0.4297 -0.3777  2.0282
  214MOL   H12147407   6.054   3.610   7.346  0.0556  2.7736  1.7421
  214MOL   H12247408   5.921   3.423   7.285 -2.0298 -0.5240 -0.6659
  214MOL   C12347409   5.402   3.250   7.538 -0.1174 -0.4502  0.6793
  214MOL   C12447410   5.458   3.319   7.429 -0.2623  0.2858 -0.5776
  214MOL   C12547411   5.595   3.322   7.415 -0.3979  0.2118 -0.6158
  214MOL   C12647412   5.676   3.253   7.511 -0.5483  0.0667  0.3838
  214MOL   C12747413   5.617   3.172   7.610  0.7826 -0.1180 -0.3395
  214MOL   C12847414   5.480   3.176   7.627  0.5601  0.4058 -0.9641
  214MOL   O12947415   5.420   3.111   7.739 -1.0106 -0.1175 -0.1536
  214MOL   H13047416   5.294   3.249   7.551 -0.0511 -1.3046  1.2262
  214MOL   H13147417   5.403   3.384   7.363 -0.8191  0.3767 -0.0229
  214MOL   H13247418   5.784   3.253   7.506 -0.5822 -2.2563 -0.8236
  214MOL   H13347419   5.677   3.116   7.680 -0.3700 -0.8189  0.0911
  214MOL   C13447420   5.382   3.380   7.994 -0.0737 -0.6408  0.2952
  214MOL   C13547421   5.365   3.314   7.866 -0.1474 -0.2379 -0.1836
  214MOL   C13647422   5.431   3.184   7.849 -0.5206 -0.3612 -0.3023
  214MOL   C13747423   5.521   3.138   7.949  0.2127 -0.0707  0.0343
  214MOL   C13847424   5.534   3.212   8.073 -0.9082  0.5012  0.1502
  214MOL   C13947425   5.466   3.334   8.093 -0.6387 -0.3847  0.5036
  214MOL   O14047426   5.457   3.398   8.211  0.2901  0.0884 -0.0086
  214MOL   H14147427   5.335   3.477   8.002 -0.0556 -0.8003  2.5424
  214MOL   H14247428   5.293   3.358   7.799 -0.3140  0.8008  0.6508
  214MOL   H14347429   5.585   3.054   7.926 -0.0033  0.6381 -3.3826
  214MOL   H14447430   5.601   3.174   8.149 -0.0118 -1.1351 -1.3878
  214MOL   C14547431   5.162   3.394   0.181  0.3289 -0.4302  0.2334
  214MOL   C14647432   5.254   3.431   0.086 -1.0358 -0.3154  0.2001
  214MOL   C14747433   5.366   3.351   0.048  0.0398  0.1710 -0.0313
  214MOL   C14847434   5.378   3.231   0.121 -0.1695 -0.0654  0.4309
  214MOL   C14947435   5.297   3.202   0.235  0.0957  0.1072  0.2538
  214MOL   C15047436   5.190   3.287   0.265  0.0056  0.1322  0.1303
  214MOL   O15147437   5.104   3.253   0.359  0.1965 -0.3946  0.5114
  214MOL   H15247438   5.074   3.453   0.205  0.2668  0.1905 -1.4263
  214MOL   H15347439   5.246   3.522   0.029 -1.3166 -1.1703 -1.1621
  214MOL   H15447440   5.461   3.164   0.110  1.6067  1.7554  2.2807
  214MOL   H15547441   5.328   3.112   0.286  0.9270  0.6796  0.7747
  214MOL   C15647442   4.911   2.954   0.279  0.3144  0.3154  0.2546
  214MOL   C15747443   4.990   3.071   0.259 -0.8845  0.1594  0.2870
  214MOL   C15847444   5.053   3.130   0.366 -0.2772  0.4626  0.2080
  214MOL   C15947445   5.059   3.061   0.485  0.1142  0.3655 -0.5655
  214MOL   C16047446   4.984   2.948   0.509  0.4573  0.2734  0.3838
  214MOL   C16147447   4.894   2.899   0.410  0.2346  0.4180 -0.5458
  214MOL   O16247448   4.810   2.782   0.430  0.6234  0.1670  0.1751
  214MOL   H16347449   4.849   2.921   0.197 -0.9563  2.0505  0.4966
  214MOL   H16447450   4.988   3.132   0.170 -1.3674  1.1576  0.9788
  214MOL   H16547451   5.123   3.097   0.564  2.1467 -2.5843 -0.7678
  214MOL   H16647452   4.976   2.893   0.602 -0.1289 -2.6055 -1.3085
  214MOL   C16747453   4.455   2.784   0.330  0.1100  0.9423 -0.1550
  214MOL   C16847454   4.597   2.761   0.329 -0.7212  0.1477  0.0406
  214MOL   C16947455   4.674   2.789   0.444 -0.1824 -0.2706  0.5850
  214MOL   C17047456   4.610   2.823   0.569  0.4845  0.1583  0.0953
  214MOL   C17147457   4.469   2.845   0.574  0.5055 -0.9084  0.5501
  214MOL   C17247458   4.394   2.832   0.453  0.3959 -0.0320  0.8304
  214MOL   O17347459   4.262   2.878   0.447  0.3168  0.1880  1.0878
  214MOL   H17447460   4.406   2.779   0.234  1.3313 -0.2418 -0.7173
  214MOL   H17547461   4.630   2.730   0.231  0.4116  2.7166 -0.4115
  214MOL   H17647462   4.660   2.834   0.664 -0.6214 -1.8409  0.9255
  214MOL   H17747463   4.419   2.873   0.666 -0.7395 -1.8292  0.1750
  214MOL   C17847464   4.096   3.116   0.215 -0.1263 -0.3095 -0.3715
  214MOL   C17947465   4.112   3.002   0.302  0.0270 -0.2323  0.5545
  214MOL   C18047466   4.227   2.993   0.386  0.4751  0.5803 -0.1263
  214MOL   C18147467   4.314   3.100   0.387 -0.2391 -1.1265 -0.4447
  214MOL   C18247468   4.303   3.215   0.297  0.2106 -0.4824 -0.0648
  214MOL   C18347469   4.187   3.227   0.215  0.1632  0.1685 -0.1392
  214MOL   O18447470   4.163   3.337   0.134  0.2549  0.1626  0.1622
  214MOL   H18547471   4.008   3.120   0.152 -0.1779 -1.3477 -0.3743
  214MOL   H18647472   4.047   2.916   0.292  0.8731 -0.7128 -1.2000
  214MOL   H18747473   4.400   3.104   0.453 -0.9593 -2.1646  0.5843
  214MOL   H18847474   4.374   3.294   0.315 -3.4749  3.0138 -0.2135
  214MOL   C18947475   4.222   3.454   8.041  0.0596 -0.0027  0.5017
  214MOL   C19047476   4.173   3.449   8.170 -0.1289 -0.2529  0.0277
  214MOL   C19147477   4.217   3.346   0.007  0.0436  0.1815  0.6691
  214MOL   C19247478   4.311   3.252   8.219  0.5706  0.6175  0.9251
  214MOL   C19347479   4.365   3.268   8.087  0.6370 -0.6955  1.0634
  214MOL   C19447480   4.319   3.365   7.995 -0.4175  0.0889 -0.0483
  214MOL   O19547481   4.375   3.372   7.874  0.1142  0.3883 -0.0891
  214MOL   H19647482   4.183   3.533   7.978 -0.9892 -1.9830 -1.4147
  214MOL   H19747483   4.091   3.518   8.189  0.6334  1.1525 -1.6071
  214MOL   H19847484   4.361   3.177   0.026 -1.0487  0.6975  2.3826
  214MOL   H19947485   4.446   3.210   8.047 -0.1413  0.4584 -2.2962
  214MOL   C20047486   4.435   3.681   7.680 -0.2254 -0.9435 -0.1255
  214MOL   C20147487   4.387   3.554   7.720 -0.0337  0.2630  0.4069
  214MOL   C20247488   4.431   3.486   7.838 -0.6867 -0.4186 -0.2734
  214MOL   C20347489   4.531   3.545   7.918  0.1241  1.1620  0.1222
  214MOL   C20447490   4.573   3.678   7.886 -0.5814  1.0095 -0.1883
  214MOL   C20547491   4.538   3.743   7.763  0.1137  0.1282 -0.5238
  214MOL   O20647492   4.595   3.865   7.725  0.6873 -0.3867  0.1745
  214MOL   H20747493   4.398   3.735   7.594  0.5584 -0.8419 -0.4026
  214MOL   H20847494   4.303   3.519   7.662  0.9952 -0.3849 -0.7109
  214MOL   H20947495   4.561   3.494   8.008 -1.3461  1.5795  0.8653
  214MOL   H21047496   4.650   3.720   7.949 -0.0172  0.9672 -0.8430
  214MOL   C21147497   4.756   3.784   7.404  0.5639 -0.4847 -0.1760
  214MOL   C21247498   4.728   3.786   7.543  0.0733  0.2257  0.1984
  214MOL   C21347499   4.630   3.869   7.596  1.1700 -0.0451  0.9104
  214MOL   C21447500   4.568   3.964   7.510  0.2990  0.7387 -0.3730
  214MOL   C21547501   4.604   3.973   7.376 -0.2601 -0.7740 -0.4421
  214MOL   C21647502   4.702   3.893   7.322 -0.0280 -0.4545 -0.0735
  214MOL   O21747503   4.732   3.906   7.192 -0.0766 -0.0179 -0.3063
  214MOL   H21847504   4.817   3.708   7.357  1.5112  1.0603 -1.4985
  214MOL   H21947505   4.774   3.706   7.598  1.0755  0.6443 -0.0306
  214MOL   H22047506   4.503   4.032   7.563  0.8192  1.7704 -1.0271
  214MOL   H22147507   4.563   4.049   7.312 -0.9868 -0.5299  0.3131
  214MOL   H22247508   4.826   3.905   7.178  0.2452 -1.4089  1.6890
  215MOL     C147509   1.477   2.454   7.193 -0.8861 -0.5008  0.1735
  215MOL     C247510   1.407   2.429   7.317  0.4327 -0.5627 -0.8699
  215MOL     C347511   1.291   2.355   7.317 -0.1601  0.2010  0.4947
  215MOL     C447512   1.233   2.315   7.197 -0.0076  0.1921  0.1677
  215MOL     C547513   1.300   2.341   7.076 -0.6247  0.3823 -0.4071
  215MOL     C647514   1.423   2.411   7.072 -0.0914 -1.1772  0.5814
  215MOL     O747515   1.490   2.448   6.956 -0.2493  0.2450  0.1324
  215MOL     H847516   1.570   2.509   7.196 -0.8081 -0.4758 -2.0431
  215MOL     H947517   1.453   2.448   7.412 -0.4097  1.2671 -0.8190
  215MOL    H1047518   1.131   2.281   7.207  0.1520 -0.1988  0.4865
  215MOL    H1147519   1.256   2.320   6.980 -1.8724 -1.8214  0.5996
  215MOL    H1247520   1.229   2.335   7.403 -2.9570  1.8967 -1.0529
  215MOL    C1347521   1.583   2.188   6.715 -0.6634 -0.0921 -0.5330
  215MOL    C1447522   1.584   2.264   6.829 -0.3919 -0.0896  0.3670
  215MOL    C1547523   1.490   2.365   6.847 -0.4702 -0.0572  0.2767
  215MOL    C1647524   1.399   2.394   6.741  0.7428  0.0707  0.7052
  215MOL    C1747525   1.393   2.308   6.630 -0.0773 -0.5438 -0.1800
  215MOL    C1847526   1.484   2.203   6.617  0.4250  0.1511  0.4827
  215MOL    O1947527   1.477   2.120   6.504 -0.0056 -0.4529  0.0349
  215MOL    H2047528   1.656   2.108   6.709 -1.8017 -1.1457 -0.4249
  215MOL    H2147529   1.658   2.236   6.903  0.2482 -0.7951 -0.5108
  215MOL    H2247530   1.337   2.482   6.747 -0.2667 -0.5419 -0.5433
  215MOL    H2347531   1.312   2.319   6.559  0.3580 -0.0848 -0.6078
  215MOL    C2447532   1.751   1.878   6.442 -0.2259 -0.1189 -0.4194
  215MOL    C2547533   1.681   2.001   6.447  0.4588  0.8654 -0.3495
  215MOL    C2647534   1.550   2.004   6.505  0.0748 -0.8207 -0.2039
  215MOL    C2747535   1.489   1.882   6.545  0.0030 -1.0670  0.4938
  215MOL    C2847536   1.556   1.765   6.526  0.2288  0.5211  0.1636
  215MOL    C2947537   1.684   1.756   6.467 -0.2146 -0.4030  0.1683
  215MOL    O3047538   1.740   1.637   6.444  0.0474  0.1660 -0.3974
  215MOL    H3147539   1.853   1.871   6.408  0.5085  1.7041  1.3456
  215MOL    H3247540   1.740   2.088   6.421  0.1727  1.2487  0.2825
  215MOL    H3347541   1.384   1.878   6.571 -0.0082 -1.0586  0.4490
  215MOL    H3447542   1.501   1.673   6.539  1.0410 -0.4828 -3.2282
  215MOL    C3547543   1.533   1.327   6.448 -0.5824 -0.6194 -0.0136
  215MOL    C3647544   1.615   1.434   6.495  0.3092 -0.0491 -0.0013
  215MOL    C3747545   1.664   1.533   6.403  0.1204  0.0425 -0.2506
  215MOL    C3847546   1.639   1.517   6.265  0.1640  0.0423 -0.1969
  215MOL    C3947547   1.568   1.402   6.217  0.2408 -0.2010 -0.4208
  215MOL    C4047548   1.509   1.315   6.313 -0.2406  0.0599 -0.4355
  215MOL    O4147549   1.421   1.214   6.268  0.3844 -0.0205 -0.1583
  215MOL    H4247550   1.482   1.266   6.521  0.6460  0.9512  2.2193
  215MOL    H4347551   1.649   1.438   6.597 -0.6255 -0.5663  0.3272
  215MOL    H4447552   1.677   1.585   6.190 -0.9669 -1.3796 -2.0935
  215MOL    H4547553   1.544   1.395   6.113 -3.1493  1.5676  0.1750
  215MOL    C4647554   1.334   0.894   6.423  0.1502 -0.8687  0.2783
  215MOL    C4747555   1.318   1.027   6.376 -0.3848  0.5303 -0.6112
  215MOL    C4847556   1.435   1.088   6.325  0.3799  0.3590 -0.1065
  215MOL    C4947557   1.560   1.014   6.312 -0.7124  0.3257 -0.5282
  215MOL    C5047558   1.566   0.886   6.353  0.6306 -0.1313 -0.2415
  215MOL    C5147559   1.453   0.828   6.408  0.0916  0.7799  0.5158
  215MOL    O5247560   1.474   0.700   6.452 -0.4005  0.0473 -0.4777
  215MOL    H5347561   1.253   0.846   6.475  0.2961 -0.5195  0.8391
  215MOL    H5447562   1.227   1.084   6.384 -0.9582 -0.6440  1.3722
  215MOL    H5547563   1.647   1.055   6.265 -0.1156 -1.0435 -0.6299
  215MOL    H5647564   1.653   0.825   6.332  0.6305  0.5428 -2.3666
  215MOL    C5747565   1.283   0.623   6.763  0.9258 -0.5051  0.0483
  215MOL    C5847566   1.309   0.653   6.629  0.1466  0.0722  0.3633
  215MOL    C5947567   1.439   0.685   6.585 -0.1537 -0.7310  0.2374
  215MOL    C6047568   1.540   0.718   6.679 -0.2555 -0.0866  0.4763
  215MOL    C6147569   1.503   0.705   6.814  0.4748 -0.1542 -0.3486
  215MOL    C6247570   1.375   0.661   6.862  0.6456 -0.0793  0.4736
  215MOL    O6347571   1.334   0.667   6.993 -0.4553 -0.3258  0.8300
  215MOL    H6447572   1.188   0.577   6.783 -0.4453  2.5782  0.9539
  215MOL    H6547573   1.238   0.630   6.551  0.6941 -0.2039 -0.0539
  215MOL    H6647574   1.631   0.764   6.645 -0.8268 -1.6087 -3.3792
  215MOL    H6747575   1.568   0.744   6.890  0.0660  0.4564 -0.3124
  215MOL    C6847576   1.260   0.344   7.145  0.0919 -0.3033 -0.1553
  215MOL    C6947577   1.240   0.472   7.082 -0.1431 -0.1478 -0.9742
  215MOL    C7047578   1.352   0.555   7.064 -0.1089 -0.4899  0.7209
  215MOL    C7147579   1.474   0.522   7.125  0.4378  0.5077  0.4305
  215MOL    C7247580   1.493   0.406   7.202  0.1433 -0.2166  0.7144
  215MOL    C7347581   1.386   0.311   7.201  0.0731 -0.4104  0.3113
  215MOL    O7447582   1.397   0.184   7.248  0.3945 -0.0704 -0.2801
  215MOL    H7547583   1.181   0.270   7.142 -0.6589  0.5220 -1.4288
  215MOL    H7647584   1.149   0.496   7.030  1.0048 -0.2281 -3.0639
  215MOL    H7747585   1.564   0.579   7.106  0.1024  0.6296 -0.7996
  215MOL    H7847586   1.586   0.383   7.251  0.5751  0.7524  0.3610
  215MOL    C7947587   1.691   0.068   7.433  0.5807 -0.1803 -0.2647
  215MOL    C8047588   1.599   0.091   7.328  0.0167  0.9430  0.0980
  215MOL    C8147589   1.480   0.158   7.353 -0.0798  0.1658 -0.2545
  215MOL    C8247590   1.456   0.212   7.481  0.7573 -0.4992 -0.0089
  215MOL    C8347591   1.548   0.192   7.588 -0.6735  0.3422  0.4891
  215MOL    C8447592   1.668   0.114   7.562 -0.5440 -0.0339 -0.1093
  215MOL    O8547593   1.762   0.072   7.653  0.0714 -0.3063 -0.0328
  215MOL    H8647594   1.789   0.024   7.426  1.7401  1.9299  2.0907
  215MOL    H8747595   1.617   0.059   7.226  1.1250 -0.4300  0.7222
  215MOL    H8847596   1.364   0.262   7.509  1.9742  2.4098 -0.9961
  215MOL    H8947597   1.521   0.218   7.689  0.9262  0.7512  0.8122
  215MOL    C9047598   1.639   0.029   7.997 -0.0993  0.7242 -0.7395
  215MOL    C9147599   1.687   0.087   7.883 -0.0808  0.3809 -0.4757
  215MOL    C9247600   1.726   0.011   7.772  0.4865  0.0826 -0.0523
  215MOL    C9347601   1.708   8.128   7.767  0.2673  0.4164 -0.9073
  215MOL    C9447602   1.669   8.062   7.889  0.3027 -0.0975 -0.3001
  215MOL    C9547603   1.630   8.140   8.003 -0.7778 -0.2037  0.1633
  215MOL    O9647604   1.591   8.069   8.114  0.2561 -0.2974 -0.0719
  215MOL    H9747605   1.609   0.098   8.075  1.3157 -0.0571  0.5219
  215MOL    H9847606   1.698   0.194   7.885  1.3358  0.2374  1.3975
  215MOL    H9947607   1.728   8.078   7.673 -1.6924  0.9503 -1.6282
  215MOL   H10047608   1.669   7.954   7.895 -0.4861 -0.2558 -2.7019
  215MOL   C10147609   1.710   8.252   0.151 -0.2699 -1.1128 -0.1258
  215MOL   C10247610   1.708   8.177   0.033  0.0714  0.3454  0.3824
  215MOL   C10347611   1.587   8.134   8.232 -0.2656  0.4868  0.8147
  215MOL   C10447612   1.467   8.157   0.039  0.2260 -0.0001  0.5095
  215MOL   C10547613   1.463   8.225   0.160  0.0293  0.5049  0.3463
  215MOL   C10647614   1.585   0.017   0.216 -0.2073  0.0091 -0.5692
  215MOL   O10747615   1.592   0.087   0.336 -0.0937 -0.1017  0.7147
  215MOL   H10847616   1.801   0.034   0.196 -1.0918 -0.8538  1.3688
  215MOL   H10947617   1.801   8.174   8.232 -1.4234 -1.3982 -2.1491
  215MOL   H11047618   1.377   8.121   8.247 -1.3694  4.1927  0.1338
  215MOL   H11147619   1.375   8.227   0.223 -1.0587 -1.3416 -1.0759
  215MOL   C11247620   1.432   8.153   0.598  0.9339  0.6928 -0.1820
  215MOL   C11347621   1.519   8.187   0.488 -0.0318 -0.2613  0.1079
  215MOL   C11447622   1.512   0.064   0.436 -0.1480  0.3185 -0.0454
  215MOL   C11547623   1.427   0.158   0.488 -0.1074 -0.3002 -0.0085
  215MOL   C11647624   1.328   0.120   0.577  0.1542  0.6250  0.7269
  215MOL   C11747625   1.324   8.242   0.628 -0.5193 -0.2629  0.1269
  215MOL   O11847626   1.215   8.195   0.695 -0.0022 -0.1694 -0.4292
  215MOL   H11947627   1.427   8.049   0.628 -1.3933 -0.0023 -2.7259
  215MOL   H12047628   1.588   8.108   0.461 -0.4546 -1.2674  1.8317
  215MOL   H12147629   1.444   0.259   0.455  0.0774  0.6137  2.7802
  215MOL   H12247630   1.254   0.187   0.618 -0.5298 -0.0385  0.5924
  215MOL   C12347631   1.235   0.009   1.071 -0.5725 -0.3641  0.1902
  215MOL   C12447632   1.267   8.217   0.944 -0.4360 -0.0006  1.3280
  215MOL   C12547633   1.196   8.251   0.824 -0.3572 -0.1512  0.6801
  215MOL   C12647634   1.087   0.084   0.839 -0.2834 -0.2034  0.4982
  215MOL   C12747635   1.053   0.136   0.968 -0.3151 -0.4023  0.2984
  215MOL   C12847636   1.129   0.099   1.085  0.6818  0.7676  0.2361
  215MOL   O12947637   1.094   0.148   1.210  0.1874  0.1301  0.1143
  215MOL   H13047638   1.282   8.228   1.161 -1.3864  0.5059  0.9680
  215MOL   H13147639   1.350   8.149   0.945 -0.7016 -0.3373  0.6828
  215MOL   H13247640   1.031   0.108   0.750  1.6575  1.6865 -0.2575
  215MOL   H13347641   0.981   0.216   0.976 -0.9257 -0.8926 -0.1830
  215MOL   C13447642   0.887   0.454   1.263  0.2988 -0.2562  0.0639
  215MOL   C13547643   0.928   0.320   1.270 -0.1961 -0.3917  0.3614
  215MOL   C13647644   1.053   0.284   1.216 -0.4686  0.0794  0.2620
  215MOL   C13747645   1.132   0.385   1.153 -0.2450  0.2466 -0.2345
  215MOL   C13847646   1.095   0.515   1.143  0.3499  0.6655  0.7735
  215MOL   C13947647   0.968   0.553   1.198  0.2101  0.0668 -0.1202
  215MOL   O14047648   0.934   0.683   1.179 -0.1030  0.0983 -0.3535
  215MOL   H14147649   0.790   0.484   1.299  0.0052 -0.8594 -0.2248
  215MOL   H14247650   0.869   0.247   1.324 -1.4226 -1.6532 -2.5802
  215MOL   H14347651   1.220   0.365   1.093  0.0730  1.5965 -0.2330
  215MOL   H14447652   1.140   0.575   1.065  1.6971  1.0602  1.8443
  215MOL   C14547653   1.082   0.961   1.373  0.0343  0.0107 -1.0016
  215MOL   C14647654   1.069   0.861   1.275 -0.3587 -0.2146  0.0907
  215MOL   C14747655   0.957   0.773   1.284 -0.2478  0.0472 -0.3848
  215MOL   C14847656   0.855   0.786   1.377  0.4692 -0.2163 -0.1448
  215MOL   C14947657   0.862   0.905   1.458 -0.4987  0.2126  0.3350
  215MOL   C15047658   0.978   0.984   1.461  0.9019  0.5506  0.6920
  215MOL   O15147659   0.967   1.080   1.555  0.2952 -0.1868  0.7087
  215MOL   H15247660   1.175   1.015   1.383 -0.2495  0.1985  0.7133
  215MOL   H15347661   1.151   0.855   1.205  1.4247  1.3044  1.9815
  215MOL   H15447662   0.768   0.722   1.364  0.0035 -0.1157  2.2842
  215MOL   H15547663   0.780   0.914   1.528  0.9620  2.1714  1.8437
  215MOL   C15647664   1.257   1.250   1.686 -0.5215  0.3227  0.5750
  215MOL   C15747665   1.153   1.155   1.670  0.2871 -0.4139 -0.4474
  215MOL   C15847666   1.060   1.171   1.565  0.0058 -0.1183 -0.3661
  215MOL   C15947667   1.065   1.277   1.473  0.5346  0.6878 -0.5384
  215MOL   C16047668   1.168   1.368   1.489 -0.3754 -0.1366 -0.0733
  215MOL   C16147669   1.264   1.357   1.587 -0.1680  0.0560 -0.2700
  215MOL   O16247670   1.366   1.456   1.574  0.6820  0.3934 -0.2291
  215MOL   H16347671   1.335   1.230   1.758  1.0013  1.7875 -0.6444
  215MOL   H16447672   1.140   1.073   1.739  1.0383  0.5211  0.8168
  215MOL   H16547673   0.980   1.291   1.408  0.9491 -1.2136 -1.5528
  215MOL   H16647674   1.174   1.452   1.422 -0.6683 -1.1522 -1.3981
  215MOL   C16747675   1.716   1.343   1.595 -0.3756  0.2338  0.1667
  215MOL   C16847676   1.588   1.376   1.548 -0.3752 -0.0841  0.3212
  215MOL   C16947677   1.487   1.426   1.632 -0.0710  0.4136  0.0024
  215MOL   C17047678   1.522   1.454   1.770 -0.1486 -0.1355  0.7059
  215MOL   C17147679   1.655   1.438   1.809 -0.2026  0.1177 -0.6028
  215MOL   C17247680   1.746   1.377   1.726 -0.5485 -0.0622 -0.1222
  215MOL   O17347681   1.868   1.357   1.782  0.4386 -0.1132 -0.1939
  215MOL   H17447682   1.794   1.317   1.525  0.7963 -2.3195  2.3436
  215MOL   H17547683   1.570   1.358   1.443 -0.2393 -2.8512  0.7324
  215MOL   H17647684   1.448   1.500   1.833  0.4133  1.4119  0.2732
  215MOL   H17747685   1.698   1.460   1.906  3.4610 -2.1423 -1.5716
  215MOL   C17847686   2.054   1.680   1.714  0.0178 -0.2129 -0.2790
  215MOL   C17947687   1.955   1.580   1.714 -1.3896 -1.2667  0.1745
  215MOL   C18047688   1.977   1.452   1.778  0.2011  0.0603 -0.4935
  215MOL   C18147689   2.101   1.427   1.833  0.6091 -0.4609  0.1925
  215MOL   C18247690   2.203   1.528   1.828 -0.2660  0.2559 -0.0574
  215MOL   C18347691   2.180   1.655   1.769  0.0003  0.1029  0.2677
  215MOL   O18447692   2.280   1.754   1.764  0.2403 -0.3129  0.5877
  215MOL   H18547693   2.047   1.773   1.659  1.6094 -0.2343 -0.5163
  215MOL   H18647694   1.857   1.607   1.680 -0.3400  3.4230  0.5507
  215MOL   H18747695   2.111   1.333   1.885 -3.5808 -0.4330  1.2671
  215MOL   H18847696   2.300   1.509   1.871  0.9608  1.6696 -2.1422
  215MOL   C18947697   2.507   1.915   1.528 -0.6084 -0.4967 -0.4349
  215MOL   C19047698   2.439   1.879   1.645  0.5074  1.0075  0.2006
  215MOL   C19147699   2.337   1.779   1.641 -0.1051  0.3594 -0.5427
  215MOL   C19247700   2.300   1.717   1.518  0.2227 -0.1498  0.4597
  215MOL   C19347701   2.365   1.760   1.403  0.2317 -0.3877  0.0115
  215MOL   C19447702   2.473   1.849   1.410 -0.0116 -0.9058 -0.4313
  215MOL   O19547703   2.542   1.881   1.296 -0.3123  0.5196  0.1630
  215MOL   H19647704   2.588   1.986   1.532 -0.0554 -1.1923  1.2780
  215MOL   H19747705   2.447   1.941   1.733  2.6459  0.8056  0.1750
  215MOL   H19847706   2.231   1.634   1.516  0.2516 -0.1860  0.8964
  215MOL   H19947707   2.328   1.730   1.305 -0.9868 -0.1838  0.3943
  215MOL   C20047708   2.680   1.549   1.197  0.1451 -0.7324 -0.1942
  215MOL   C20147709   2.636   1.656   1.278 -0.3441  0.1735  0.4993
  215MOL   C20247710   2.580   1.772   1.220 -1.2781 -0.2350 -0.2895
  215MOL   C20347711   2.564   1.779   1.075 -0.1358 -0.4558 -0.9410
  215MOL   C20447712   2.602   1.669   0.998 -0.5414  0.1996  0.2370
  215MOL   C20547713   2.659   1.549   1.057 -0.1961 -0.4302  0.7477
  215MOL   O20647714   2.673   1.444   0.979  0.2816 -0.1754 -0.8602
  215MOL   H20747715   2.732   1.468   1.246  2.1330  1.4628  1.4179
  215MOL   H20847716   2.638   1.645   1.386 -0.5192  1.5068  0.6482
  215MOL   H20947717   2.516   1.862   1.026 -1.3995 -0.0447  0.9428
  215MOL   H21047718   2.595   1.660   0.891 -0.4624 -0.8936  0.3111
  215MOL   C21147719   2.377   1.232   0.923 -0.5477  1.0575 -0.2669
  215MOL   C21247720   2.460   1.348   0.925 -0.5767 -0.2151  0.1166
  215MOL   C21347721   2.587   1.338   0.990  0.2332  0.4912  0.4259
  215MOL   C21447722   2.630   1.217   1.050  0.8397  0.4038  0.3783
  215MOL   C21547723   2.549   1.105   1.042 -0.0062 -0.3262  0.1123
  215MOL   C21647724   2.422   1.110   0.982  0.7887 -0.4370 -0.0936
  215MOL   O21747725   2.354   0.998   0.983 -0.0795  0.1520  0.2614
  215MOL   H21847726   2.282   1.227   0.872 -0.6893  0.3036  0.0624
  215MOL   H21947727   2.432   1.442   0.879 -0.6626 -0.0134  0.5866
  215MOL   H22047728   2.731   1.207   1.088  1.5612 -0.3604 -1.6560
  215MOL   H22147729   2.580   1.008   1.076 -0.6621 -0.9521 -1.0215
  215MOL   H22247730   2.260   1.008   0.975 -0.1100  0.3396  0.8293
  216MOL     C147731   3.846   4.764   0.460 -0.3956  0.6783 -0.3721
  216MOL     C247732   3.760   4.864   0.411  0.2571  0.8328  0.5853
  216MOL     C347733   3.748   4.985   0.485  0.9487  0.1401 -0.6161
  216MOL     C447734   3.850   5.008   0.584  0.4091  1.1742  0.4704
  216MOL     C547735   3.930   4.905   0.629  0.2038  0.3747  0.3169
  216MOL     C647736   3.932   4.783   0.568 -0.3308 -0.2066  0.3848
  216MOL     O747737   4.038   4.696   0.588  0.8566  0.5262 -0.3884
  216MOL     H847738   3.863   4.671   0.409 -1.5174  0.2632  0.0020
  216MOL     H947739   3.685   4.833   0.340  0.4626 -1.5730  1.3789
  216MOL    H1047740   3.855   5.105   0.630 -0.7493  1.8419 -0.7719
  216MOL    H1147741   3.996   4.927   0.711 -0.0772  1.2446  0.3064
  216MOL    H1247742   3.686   5.064   0.446 -0.5077 -0.8786 -0.3833
  216MOL    C1347743   4.399   4.698   0.607  0.3400  0.7119 -0.6803
  216MOL    C1447744   4.263   4.667   0.631 -0.4334 -0.5456  0.3039
  216MOL    C1547745   4.165   4.735   0.557 -0.5911 -0.5115  0.2488
  216MOL    C1647746   4.201   4.829   0.460 -0.0535  0.2565  0.0491
  216MOL    C1747747   4.335   4.869   0.446  0.1375  0.8763  0.2431
  216MOL    C1847748   4.436   4.810   0.525  0.1136 -0.6107  0.0405
  216MOL    O1947749   4.567   4.846   0.517 -0.0748 -0.2656 -0.8187
  216MOL    H2047750   4.481   4.647   0.656  1.0315  1.0975 -1.4116
  216MOL    H2147751   4.234   4.588   0.698  0.8371 -0.7273  0.6505
  216MOL    H2247752   4.127   4.889   0.408 -0.3133  0.7517  0.9826
  216MOL    H2347753   4.362   4.952   0.382 -2.9760  0.6588 -1.4007
  216MOL    C2447754   4.610   5.202   0.618 -0.4495  0.0178 -0.2366
  216MOL    C2547755   4.578   5.085   0.541 -0.2106 -0.0489  0.4131
  216MOL    C2647756   4.608   4.957   0.590  0.0489 -0.4032  0.0507
  216MOL    C2747757   4.685   4.942   0.702 -0.1830 -0.0858 -0.0924
  216MOL    C2847758   4.725   5.058   0.772  0.9620 -0.0245 -0.5660
  216MOL    C2947759   4.688   5.186   0.731 -0.1623  0.1611 -0.6961
  216MOL    O3047760   4.728   5.294   0.800  0.4542  0.4835 -0.0500
  216MOL    H3147761   4.579   5.301   0.588 -3.3169  0.0042  2.4253
  216MOL    H3247762   4.526   5.106   0.449  2.1578  3.1131 -0.3187
  216MOL    H3347763   4.713   4.846   0.744 -0.1044  0.1292  0.3592
  216MOL    H3447764   4.790   5.051   0.858  2.6693 -3.2876 -2.0129
  216MOL    C3547765   4.779   5.357   1.156 -0.3027  0.1965 -0.2381
  216MOL    C3647766   4.810   5.333   1.020 -0.0591 -0.5365  0.5320
  216MOL    C3747767   4.709   5.292   0.937  0.2855 -0.0055  0.1701
  216MOL    C3847768   4.582   5.261   0.982 -0.0840  0.0693  0.5674
  216MOL    C3947769   4.556   5.262   1.118  0.1420  0.6708 -0.5766
  216MOL    C4047770   4.653   5.320   1.203  0.0426 -0.0073  0.2636
  216MOL    O4147771   4.627   5.341   1.336 -0.0828  0.2581  0.0632
  216MOL    H4247772   4.850   5.406   1.221 -0.6835  0.8430 -0.2979
  216MOL    H4347773   4.908   5.358   0.984  0.1048 -1.7283  0.1221
  216MOL    H4447774   4.501   5.238   0.914  0.4599 -0.8982  0.2468
  216MOL    H4547775   4.466   5.224   1.164 -0.0979  2.0777  0.1609
  216MOL    C4647776   4.438   5.646   1.409  0.5993 -0.3334  0.8744
  216MOL    C4747777   4.459   5.520   1.356  0.3024  0.4594 -0.0110
  216MOL    C4847778   4.592   5.466   1.370 -0.9761  1.0274  0.0290
  216MOL    C4947779   4.694   5.530   1.433 -0.5241 -0.3370 -0.0151
  216MOL    C5047780   4.673   5.658   1.487 -0.1862 -0.8734 -0.0618
  216MOL    C5147781   4.548   5.718   1.463  0.5697 -0.1358 -0.6498
  216MOL    O5247782   4.529   5.843   1.518 -0.3759  0.2868 -0.2217
  216MOL    H5347783   4.343   5.697   1.407  0.7762  0.0335  1.7134
  216MOL    H5447784   4.385   5.457   1.309 -2.4701  0.6366  3.7913
  216MOL    H5547785   4.792   5.485   1.441 -0.6398 -0.6082 -0.1080
  216MOL    H5647786   4.752   5.711   1.537  0.7171 -1.2122 -1.1244
  216MOL    C5747787   4.561   6.114   1.270 -0.2898  0.6406  0.0498
  216MOL    C5847788   4.523   5.995   1.332  0.6578  0.0278  0.1241
  216MOL    C5947789   4.584   5.952   1.448 -0.6029 -0.1131  0.1821
  216MOL    C6047790   4.701   6.025   1.493  0.0271 -0.1999  0.9517
  216MOL    C6147791   4.731   6.148   1.432  0.6755 -0.3483 -0.2159
  216MOL    C6247792   4.668   6.190   1.315  0.0709 -0.9883  0.4847
  216MOL    O6347793   4.719   6.299   1.249 -0.4439  0.0125 -0.4795
  216MOL    H6447794   4.513   6.139   1.176 -1.0409 -2.1597 -0.3749
  216MOL    H6547795   4.448   5.931   1.289  0.6272 -1.8180  2.8304
  216MOL    H6647796   4.757   6.008   1.584  0.8481  0.1954  0.5221
  216MOL    H6747797   4.810   6.211   1.469 -0.7184 -0.2080  2.5953
  216MOL    C6847798   4.483   6.566   1.177 -0.3935 -0.0861  0.5516
  216MOL    C6947799   4.534   6.436   1.197  0.0865  0.2440 -0.8795
  216MOL    C7047800   4.653   6.418   1.273  0.6021  0.0096  0.1657
  216MOL    C7147801   4.714   6.531   1.330  0.1832 -0.3562  0.3841
  216MOL    C7247802   4.660   6.656   1.309 -0.8229  0.2804  0.0994
  216MOL    C7347803   4.547   6.678   1.231 -0.0354 -0.3850 -0.1822
  216MOL    O7447804   4.496   6.802   1.207  0.0379 -0.0774  0.2142
  216MOL    H7547805   4.401   6.596   1.114 -0.5952  0.7173  1.1856
  216MOL    H7647806   4.493   6.358   1.134 -0.9943  1.0748 -1.2163
  216MOL    H7747807   4.808   6.515   1.381  0.5586  0.6447  0.0172
  216MOL    H7847808   4.707   6.741   1.356 -0.1827  0.0703 -0.1638
  216MOL    C7947809   4.633   7.105   1.052  0.7110  1.1272  0.1269
  216MOL    C8047810   4.576   7.018   1.146  0.3762 -0.5677 -0.0003
  216MOL    C8147811   4.573   6.882   1.125 -0.8642 -0.0784 -0.3623
  216MOL    C8247812   4.655   6.830   1.023 -0.3435  0.3018 -0.4734
  216MOL    C8347813   4.721   6.916   0.934  0.2450 -0.0791  0.0559
  216MOL    C8447814   4.697   7.057   0.937 -0.0207 -0.1692  0.1108
  216MOL    O8547815   4.750   7.132   0.832 -0.0061  0.0143 -0.0931
  216MOL    H8647816   4.631   7.213   1.063 -0.5246  1.1045  0.1714
  216MOL    H8747817   4.518   7.073   1.218 -1.5948 -2.4074 -0.1291
  216MOL    H8847818   4.661   6.724   1.007 -0.3259  0.1530  0.5050
  216MOL    H8947819   4.772   6.872   0.850 -0.2811 -0.7852  0.0958
  216MOL    C9047820   4.830   7.479   0.755 -0.2146 -0.5237  0.0262
  216MOL    C9147821   4.766   7.352   0.750 -0.4175 -0.4188  0.3651
  216MOL    C9247822   4.800   7.256   0.847  1.1945 -0.2500  0.3503
  216MOL    C9347823   4.900   7.291   0.943  0.2947  0.2529  0.2861
  216MOL    C9447824   4.955   7.419   0.953  0.0068  0.2356 -0.5102
  216MOL    C9547825   4.923   7.512   0.852  0.5080 -0.1784  0.4714
  216MOL    O9647826   4.974   7.637   0.848  0.4344 -0.0638  0.1821
  216MOL    H9747827   4.814   7.556   0.682 -1.4992  0.7493  1.6277
  216MOL    H9847828   4.697   7.327   0.671  0.2481 -1.8186  0.2177
  216MOL    H9947829   4.929   7.229   1.027  3.0364  0.3503 -0.5382
  216MOL   H10047830   5.029   7.442   1.028 -1.8036  0.1219  1.3814
  216MOL   C10147831   4.859   7.811   1.162 -0.3725 -0.5800 -0.9630
  216MOL   C10247832   4.858   7.726   1.046  0.1322 -0.7783 -0.3880
  216MOL   C10347833   4.975   7.714   0.968 -0.6481  0.1599  0.4657
  216MOL   C10447834   5.088   7.787   1.001  0.3657 -0.1689  0.0417
  216MOL   C10547835   5.094   7.854   1.121 -0.3113  0.0817  0.0728
  216MOL   C10647836   4.983   7.876   1.199  0.4420  0.3254  0.0909
  216MOL   O10747837   4.993   7.951   1.314 -0.0511 -0.3583 -0.0481
  216MOL   H10847838   4.770   7.848   1.211 -1.4112 -1.9993 -1.7570
  216MOL   H10947839   4.771   7.676   1.007 -1.0504  0.0499  1.1243
  216MOL   H11047840   5.173   7.774   0.936  0.0010 -1.7607 -0.1350
  216MOL   H11147841   5.182   7.907   1.155 -0.1185 -0.9569  1.2356
  216MOL   C11247842   4.866   0.012   1.440 -0.8134  0.2387 -0.2033
  216MOL   C11347843   4.896   8.133   1.436  0.7050 -0.1319  0.4958
  216MOL   C11447844   4.952   8.079   1.316  1.1301 -0.5762  0.5030
  216MOL   C11547845   4.955   8.158   1.196 -0.3763  0.2641  0.2151
  216MOL   C11647846   4.915   0.044   1.201  0.1838 -0.1183  0.3315
  216MOL   C11747847   4.870   0.091   1.323 -1.0914  0.5376 -0.2935
  216MOL   O11847848   4.813   0.212   1.340 -0.1425 -0.6700  0.6486
  216MOL   H11947849   4.840   0.068   1.529  0.7401  1.6180 -0.5711
  216MOL   H12047850   4.880   8.062   1.515  0.5040 -1.4419 -0.7078
  216MOL   H12147851   4.977   8.101   1.107 -2.7178 -0.8646  0.3202
  216MOL   H12247852   4.907   0.099   1.109 -0.9565  0.9190  1.0257
  216MOL   C12347853   4.827   0.434   1.045 -0.0888 -0.2645  0.0844
  216MOL   C12447854   4.794   0.327   1.129  0.8895 -0.3124  1.0317
  216MOL   C12547855   4.841   0.321   1.258 -0.2152  0.2993  0.0533
  216MOL   C12647856   4.911   0.431   1.310 -0.5423  0.1083  0.0238
  216MOL   C12747857   4.937   0.547   1.234 -0.4261 -0.2844 -0.9622
  216MOL   C12847858   4.902   0.544   1.099  0.2681  0.2389 -0.2222
  216MOL   O12947859   4.926   0.663   1.023  0.9645 -0.2223  0.2257
  216MOL   H13047860   4.805   0.432   0.940 -0.1095 -1.5153  0.1007
  216MOL   H13147861   4.746   0.246   1.076  0.9489 -0.6010  1.4204
  216MOL   H13247862   4.947   0.429   1.412  0.3328 -0.2881 -0.2813
  216MOL   H13347863   4.989   0.626   1.288  0.1098  0.1566 -2.1100
  216MOL   C13447864   5.143   0.933   1.116  0.4484 -0.5949  0.9662
  216MOL   C13547865   5.032   0.857   1.105 -0.7494  0.3283 -0.6120
  216MOL   C13647866   5.038   0.731   1.045 -0.1275  0.8044 -0.3566
  216MOL   C13747867   5.160   0.674   1.002 -0.0427 -0.0406  0.1477
  216MOL   C13847868   5.277   0.745   1.037 -0.4985  0.9825 -0.8594
  216MOL   C13947869   5.268   0.875   1.086 -0.0292  0.5896 -0.3690
  216MOL   O14047870   5.391   0.942   1.086  0.1586  0.5130 -0.5900
  216MOL   H14147871   5.128   1.033   1.154 -1.2670 -1.2065  1.9611
  216MOL   H14247872   4.934   0.896   1.126 -1.4563  0.4895 -3.8594
  216MOL   H14347873   5.149   0.573   0.966 -1.4766  0.3124 -0.4615
  216MOL   H14447874   5.372   0.706   1.005 -0.5170  0.0597  0.1621
  216MOL   C14547875   5.556   0.940   1.423 -0.0556 -0.0959  0.0301
  216MOL   C14647876   5.451   0.952   1.327 -0.3836  0.2180  0.0778
  216MOL   C14747877   5.479   0.924   1.194 -0.2733  0.3799 -0.0642
  216MOL   C14847878   5.613   0.889   1.155 -0.1335 -0.1611  0.1539
  216MOL   C14947879   5.706   0.872   1.255  0.6758  0.3726  0.2305
  216MOL   C15047880   5.681   0.896   1.388 -0.6648  0.2244 -0.3123
  216MOL   O15147881   5.779   0.862   1.482  0.2034 -0.2581  0.1815
  216MOL   H15247882   5.543   0.958   1.529 -2.0860 -1.0875 -0.0096
  216MOL   H15347883   5.353   0.992   1.347 -0.5119  0.2957 -0.6945
  216MOL   H15447884   5.636   0.867   1.052 -0.0021 -1.7557  0.4988
  216MOL   H15547885   5.807   0.847   1.226  0.6635  0.9970 -0.3691
  216MOL   C15647886   5.787   0.488   1.475  0.7694 -0.2861 -0.2635
  216MOL   C15747887   5.742   0.621   1.497 -0.2774  0.3481  0.3118
  216MOL   C15847888   5.823   0.731   1.470 -0.1745  0.0799  0.8339
  216MOL   C15947889   5.960   0.703   1.433 -0.1592  0.3876  0.2445
  216MOL   C16047890   6.006   0.568   1.423  0.0806  0.1107 -0.4167
  216MOL   C16147891   5.922   0.459   1.445  0.0982 -0.5361 -0.3165
  216MOL   O16247892   5.964   0.328   1.447 -0.2201 -0.0988 -0.3422
  216MOL   H16347893   5.720   0.406   1.496  1.0341 -0.6218 -0.7166
  216MOL   H16447894   5.639   0.640   1.524 -0.5157  0.8974 -0.9755
  216MOL   H16547895   6.031   0.784   1.423 -1.3048  1.3662 -0.0790
  216MOL   H16647896   6.112   0.551   1.415  0.1921  0.3576  0.4698
  216MOL   C16747897   6.243   0.115   1.562 -0.1682  0.0394 -0.1464
  216MOL   C16847898   6.140   0.177   1.485 -0.5675  0.3698 -0.6022
  216MOL   C16947899   6.069   0.287   1.525  0.3960 -0.4832  0.2044
  216MOL   C17047900   6.102   0.343   1.646 -0.4675  0.3947  0.3557
  216MOL   C17147901   6.209   0.286   1.733 -0.4257 -0.0083 -0.3566
  216MOL   C17247902   6.276   0.173   1.686 -0.2455 -0.0805 -1.3200
  216MOL   O17347903   6.375   0.130   1.763 -0.3876 -0.3481 -0.3120
  216MOL   H17447904   6.296   0.029   1.523 -0.2492 -0.6850  1.2987
  216MOL   H17547905   6.101   0.127   1.398  0.2348  2.1058 -1.9730
  216MOL   H17647906   6.050   0.428   1.687 -2.4047 -0.8397  0.5309
  216MOL   H17747907   6.239   0.337   1.823 -0.2895  0.5928 -0.7443
  216MOL   C17847908   6.691   0.167   1.578 -0.6148 -0.3556 -0.5831
  216MOL   C17947909   6.582   0.195   1.659  0.8636  0.2600 -0.7712
  216MOL   C18047910   6.492   0.091   1.701  0.3478 -0.1049 -0.3412
  216MOL   C18147911   6.528   8.208   1.683 -0.4035  0.0434 -0.2866
  216MOL   C18247912   6.652   8.182   1.623  0.2367 -0.6222  0.4678
  216MOL   C18347913   6.728   0.033   1.569  0.0365  0.1851  0.2397
  216MOL   O18447914   6.852   8.253   1.516  0.4249  1.1682  0.6098
  216MOL   H18547915   6.768   0.237   1.549  1.5102 -1.7413  1.5679
  216MOL   H18647916   6.567   0.301   1.678 -1.4425 -0.1437 -0.1970
  216MOL   H18747917   6.463   8.124   1.700  0.4840 -0.8113 -1.0472
  216MOL   H18847918   6.687   8.081   1.609  1.9036  0.0486 -0.4299
  216MOL   C18947919   7.091   0.051   1.799  0.8129 -0.5070 -0.5948
  216MOL   C19047920   6.986   8.247   1.726  0.0562  0.3271 -0.6763
  216MOL   C19147921   6.970   0.021   1.587  0.7479 -0.6407  0.9922
  216MOL   C19247922   7.070   0.090   1.522 -0.3598  0.0658 -0.5901
  216MOL   C19347923   7.183   0.145   1.593  0.0031  0.3024 -0.3763
  216MOL   C19447924   7.194   0.122   1.732 -0.5209 -0.0715 -0.1640
  216MOL   O19547925   7.288   0.189   1.808 -0.4554  0.0999  0.1687
  216MOL   H19647926   7.096   0.041   1.906 -2.3262  2.4577 -0.0815
  216MOL   H19747927   6.904   8.195   1.773  1.0765  0.2702  1.0763
  216MOL   H19847928   7.057   0.115   1.418  2.3417  0.3516 -0.8933
  216MOL   H19947929   7.254   0.205   1.538  1.9662 -0.5751  1.1419
  216MOL   C20047930   7.263   0.312   2.159 -0.3464  0.0285 -0.4137
  216MOL   C20147931   7.298   0.231   2.048  0.7196  0.2017  0.7606
  216MOL   C20247932   7.247   0.261   1.921  0.1344 -0.2148  0.6644
  216MOL   C20347933   7.144   0.357   1.906  0.5626 -0.0636  0.0811
  216MOL   C20447934   7.097   0.427   2.019  0.2507  0.6413 -0.1676
  216MOL   C20547935   7.158   0.409   2.146  0.1690  0.0706 -0.4629
  216MOL   O20647936   7.120   0.494   2.250 -0.3280 -0.5782 -0.9966
  216MOL   H20747937   7.305   0.289   2.255 -0.9074 -1.8961 -0.6113
  216MOL   H20847938   7.374   0.154   2.055  1.8103  1.2556  0.8004
  216MOL   H20947939   7.091   0.374   1.814 -0.4770  1.4240  0.9260
  216MOL   H21047940   7.020   0.501   2.005 -0.0606  0.5854  1.1689
  216MOL   C21147941   7.365   0.771   2.243  0.1870 -0.0906 -0.0135
  216MOL   C21247942   7.310   0.649   2.211 -0.3144 -0.1442 -0.0355
  216MOL   C21347943   7.184   0.611   2.271 -0.3979  0.6053 -0.6852
  216MOL   C21447944   7.124   0.706   2.362 -0.0494  0.8728 -0.3898
  216MOL   C21547945   7.183   0.825   2.400 -0.1669  0.2148 -0.0604
  216MOL   C21647946   7.306   0.854   2.335  0.3036 -0.2988  0.0889
  216MOL   O21747947   7.372   0.973   2.353  0.7330  0.1933  1.1172
  216MOL   H21847948   7.450   0.807   2.187  0.7398  1.0235  1.5079
  216MOL   H21947949   7.359   0.587   2.138  0.2216 -0.2855  0.4396
  216MOL   H22047950   7.025   0.690   2.404  0.4496 -1.3939 -0.0229
  216MOL   H22147951   7.135   0.895   2.467 -0.5754 -0.5333  0.4380
  216MOL   H22247952   7.332   1.034   2.413  1.5669  0.4933  1.3699
  217MOL     C147953   7.561   5.031   1.132  0.4082  0.1642  0.1524
  217MOL     C247954   7.486   5.121   1.054 -0.0295 -0.0810 -0.2911
  217MOL     C347955   7.387   5.196   1.119  0.1383  0.2035  0.0289
  217MOL     C447956   7.352   5.165   1.250  0.7553 -0.1052 -0.2085
  217MOL     C547957   7.416   5.063   1.324  0.0962 -0.3119  0.0110
  217MOL     C647958   7.526   5.000   1.267 -0.1036 -0.3063 -0.4322
  217MOL     O747959   7.620   4.920   1.329  0.2448  0.0449 -0.1978
  217MOL     H847960   7.645   4.980   1.087  1.4655  1.0856  1.0471
  217MOL     H947961   7.513   5.147   0.953 -1.0215  0.5952 -0.3919
  217MOL    H1047962   7.276   5.226   1.298 -1.0171 -1.2350 -1.4962
  217MOL    H1147963   7.392   5.053   1.429  2.1793  1.0262  0.6259
  217MOL    H1247964   7.349   5.287   1.073  0.6029  0.4357  0.0966
  217MOL    C1347965   7.822   4.683   1.137  0.0687  1.4272  0.5554
  217MOL    C1447966   7.783   4.798   1.212 -0.4876  0.3479 -0.6721
  217MOL    C1547967   7.658   4.802   1.268  0.6781 -0.5548  0.4024
  217MOL    C1647968   7.566   4.698   1.259 -0.2370 -0.3446 -0.3202
  217MOL    C1747969   7.613   4.585   1.189  0.0328 -0.0931 -0.4362
  217MOL    C1847970   7.739   4.571   1.129 -0.4942  0.6137  0.5827
  217MOL    O1947971   7.777   4.451   1.067  0.2580  0.3522  0.0744
  217MOL    H2047972   7.920   4.683   1.090 -0.2018  2.7677 -0.0231
  217MOL    H2147973   7.849   4.883   1.214 -1.5300  1.1368  0.4493
  217MOL    H2247974   7.469   4.705   1.305  0.4071 -0.7437  1.1523
  217MOL    H2347975   7.538   4.508   1.180 -1.1289  1.1369 -1.3827
  217MOL    C2447976   7.523   4.356   0.811 -0.3701  0.9262 -0.2980
  217MOL    C2547977   7.624   4.427   0.884  0.4631 -0.3953 -0.5387
  217MOL    C2647978   7.692   4.374   0.993  0.2286  0.2246 -0.5303
  217MOL    C2747979   7.656   4.247   1.031  0.2331  0.3605 -0.1862
  217MOL    C2847980   7.551   4.174   0.972  0.2454  0.3265  0.4240
  217MOL    C2947981   7.493   4.225   0.856 -0.0884 -0.1882 -0.4111
  217MOL    O3047982   7.400   4.148   0.794 -0.5108  0.5600 -0.2685
  217MOL    H3147983   7.476   4.404   0.727 -0.5798  0.0105 -0.7105
  217MOL    H3247984   7.642   4.526   0.845  1.5838 -0.3187  0.1579
  217MOL    H3347985   7.698   4.209   1.123  0.7782 -1.7927 -1.3138
  217MOL    H3447986   7.517   4.081   1.015  0.5391  0.7081  1.5022
  217MOL    C3547987   7.073   4.316   0.737  0.3593  0.3228 -0.3149
  217MOL    C3647988   7.202   4.261   0.717  0.5820 -0.2362  0.6962
  217MOL    C3747989   7.266   4.188   0.813 -0.9214 -0.3456 -0.2361
  217MOL    C3847990   7.198   4.158   0.932 -0.2880  0.5902 -0.4567
  217MOL    C3947991   7.068   4.202   0.948  0.1169 -0.3819  0.1343
  217MOL    C4047992   7.010   4.289   0.859  0.5906 -0.3703  0.2109
  217MOL    O4147993   6.882   4.342   0.860 -0.0001  0.3140 -0.2930
  217MOL    H4247994   7.028   4.380   0.662  0.4364  0.2568 -0.4185
  217MOL    H4347995   7.263   4.268   0.628  2.3200 -2.5114  1.6421
  217MOL    H4447996   7.234   4.087   1.004 -0.5875 -0.0063 -0.8925
  217MOL    H4547997   7.006   4.171   1.031 -0.1120  2.1508  0.9743
  217MOL    C4647998   6.711   4.395   1.188  0.4110  0.5839 -0.6797
  217MOL    C4747999   6.807   4.417   1.087  0.7403  0.3599 -0.6967
  217MOL    C4848000   6.812   4.325   0.977  0.5099  0.8122 -0.6210
  217MOL    C4948001   6.727   4.213   0.978  0.0467  0.7196 -0.0876
  217MOL    C5048002   6.634   4.198   1.080  0.1624 -0.5685  0.0127
  217MOL    C5148003   6.616   4.288   1.184 -0.3702  0.4440 -0.5339
  217MOL    O5248004   6.542   4.251   1.289  0.7429 -0.1862 -0.7826
  217MOL    H5348005   6.710   4.463   1.271  0.0721 -0.8112  0.4840
  217MOL    H5448006   6.874   4.500   1.104 -0.0558  0.7996  0.3110
  217MOL    H5548007   6.734   4.145   0.894 -0.7058 -1.1469  1.3600
  217MOL    H5648008   6.574   4.108   1.082  0.9446 -1.1296 -1.3130
  217MOL    C5748009   6.393   4.475   1.538  0.4484 -0.8846  0.3519
  217MOL    C5848010   6.480   4.382   1.477 -0.4155  0.7561 -0.2771
  217MOL    C5948011   6.461   4.341   1.343  0.1804 -0.7967  0.0641
  217MOL    C6048012   6.338   4.380   1.281  0.1583 -0.4226 -0.0231
  217MOL    C6148013   6.246   4.464   1.341  0.6316  0.8206 -0.3254
  217MOL    C6248014   6.274   4.513   1.467 -0.2081  0.7865  0.2178
  217MOL    O6348015   6.188   4.603   1.528  0.1516  0.4095  0.2549
  217MOL    H6448016   6.403   4.498   1.643  2.6421 -0.0621 -0.0077
  217MOL    H6548017   6.572   4.348   1.523 -0.1962  0.1861 -1.1135
  217MOL    H6648018   6.316   4.342   1.183 -2.2702 -1.5226  0.9258
  217MOL    H6748019   6.156   4.490   1.288  0.2972  4.3061  1.7976
  217MOL    C6848020   6.246   4.943   1.629  0.2489 -0.0356 -0.0961
  217MOL    C6948021   6.215   4.807   1.636  0.0223 -0.2040 -0.0411
  217MOL    C7048022   6.219   4.734   1.515  1.0130 -0.4628  0.0340
  217MOL    C7148023   6.247   4.799   1.394 -0.1295 -0.4992  0.4617
  217MOL    C7248024   6.280   4.936   1.389 -0.5674 -0.0613  0.4824
  217MOL    C7348025   6.277   5.010   1.509  0.0079  0.1355  0.0480
  217MOL    O7448026   6.296   5.145   1.504  0.0747 -0.0226 -0.6025
  217MOL    H7548027   6.240   5.003   1.719 -2.3606  0.6969 -0.7196
  217MOL    H7648028   6.195   4.762   1.732 -0.2282  0.9005  0.4302
  217MOL    H7748029   6.244   4.738   1.305  0.4938  1.2619 -0.7877
  217MOL    H7848030   6.315   4.982   1.298  1.6698 -1.2804  0.6881
  217MOL    C7948031   6.179   5.476   1.437  0.5635 -0.2573 -0.3888
  217MOL    C8048032   6.260   5.367   1.460 -0.1201  0.0063 -0.1074
  217MOL    C8148033   6.204   5.241   1.479 -0.7775  0.8263  0.3781
  217MOL    C8248034   6.067   5.216   1.461  0.2197 -0.5074  0.2628
  217MOL    C8348035   5.984   5.329   1.430  0.3425 -0.2960  0.3429
  217MOL    C8448036   6.041   5.459   1.417  0.7710 -0.3181 -0.0099
  217MOL    O8548037   5.957   5.557   1.379  0.1767 -0.2774  0.4101
  217MOL    H8648038   6.218   5.576   1.427 -2.0214  0.9286  0.8979
  217MOL    H8748039   6.368   5.372   1.465 -0.1180 -1.0572  1.2159
  217MOL    H8848040   6.022   5.119   1.473  1.7656 -0.9496  2.7588
  217MOL    H8948041   5.880   5.306   1.410 -0.3401  3.1795 -0.5181
  217MOL    C9048042   6.081   5.721   1.073 -0.8617  0.5558  0.4278
  217MOL    C9148043   6.046   5.621   1.160  0.0576  0.0098  0.1593
  217MOL    C9248044   6.001   5.651   1.292 -0.9409 -0.7743 -0.8654
  217MOL    C9348045   6.021   5.781   1.337 -0.1866  0.2969  0.3092
  217MOL    C9448046   6.062   5.887   1.251  0.2632 -0.3177 -0.3763
  217MOL    C9548047   6.088   5.855   1.115 -0.5404 -0.0244  0.3330
  217MOL    O9648048   6.127   5.957   1.033 -0.4112  0.0329 -0.0624
  217MOL    H9748049   6.097   5.701   0.968  0.2949  0.8453  0.5447
  217MOL    H9848050   6.034   5.522   1.118 -1.0303  0.4645 -0.6171
  217MOL    H9948051   5.981   5.810   1.433  0.5141 -2.2665  1.4134
  217MOL   H10048052   6.074   5.985   1.297  3.4069 -0.5740 -0.5198
  217MOL   C10148053   5.826   5.990   0.827 -0.1827  0.5907 -0.3419
  217MOL   C10248054   5.906   6.005   0.943  0.5923 -0.4917 -0.2562
  217MOL   C10348055   6.045   5.983   0.930 -0.4847  1.2989  0.2435
  217MOL   C10448056   6.102   5.957   0.802 -0.9246 -0.1378  0.5293
  217MOL   C10548057   6.012   5.943   0.692 -0.3962 -0.2137  0.7241
  217MOL   C10648058   5.872   5.960   0.699 -0.4126  0.0801 -0.2965
  217MOL   O10748059   5.780   5.928   0.601 -0.5113 -0.4962 -0.2625
  217MOL   H10848060   5.718   5.997   0.825 -0.4015 -2.4013 -1.3524
  217MOL   H10948061   5.874   6.031   1.043 -0.1687 -0.6157 -0.4639
  217MOL   H11048062   6.202   5.924   0.780 -1.4956 -0.7850 -1.1718
  217MOL   H11148063   6.056   5.909   0.599  2.0209  1.0267  1.3567
  217MOL   C11248064   5.889   5.713   0.330 -0.3070  0.1183  0.1112
  217MOL   C11348065   5.866   5.765   0.458  0.1390 -0.1788 -0.3215
  217MOL   C11448066   5.815   5.894   0.475 -0.6794 -0.2083  0.3796
  217MOL   C11548067   5.804   5.984   0.363  0.1023  0.3009 -0.6278
  217MOL   C11648068   5.840   5.936   0.237  0.2129  0.4424  0.6813
  217MOL   C11748069   5.878   5.806   0.220  0.5440  0.6577 -0.0515
  217MOL   O11848070   5.919   5.759   0.098 -0.0709 -0.0282 -0.3589
  217MOL   H11948071   5.926   5.612   0.316 -2.6393 -0.5018 -1.8172
  217MOL   H12048072   5.880   5.704   0.546 -0.2312  0.0585 -0.0988
  217MOL   H12148073   5.779   6.088   0.376 -0.7681 -0.0223  0.3271
  217MOL   H12248074   5.841   6.009   0.158  1.5509  0.6409  0.8780
  217MOL   C12348075   5.730   5.694   8.037  0.0698  0.1531  0.1371
  217MOL   C12448076   5.830   5.739   8.130 -0.2865  0.8882  0.1762
  217MOL   C12548077   5.830   5.702   0.010  0.8094 -1.0342  0.7816
  217MOL   C12648078   5.731   5.611   0.048  0.4813 -0.0798 -0.4338
  217MOL   C12748079   5.632   5.561   8.213  0.6135 -0.4510 -0.8353
  217MOL   C12848080   5.628   5.600   8.080  0.8296 -0.7932 -0.2060
  217MOL   O12948081   5.534   5.552   7.998 -0.2473 -0.1899 -0.0543
  217MOL   H13048082   5.742   5.717   7.933 -4.2539  0.5320 -0.3838
  217MOL   H13148083   5.916   5.800   8.104 -1.0975  1.8090 -0.3493
  217MOL   H13248084   5.727   5.594   0.155  1.3197  0.1611 -0.3615
  217MOL   H13348085   5.561   5.485   8.240  0.1137 -0.2206 -1.4877
  217MOL   C13448086   5.620   5.536   7.643 -0.4691  0.0860 -0.1359
  217MOL   C13548087   5.610   5.501   7.774  0.0771 -0.4408 -0.1343
  217MOL   C13648088   5.547   5.585   7.868  0.0546  0.0823 -0.3241
  217MOL   C13748089   5.501   5.708   7.826 -0.5370 -0.5569 -0.4159
  217MOL   C13848090   5.506   5.744   7.690 -0.5074  0.4054 -0.0629
  217MOL   C13948091   5.564   5.656   7.598 -0.5978  0.0805  0.1602
  217MOL   O14048092   5.582   5.685   7.464 -0.2388  0.7743 -0.6481
  217MOL   H14148093   5.651   5.455   7.579 -1.5109 -1.4060  1.2076
  217MOL   H14248094   5.648   5.404   7.802  0.9378 -0.1347 -0.2389
  217MOL   H14348095   5.452   5.764   7.905 -0.9777 -2.4034  0.6410
  217MOL   H14448096   5.452   5.835   7.664 -1.1031 -0.4498 -1.9394
  217MOL   C14548097   5.260   5.537   7.327 -0.2659  0.1398 -0.1868
  217MOL   C14648098   5.385   5.543   7.392 -0.6644  0.2848 -0.4919
  217MOL   C14748099   5.475   5.654   7.376 -0.6345  0.6691  0.1146
  217MOL   C14848100   5.438   5.753   7.284 -0.5868  0.3078  0.2331
  217MOL   C14948101   5.308   5.753   7.219 -0.4646  0.4758 -0.2895
  217MOL   C15048102   5.216   5.643   7.242 -0.4912 -0.3538  0.1673
  217MOL   O15148103   5.090   5.658   7.202  0.2786  0.6626  0.7438
  217MOL   H15248104   5.197   5.461   7.372  0.0920 -0.0674 -0.0335
  217MOL   H15348105   5.415   5.468   7.463  0.5172  0.4365 -0.8234
  217MOL   H15448106   5.494   5.844   7.270 -0.1831  0.1793  0.9970
  217MOL   H15548107   5.279   5.842   7.164  0.6368  0.5073 -0.8158
  217MOL   C15648108   4.908   5.878   7.442 -0.2047  0.1762  0.4518
  217MOL   C15748109   4.979   5.769   7.387 -0.1305 -0.3205 -0.0212
  217MOL   C15848110   5.020   5.768   7.253  0.0926  0.5242  0.4569
  217MOL   C15948111   4.972   5.869   7.169  0.6248  0.3638  0.5390
  217MOL   C16048112   4.898   5.979   7.219  0.8827 -0.5496 -1.0254
  217MOL   C16148113   4.870   5.987   7.358 -0.3663 -1.0069  0.2033
  217MOL   O16248114   4.815   6.103   7.405  0.4116 -0.4913  0.8714
  217MOL   H16348115   4.888   5.873   7.548 -0.9453  0.1174  0.3183
  217MOL   H16448116   5.020   5.689   7.446 -1.3527 -1.9958 -1.3949
  217MOL   H16548117   4.998   5.851   7.065  0.0447  2.4403  0.0108
  217MOL   H16648118   4.865   6.055   7.149 -4.7953 -1.1235  0.8565
  217MOL   C16748119   4.762   6.212   7.749 -0.2707  0.3878  0.0869
  217MOL   C16848120   4.817   6.193   7.625 -0.4433 -0.2734 -1.1447
  217MOL   C16948121   4.762   6.112   7.528 -0.4654 -0.2846  0.1094
  217MOL   C17048122   4.637   6.048   7.554 -0.5373  0.0277  0.2496
  217MOL   C17148123   4.575   6.075   7.682  0.2483 -0.2794  0.3583
  217MOL   C17248124   4.638   6.153   7.780 -0.0471  0.9801  0.9974
  217MOL   O17348125   4.581   6.171   7.902  0.4647 -0.1873  0.8234
  217MOL   H17448126   4.818   6.260   7.828  0.8533 -2.7939  1.3312
  217MOL   H17548127   4.913   6.238   7.603  0.4225 -2.1906 -1.4543
  217MOL   H17648128   4.592   6.001   7.467  0.7971 -1.0863  0.1396
  217MOL   H17748129   4.477   6.033   7.696 -0.5058  0.7478 -1.5518
  217MOL   C17848130   4.579   5.863   8.119 -0.2476  0.5058  0.2520
  217MOL   C17948131   4.628   5.977   8.043 -0.8072 -0.1901 -0.0231
  217MOL   C18048132   4.539   6.054   7.971  0.2455  0.0362 -0.1216
  217MOL   C18148133   4.403   6.007   7.960 -0.9187 -0.1297 -0.4499
  217MOL   C18248134   4.366   5.884   8.016 -0.2073 -0.4364 -0.4887
  217MOL   C18348135   4.452   5.807   8.095 -0.1542  0.0774  0.1905
  217MOL   O18448136   4.405   5.690   8.150  0.0494  0.8042  0.1669
  217MOL   H18548137   4.645   5.809   8.186 -1.4023  1.6847  2.3725
  217MOL   H18648138   4.730   6.011   8.043 -0.1803 -1.9785 -0.7808
  217MOL   H18748139   4.337   6.070   7.902 -1.2540 -1.7165 -1.8620
  217MOL   H18848140   4.267   5.847   7.993 -0.5199  0.0467  0.0622
  217MOL   C18948141   4.421   5.322   8.095 -0.1424  0.0415  0.6430
  217MOL   C19048142   4.387   5.450   8.140  0.7771  0.6708  0.8426
  217MOL   C19148143   4.438   5.570   8.085 -0.4467 -0.5040 -0.2099
  217MOL   C19248144   4.518   5.553   7.972 -0.2420  0.1876 -0.2809
  217MOL   C19348145   4.548   5.430   7.914 -0.6053  0.2774 -0.0073
  217MOL   C19448146   4.500   5.308   7.975 -0.3131 -0.0651  0.4515
  217MOL   O19548147   4.524   5.185   7.927  0.2786 -0.2401 -0.3452
  217MOL   H19648148   4.387   5.231   8.144  0.0264 -0.4690 -0.1818
  217MOL   H19748149   4.355   5.447   8.243  0.3451 -0.1868  0.6844
  217MOL   H19848150   4.551   5.641   7.919  0.0864  1.3739  1.8487
  217MOL   H19948151   4.612   5.428   7.826 -1.1837 -3.5405 -0.4161
  217MOL   C20048152   4.759   4.943   8.048 -0.2639 -0.2691  0.3701
  217MOL   C20148153   4.643   4.998   7.999  0.1453  0.0108  0.1969
  217MOL   C20248154   4.641   5.132   7.955  0.3101 -0.0015  0.1676
  217MOL   C20348155   4.763   5.197   7.944  0.2917  0.2128 -0.2130
  217MOL   C20448156   4.887   5.136   7.985 -0.0491  0.4971 -0.3611
  217MOL   C20548157   4.887   5.007   8.038 -0.1328  0.1613 -0.4651
  217MOL   O20648158   4.998   4.933   8.064  0.0300 -0.3000  0.2642
  217MOL   H20748159   4.745   4.842   8.085  0.2470 -1.0486 -1.5054
  217MOL   H20848160   4.553   4.940   7.988  0.0291 -0.2154  2.1784
  217MOL   H20948161   4.787   5.297   7.910 -0.8907  0.6720  0.2654
  217MOL   H21048162   4.978   5.194   7.978  0.9202 -0.9245  0.1163
  217MOL   C21148163   5.072   4.758   7.744  1.1035 -0.3886  0.5662
  217MOL   C21248164   5.052   4.860   7.838  0.5693 -0.2201  0.7113
  217MOL   C21348165   5.021   4.831   7.974  0.1514 -0.2390  0.1152
  217MOL   C21448166   5.004   4.694   8.006 -0.6098  0.4081  0.3506
  217MOL   C21548167   5.027   4.591   7.913  0.6634 -0.5128  0.2797
  217MOL   C21648168   5.065   4.623   7.786 -0.3445 -0.1347  0.2927
  217MOL   O21748169   5.097   4.533   7.688 -0.0054  0.2911 -0.8211
  217MOL   H21848170   5.104   4.791   7.647 -0.5177 -0.5437 -0.0396
  217MOL   H21948171   5.066   4.960   7.799 -0.5373 -0.5509 -0.5338
  217MOL   H22048172   4.971   4.661   8.104 -0.6603 -0.9953 -0.1209
  217MOL   H22148173   5.011   4.487   7.939  0.6063 -0.1022  1.9689
  217MOL   H22248174   5.052   4.451   7.700  3.3287 -1.3626  1.4179
  218MOL     C148175   0.979   2.690   3.562  0.8049  0.0465  0.3056
  218MOL     C248176   0.979   2.551   3.548  0.0035  0.0527  0.5713
  218MOL     C348177   1.076   2.492   3.469 -0.5956  0.5947  0.1197
  218MOL     C448178   1.181   2.565   3.408 -0.4333  0.5450  0.1089
  218MOL     C548179   1.176   2.704   3.422 -0.5578  0.3546  0.1964
  218MOL     C648180   1.077   2.771   3.497  0.6280 -0.0276  0.2747
  218MOL     O748181   1.077   2.910   3.505 -1.1680  0.4582 -0.0742
  218MOL     H848182   0.901   2.736   3.621  1.6159  0.3668  1.1268
  218MOL     H948183   0.897   2.495   3.588  0.7336 -1.6641 -0.2903
  218MOL    H1048184   1.260   2.522   3.348 -1.3565 -0.4776 -0.4073
  218MOL    H1148185   1.245   2.769   3.370 -0.8344  1.6458  1.4134
  218MOL    H1248186   1.075   2.385   3.455  1.7478  0.4995  0.4930
  218MOL    C1348187   1.068   3.164   3.251 -0.5066  0.7975 -0.1704
  218MOL    C1448188   1.104   3.094   3.368 -0.4381 -0.0605  0.0209
  218MOL    C1548189   1.041   2.974   3.389  0.1513  0.4796  0.1605
  218MOL    C1648190   0.934   2.931   3.302  0.1669 -0.5091 -0.5212
  218MOL    C1748191   0.905   2.996   3.184 -0.4282 -0.3691  0.5610
  218MOL    C1848192   0.971   3.116   3.159 -0.1900  0.5335 -0.3128
  218MOL    O1948193   0.938   3.181   3.044  0.0444  0.4415  0.0613
  218MOL    H2048194   1.121   3.251   3.215  0.5384 -0.5234 -1.9210
  218MOL    H2148195   1.184   3.127   3.433  0.6518  0.3202 -1.4815
  218MOL    H2248196   0.901   2.829   3.313 -0.0698 -0.2820  1.0657
  218MOL    H2348197   0.831   2.963   3.113  2.3547 -1.6442 -1.8814
  218MOL    C2448198   0.711   3.453   3.144  0.6183  0.1339  0.7367
  218MOL    C2548199   0.762   3.325   3.125 -0.9918  1.2015 -0.4007
  218MOL    C2648200   0.885   3.308   3.053 -0.4198 -0.5802  0.2144
  218MOL    C2748201   0.960   3.423   3.007  0.2035  0.3109 -0.1184
  218MOL    C2848202   0.898   3.551   3.016  0.3151  0.3310  0.2223
  218MOL    C2948203   0.776   3.569   3.089 -0.2416 -0.1887 -0.5616
  218MOL    O3048204   0.734   3.697   3.120 -0.1889 -0.0948 -0.1006
  218MOL    H3148205   0.614   3.463   3.191  0.6354 -1.8357  1.2420
  218MOL    H3248206   0.714   3.239   3.170 -0.5595 -0.0369 -2.2779
  218MOL    H3348207   1.056   3.412   2.958  1.3865  0.9171  2.0041
  218MOL    H3448208   0.952   3.629   2.965 -1.6810  1.2989 -0.4824
  218MOL    C3548209   0.470   3.803   2.886  0.7853  0.4605  0.4645
  218MOL    C3648210   0.593   3.763   2.935 -0.5060  0.5931  0.2845
  218MOL    C3748211   0.612   3.730   3.073  1.2132  0.6974 -0.4337
  218MOL    C3848212   0.503   3.733   3.163  0.7099  0.7019  0.5763
  218MOL    C3948213   0.370   3.750   3.110 -0.0106 -0.6859 -0.2731
  218MOL    C4048214   0.357   3.788   2.974 -0.1109 -0.6725 -0.2362
  218MOL    O4148215   0.230   3.828   2.937  0.0517  0.7831  0.4652
  218MOL    H4248216   0.457   3.847   2.789  0.3173  0.5079  0.5451
  218MOL    H4348217   0.677   3.770   2.867 -0.4365  4.2334  0.6514
  218MOL    H4448218   0.503   3.699   3.265  3.2426 -0.0616  0.3683
  218MOL    H4548219   0.292   3.751   3.184 -0.7290 -0.5989 -1.0230
  218MOL    C4648220   0.100   3.570   2.701  0.1199  0.2389  0.5722
  218MOL    C4748221   0.141   3.632   2.818 -0.2161  0.1987  0.0951
  218MOL    C4848222   0.187   3.769   2.820 -0.0977  0.1402 -0.5224
  218MOL    C4948223   0.188   3.847   2.698  0.4930  0.3875 -0.5428
  218MOL    C5048224   0.150   3.784   2.579 -0.4581 -0.0349 -0.0886
  218MOL    C5148225   0.106   3.649   2.582  0.5853  0.6223 -0.3443
  218MOL    O5248226   0.061   3.597   2.460 -0.0166  0.0562  0.1527
  218MOL    H5348227   0.059   3.471   2.694 -1.9776  1.0362  1.0238
  218MOL    H5448228   0.137   3.570   2.906 -2.1194  1.4664  0.9356
  218MOL    H5548229   0.207   3.952   2.713 -1.5286  0.5611  1.1287
  218MOL    H5648230   0.150   3.847   2.492 -3.0394 -1.4515 -1.1785
  218MOL    C5748231   0.320   3.556   2.208 -0.1291  0.2626  0.2451
  218MOL    C5848232   0.232   3.617   2.292 -0.2620 -0.1928 -0.8359
  218MOL    C5948233   0.158   3.539   2.381  0.3356 -0.2042 -0.2179
  218MOL    C6048234   0.189   3.406   2.399  0.2775 -0.5303  0.2254
  218MOL    C6148235   0.270   3.333   2.311  0.5004  0.3901 -0.4286
  218MOL    C6248236   0.349   3.414   2.224  0.3917 -0.2856  0.4866
  218MOL    O6348237   0.447   3.356   2.142 -0.0473 -0.5746 -0.6605
  218MOL    H6448238   0.387   3.615   2.148  1.7912  0.1895  2.2671
  218MOL    H6548239   0.223   3.725   2.302  3.0740  0.0401  0.1375
  218MOL    H6648240   0.125   3.352   2.468 -0.6926  0.3732  0.0342
  218MOL    H6748241   0.279   3.226   2.324 -1.5628  0.1191 -0.9773
  218MOL    C6848242   0.685   3.098   2.268 -0.0109 -0.3246 -0.3147
  218MOL    C6948243   0.635   3.219   2.225 -0.2335 -0.8900 -0.6552
  218MOL    C7048244   0.503   3.232   2.172  0.0118  0.4879  0.0036
  218MOL    C7148245   0.434   3.108   2.156  0.3298 -1.1446  0.0023
  218MOL    C7248246   0.480   2.982   2.203  0.0572  0.4297  0.4678
  218MOL    C7348247   0.609   2.974   2.249  0.7147 -1.2117  0.4598
  218MOL    O7448248   0.657   2.855   2.289  0.5462 -0.1175  0.3264
  218MOL    H7548249   0.785   3.087   2.308 -0.5718  0.3918  1.3552
  218MOL    H7648250   0.702   3.303   2.233  0.7029 -1.6229 -0.7796
  218MOL    H7748251   0.339   3.099   2.105  0.0910 -0.3390  0.3057
  218MOL    H7848252   0.414   2.898   2.194 -1.0322  1.3997 -0.8429
  218MOL    C7948253   0.539   2.590   2.504  0.5857 -0.2464  0.2438
  218MOL    C8048254   0.599   2.654   2.399  0.2495 -0.7130 -0.8085
  218MOL    C8148255   0.601   2.794   2.400 -0.3832  0.4887 -0.1643
  218MOL    C8248256   0.550   2.869   2.506 -0.2400  0.0525  0.0436
  218MOL    C8348257   0.494   2.806   2.620 -0.5591 -0.1919  0.4704
  218MOL    C8448258   0.474   2.668   2.611  0.0240  0.7661  0.1484
  218MOL    O8548259   0.409   2.606   2.714  0.2516 -0.3437 -0.3126
  218MOL    H8648260   0.526   2.483   2.496  0.0978 -0.2133  0.6071
  218MOL    H8748261   0.644   2.597   2.320  2.0154  0.6855 -0.8485
  218MOL    H8848262   0.562   2.976   2.499 -1.0385  0.0832 -0.8191
  218MOL    H8948263   0.465   2.867   2.704 -0.1582  0.5679  0.0659
  218MOL    C9048264   0.086   2.432   2.645  0.2919 -0.4119 -0.0232
  218MOL    C9148265   0.188   2.535   2.666  0.0005  0.7494 -0.7122
  218MOL    C9248266   0.325   2.500   2.677 -0.0303 -0.9855 -0.1622
  218MOL    C9348267   0.364   2.363   2.663 -0.1816  0.3198 -0.5605
  218MOL    C9448268   0.261   2.266   2.652  0.0190 -0.3516 -0.0011
  218MOL    C9548269   0.124   2.299   2.648 -0.4039  0.1635  0.1769
  218MOL    O9648270   0.032   2.199   2.646 -0.6247  0.1856  0.3416
  218MOL    H9748271   8.241   2.472   2.631 -0.0099 -1.5345 -1.2523
  218MOL    H9848272   0.155   2.636   2.685  1.2349  0.8692  0.9137
  218MOL    H9948273   0.467   2.335   2.673 -0.2401  0.6298  1.0351
  218MOL   H10048274   0.287   2.161   2.655  1.6496  0.0326  0.1878
  218MOL   C10148275   8.009   2.246   2.416  0.1437  0.1421 -0.0121
  218MOL   C10248276   8.141   2.245   2.466 -0.0239 -0.3965 -0.2315
  218MOL   C10348277   8.165   2.218   2.600 -0.1890  0.8456 -0.5561
  218MOL   C10448278   8.061   2.212   2.687 -0.3487 -0.1195  0.1566
  218MOL   C10548279   7.927   2.220   2.638  0.0398 -0.2433 -0.1859
  218MOL   C10648280   7.898   2.236   2.501  0.2690  0.8231 -0.0937
  218MOL   O10748281   7.771   2.238   2.453 -0.6901  0.2242  0.4060
  218MOL   H10848282   8.005   2.263   2.309  3.4448  0.0469 -0.2028
  218MOL   H10948283   8.216   2.252   2.388  0.7527 -0.8462  0.4641
  218MOL   H11048284   8.090   2.191   2.789  0.0300  1.3698  0.3527
  218MOL   H11148285   7.839   2.225   2.701 -0.0255  1.1127 -0.3728
  218MOL   C11248286   7.675   2.592   2.510  0.0092  0.1843 -0.0545
  218MOL   C11348287   7.757   2.482   2.480  0.0918  0.6211  0.1659
  218MOL   C11448288   7.702   2.356   2.457  0.3256  0.4565 -0.0956
  218MOL   C11548289   7.561   2.336   2.464  0.5214 -0.2481 -0.6433
  218MOL   C11648290   7.474   2.448   2.475  0.4834 -0.5818 -0.2174
  218MOL   C11748291   7.530   2.581   2.494  0.0630  0.4077 -0.7370
  218MOL   O11848292   7.442   2.683   2.517 -0.7850 -0.2124 -0.2439
  218MOL   H11948293   7.713   2.693   2.516 -0.8957  0.6141 -1.3166
  218MOL   H12048294   7.862   2.507   2.487 -0.0202  0.5540  2.3646
  218MOL   H12148295   7.517   2.239   2.444 -1.2168  0.2583  0.5932
  218MOL   H12248296   7.368   2.433   2.463  0.8675 -1.2027 -3.3878
  218MOL   C12348297   7.415   2.882   2.220 -0.1630  0.2001  0.2739
  218MOL   C12448298   7.424   2.764   2.296  0.6768  0.2412 -0.6923
  218MOL   C12548299   7.415   2.784   2.434 -0.0529 -0.2300 -0.0368
  218MOL   C12648300   7.378   2.905   2.490  0.0874  0.0393 -0.5363
  218MOL   C12748301   7.363   3.016   2.410 -0.0976 -0.5163  0.1212
  218MOL   C12848302   7.379   3.009   2.271 -0.6306  0.2560 -0.0382
  218MOL   O12948303   7.371   3.108   2.182 -0.2989  0.3563 -0.2877
  218MOL   H13048304   7.442   2.887   2.116 -0.4849 -0.5749  0.1457
  218MOL   H13148305   7.461   2.672   2.256  1.6294  0.6540 -0.7597
  218MOL   H13248306   7.359   2.917   2.596  1.7871 -3.0361  0.1716
  218MOL   H13348307   7.343   3.111   2.457 -1.5095 -1.1416  0.8404
  218MOL   C13448308   7.239   3.441   2.285 -0.3141  0.3590  0.7340
  218MOL   C13548309   7.252   3.318   2.230 -0.5305 -0.4536 -0.4518
  218MOL   C13648310   7.366   3.241   2.233 -0.0774 -0.8177  0.1836
  218MOL   C13748311   7.480   3.300   2.287  0.5688  0.2744 -0.5157
  218MOL   C13848312   7.480   3.430   2.341 -0.2219  0.7761 -0.0888
  218MOL   C13948313   7.352   3.501   2.342  0.0790 -0.1197  0.5493
  218MOL   O14048314   7.341   3.630   2.391  0.1496  0.2135  0.2387
  218MOL   H14148315   7.147   3.498   2.286 -0.5901 -0.0593 -0.1804
  218MOL   H14248316   7.168   3.276   2.176 -0.8674  1.2462 -1.2832
  218MOL   H14348317   7.571   3.242   2.292  0.5281  0.2535  0.1520
  218MOL   H14448318   7.567   3.473   2.388  1.6853 -0.5203 -2.3185
  218MOL   C14548319   7.609   3.863   2.285 -0.2028  0.3560  0.0923
  218MOL   C14648320   7.540   3.764   2.352  0.1970  0.9606  0.8922
  218MOL   C14748321   7.404   3.737   2.329 -0.4350 -0.7812 -0.1805
  218MOL   C14848322   7.334   3.829   2.251  0.6670 -0.4604 -0.1714
  218MOL   C14948323   7.396   3.930   2.171 -0.7686 -0.2697 -0.1648
  218MOL   C15048324   7.537   3.947   2.189 -0.9861 -0.1562  0.5899
  218MOL   O15148325   7.608   4.039   2.117 -0.2571 -0.2878 -0.3950
  218MOL   H15248326   7.713   3.880   2.307 -0.6516 -1.3264  4.0735
  218MOL   H15348327   7.595   3.696   2.416 -0.5483 -0.4971  0.0126
  218MOL   H15448328   7.226   3.819   2.248  0.6752 -0.8733  0.9611
  218MOL   H15548329   7.336   3.987   2.102  0.5293 -0.2839 -1.3187
  218MOL   C15648330   7.598   3.899   1.769  0.2413  0.1344  0.5184
  218MOL   C15748331   7.598   3.901   1.910 -0.3997  0.4357 -0.4801
  218MOL   C15848332   7.611   4.021   1.980 -0.3831  0.8594  0.1412
  218MOL   C15948333   7.628   4.142   1.908  0.3990 -0.3817  0.2985
  218MOL   C16048334   7.643   4.139   1.770 -0.0289 -0.2909  0.8939
  218MOL   C16148335   7.623   4.019   1.698 -0.5152  0.7037 -1.0213
  218MOL   O16248336   7.617   4.020   1.561 -0.4067  0.0594  0.0196
  218MOL   H16348337   7.579   3.810   1.712  1.3867  0.8372 -0.9835
  218MOL   H16448338   7.572   3.807   1.958  0.7736  0.9340  1.1715
  218MOL   H16548339   7.627   4.236   1.960 -0.0674  0.0618 -0.5028
  218MOL   H16648340   7.690   4.222   1.722  1.0047 -0.2688  1.9211
  218MOL   C16748341   7.357   4.162   1.340 -0.0091  0.8332  0.1637
  218MOL   C16848342   7.482   4.131   1.394 -0.6396 -0.5441 -0.9343
  218MOL   C16948343   7.500   4.026   1.487 -0.1272 -0.1957 -0.0493
  218MOL   C17048344   7.386   3.948   1.521  0.2338 -0.6983 -0.5920
  218MOL   C17148345   7.258   3.980   1.465  0.3574  1.0542 -0.3057
  218MOL   C17248346   7.247   4.093   1.383 -0.0603 -0.2570  0.0214
  218MOL   O17348347   7.130   4.142   1.328 -0.2592 -0.3253 -0.2289
  218MOL   H17448348   7.335   4.230   1.259  0.0483 -0.6120 -1.0630
  218MOL   H17548349   7.564   4.197   1.372 -1.9685  1.4902  0.0218
  218MOL   H17648350   7.381   3.885   1.609 -0.0514  0.2008  0.0489
  218MOL   H17748351   7.167   3.927   1.491  1.1510  1.4312  3.4945
  218MOL   C17848352   6.936   3.850   1.204 -0.5885 -0.3702 -0.4933
  218MOL   C17948353   7.045   3.940   1.217  0.1326  0.6737  0.2086
  218MOL   C18048354   7.028   4.057   1.296  0.5787  0.3192  0.0446
  218MOL   C18148355   6.901   4.092   1.350  0.6737  0.1898 -0.1606
  218MOL   C18248356   6.793   3.998   1.333 -0.7236  0.3415 -0.2189
  218MOL   C18348357   6.815   3.882   1.260  0.2621 -0.2869  0.1958
  218MOL   O18448358   6.715   3.794   1.234 -0.3103 -0.1708  0.2415
  218MOL   H18548359   6.957   3.759   1.150  0.5232  1.1035 -2.5841
  218MOL   H18648360   7.134   3.905   1.168  0.5078  1.0712  0.5971
  218MOL   H18748361   6.892   4.179   1.414 -1.0578 -0.9840  1.2623
  218MOL   H18848362   6.697   4.022   1.377 -0.9517 -0.5328 -0.2308
  218MOL   C18948363   6.385   3.905   1.108 -1.3866 -0.1416 -0.2606
  218MOL   C19048364   6.494   3.889   1.191 -0.7507 -0.8111  0.5896
  218MOL   C19148365   6.616   3.835   1.148  0.2555 -0.8400  0.2464
  218MOL   C19248366   6.637   3.821   1.008 -0.0845  0.0093 -0.1376
  218MOL   C19348367   6.531   3.855   0.917  0.4470 -0.3712  0.2782
  218MOL   C19448368   6.405   3.886   0.970  0.7410 -0.4948  0.0032
  218MOL   O19548369   6.299   3.904   0.883 -0.3114  0.0949 -0.1344
  218MOL   H19648370   6.294   3.952   1.145  0.0923  0.9435  2.1031
  218MOL   H19748371   6.487   3.906   1.297 -0.3697  2.8795  0.0576
  218MOL   H19848372   6.731   3.782   0.972  0.1017  0.5748 -0.2799
  218MOL   H19948373   6.543   3.844   0.810 -0.9634  1.3252 -0.0910
  218MOL   C20048374   6.166   3.565   0.815 -0.4146  0.1329  0.4170
  218MOL   C20148375   6.260   3.673   0.822  0.3521 -0.0714 -0.0458
  218MOL   C20248376   6.211   3.801   0.865  0.1820 -0.5351 -0.0729
  218MOL   C20348377   6.072   3.824   0.885  0.4330  0.1497 -0.6181
  218MOL   C20448378   5.978   3.721   0.861 -0.7284 -0.4752 -0.7460
  218MOL   C20548379   6.027   3.590   0.831 -0.1416 -0.3558  0.0128
  218MOL   O20648380   5.933   3.497   0.821  0.1084  0.5328  0.4909
  218MOL   H20748381   6.200   3.465   0.792  0.3554  0.4946 -0.0453
  218MOL   H20848382   6.365   3.650   0.816  0.4283 -0.0998  1.2739
  218MOL   H20948383   6.042   3.923   0.917  0.0459  1.3017 -4.3181
  218MOL   H21048384   5.871   3.736   0.860 -0.6363  0.9801  2.4377
  218MOL   C21148385   6.033   3.167   0.682 -0.1248  0.1850  0.0234
  218MOL   C21248386   5.989   3.266   0.777 -0.9152  0.2238 -0.1348
  218MOL   C21348387   5.956   3.395   0.730  0.1444  0.0207 -0.7489
  218MOL   C21448388   5.954   3.421   0.593  0.0179  0.1858 -0.1684
  218MOL   C21548389   5.987   3.320   0.499  0.3191 -0.6829  0.4223
  218MOL   C21648390   6.027   3.197   0.545 -0.2449 -0.3666 -0.3139
  218MOL   O21748391   6.045   3.099   0.452  0.0792 -0.1099  0.0428
  218MOL   H21848392   6.062   3.071   0.722 -0.9101  1.3814  3.6359
  218MOL   H21948393   5.976   3.241   0.881 -0.6088 -0.5972 -0.2898
  218MOL   H22048394   5.922   3.510   0.541  0.7590  0.1568 -0.6848
  218MOL   H22148395   5.974   3.323   0.392 -1.2005 -0.9969  0.5801
  218MOL   H22248396   6.001   3.113   0.370 -2.5711  0.5403  1.5335
  219MOL     C148397   6.641   1.243   7.345 -0.4733 -0.2885  0.1421
  219MOL     C248398   6.650   1.304   7.468 -0.0917 -0.5011 -1.0310
  219MOL     C348399   6.625   1.441   7.473  0.2978 -0.8654  0.2927
  219MOL     C448400   6.595   1.517   7.361  0.5831 -0.1815 -0.4528
  219MOL     C548401   6.587   1.456   7.238 -0.3887 -0.4607  0.1526
  219MOL     C648402   6.602   1.315   7.231 -0.4893 -0.6756 -0.4693
  219MOL     O748403   6.589   1.259   7.106 -0.2047 -0.0709 -0.0456
  219MOL     H848404   6.656   1.136   7.337  0.6780  0.0501 -2.7074
  219MOL     H948405   6.682   1.249   7.555  0.4594  1.1164 -0.1909
  219MOL    H1048406   6.577   1.623   7.371 -0.7809 -0.4589  0.1811
  219MOL    H1148407   6.562   1.511   7.148  3.4411 -0.0345 -0.7620
  219MOL    H1248408   6.661   1.486   7.564 -3.0769  0.6229  0.9431
  219MOL    C1348409   6.433   0.930   7.065  0.2332 -0.2675 -0.2818
  219MOL    C1448410   6.535   1.027   7.086 -0.1592  0.1936 -0.2106
  219MOL    C1548411   6.497   1.161   7.095  0.4399 -0.5224 -0.2815
  219MOL    C1648412   6.357   1.200   7.083 -0.6127  0.3784 -0.2560
  219MOL    C1748413   6.267   1.099   7.056 -0.3965 -0.3871  0.5154
  219MOL    C1848414   6.298   0.964   7.048 -0.0179 -0.8006 -0.1189
  219MOL    O1948415   6.208   0.862   7.021  0.2908  0.0958 -0.1498
  219MOL    H2048416   6.470   0.829   7.057  2.8617  0.5601  0.9800
  219MOL    H2148417   6.636   0.998   7.109  0.0759  0.4256 -0.9382
  219MOL    H2248418   6.325   1.303   7.082  0.3254  0.6732 -0.1779
  219MOL    H2348419   6.168   1.137   7.037  0.7039  2.1875 -0.2293
  219MOL    C2448420   5.910   0.899   6.815  1.1487 -0.2360  0.1514
  219MOL    C2548421   5.991   0.865   6.923  0.1051  0.3757  0.1044
  219MOL    C2648422   6.131   0.879   6.906 -0.3000  0.2719 -0.3422
  219MOL    C2748423   6.188   0.910   6.781  0.4190  0.0038  0.2882
  219MOL    C2848424   6.105   0.939   6.670 -0.0018  0.5625 -0.2262
  219MOL    C2948425   5.967   0.938   6.691 -0.0491  0.7543 -0.1795
  219MOL    O3048426   5.902   0.993   6.584  0.2670 -0.0030  0.1045
  219MOL    H3148427   5.803   0.888   6.828  1.2470  0.6817  1.9985
  219MOL    H3248428   5.940   0.853   7.017  2.7787 -0.0113  1.5338
  219MOL    H3348429   6.295   0.914   6.766  0.5020 -0.9134  0.6337
  219MOL    H3448430   6.151   0.982   6.583  1.7581 -1.6718 -0.4512
  219MOL    C3548431   5.537   1.074   6.619  0.1390 -0.6799  0.3170
  219MOL    C3648432   5.653   1.002   6.599  1.4970 -0.0250  0.1517
  219MOL    C3748433   5.779   1.059   6.605  0.5277 -0.1797 -0.0532
  219MOL    C3848434   5.794   1.195   6.618  0.1085 -0.3431 -0.2489
  219MOL    C3948435   5.682   1.277   6.626 -0.8994  1.1520  0.1328
  219MOL    C4048436   5.551   1.216   6.627 -1.1932  0.1346 -0.7207
  219MOL    O4148437   5.440   1.295   6.657 -0.4130  0.2845  0.0766
  219MOL    H4248438   5.438   1.031   6.607  0.3463 -0.8231 -0.9585
  219MOL    H4348439   5.642   0.895   6.586 -2.3658  0.5100 -1.4800
  219MOL    H4448440   5.888   1.249   6.622 -0.5560  1.1727 -3.4291
  219MOL    H4548441   5.697   1.383   6.639 -0.3991  1.0457  0.4380
  219MOL    C4648442   5.290   1.430   6.347  0.5615  0.0226 -0.2450
  219MOL    C4748443   5.382   1.411   6.452 -0.4033  0.5421 -0.0498
  219MOL    C4848444   5.352   1.313   6.553  0.2846  0.2314 -0.1772
  219MOL    C4948445   5.230   1.235   6.544 -1.0427  0.1888 -0.3017
  219MOL    C5048446   5.138   1.256   6.443 -0.0586  0.2886 -0.3413
  219MOL    C5148447   5.171   1.353   6.347 -0.4741 -0.3483  0.0966
  219MOL    O5248448   5.083   1.377   6.243  0.0286  0.2040 -0.0065
  219MOL    H5348449   5.311   1.510   6.278 -0.6912  0.3082 -0.3008
  219MOL    H5448450   5.474   1.468   6.448  0.2148 -0.3530  1.1316
  219MOL    H5548451   5.208   1.158   6.617 -0.4264  0.4065  0.1143
  219MOL    H5648452   5.048   1.197   6.426  0.7014 -0.7271 -0.9103
  219MOL    C5748453   5.011   1.156   5.949  0.2058  0.4710 -0.5256
  219MOL    C5848454   4.995   1.217   6.078 -0.5242 -0.2173  0.4552
  219MOL    C5948455   5.103   1.297   6.133  0.6020  0.5103 -0.0892
  219MOL    C6048456   5.219   1.320   6.058  0.3853 -0.3240  0.1172
  219MOL    C6148457   5.237   1.247   5.941 -0.0488  0.3107  0.8122
  219MOL    C6248458   5.139   1.164   5.888 -0.2713  0.0600 -0.7254
  219MOL    O6348459   5.169   1.098   5.773 -0.6201  0.4936  0.7051
  219MOL    H6448460   4.940   1.091   5.900  0.4092 -0.4066  0.3283
  219MOL    H6548461   4.902   1.203   6.129  0.0373 -2.1402  0.9801
  219MOL    H6648462   5.297   1.386   6.094  0.4010 -0.7842  0.9563
  219MOL    H6748463   5.323   1.257   5.877 -0.0554 -2.6728  0.2752
  219MOL    C6848464   5.421   0.852   5.652 -0.2324  0.1510  0.6898
  219MOL    C6948465   5.319   0.950   5.657 -0.4727  0.1577  0.5365
  219MOL    C7048466   5.259   0.993   5.776 -0.1403  0.1672 -0.0208
  219MOL    C7148467   5.288   0.921   5.896 -0.0879 -0.4900  0.2188
  219MOL    C7248468   5.387   0.816   5.894  0.0347 -0.8548  0.3132
  219MOL    C7348469   5.449   0.779   5.772  0.1873 -0.2335  0.1754
  219MOL    O7448470   5.547   0.682   5.764 -0.5422  0.2584 -0.3424
  219MOL    H7548471   5.460   0.831   5.553  0.0718  0.9461  0.6358
  219MOL    H7648472   5.300   1.008   5.568  4.2207  1.6767  0.3965
  219MOL    H7748473   5.240   0.953   5.988  0.6517 -1.6532  1.0155
  219MOL    H7848474   5.414   0.776   5.990  1.9680  1.0490  0.5933
  219MOL    C7948475   5.417   0.351   5.896  0.1094 -0.2392 -0.0180
  219MOL    C8048476   5.417   0.482   5.834  0.7365 -0.3151 -0.1221
  219MOL    C8148477   5.529   0.565   5.840 -0.4417  0.3209  0.1672
  219MOL    C8248478   5.643   0.528   5.921 -0.2798 -0.3480 -0.0489
  219MOL    C8348479   5.639   0.408   5.994  0.6785 -0.4069  0.2505
  219MOL    C8448480   5.528   0.319   5.981  0.5856 -0.0217 -0.2056
  219MOL    O8548481   5.523   0.206   6.052 -0.2549 -0.2083  0.3148
  219MOL    H8648482   5.324   0.296   5.886 -1.6328  3.1269 -3.3677
  219MOL    H8748483   5.331   0.511   5.774 -1.8597 -0.2392  3.4975
  219MOL    H8848484   5.739   0.577   5.931 -1.0527  1.0324  0.8900
  219MOL    H8948485   5.728   0.374   6.044  2.7735  3.0498 -0.9387
  219MOL    C9048486   5.394   8.131   5.945  0.3140  0.0183  0.0127
  219MOL    C9148487   5.393   0.011   5.991 -0.1298  0.0017  0.0541
  219MOL    C9248488   5.512   0.088   5.987 -0.3321  0.5231 -1.1220
  219MOL    C9348489   5.628   0.032   5.929  0.1590  0.1279 -0.1654
  219MOL    C9448490   5.626   8.153   5.875 -0.6524  0.0816  0.2952
  219MOL    C9548491   5.510   8.083   5.884  0.3075  0.0134 -0.4095
  219MOL    O9648492   5.518   7.950   5.851 -0.1494 -0.8670  0.2499
  219MOL    H9748493   5.306   8.068   5.953  1.7929 -2.4990 -2.5902
  219MOL    H9848494   5.306   0.047   6.044 -0.9457 -0.6044 -0.8502
  219MOL    H9948495   5.718   0.092   5.935  0.0108  0.2539  1.0516
  219MOL   H10048496   5.718   8.114   5.834 -0.6017  1.2038 -0.6694
  219MOL   C10148497   5.497   7.878   5.488  0.1214  0.1782 -0.3563
  219MOL   C10248498   5.540   7.932   5.608 -0.6841 -0.3672 -0.1051
  219MOL   C10348499   5.475   7.905   5.728  0.1846 -0.1736  0.1495
  219MOL   C10448500   5.368   7.813   5.722 -0.0595  0.3803 -0.4833
  219MOL   C10548501   5.317   7.765   5.602 -0.2001  0.0849 -0.3127
  219MOL   C10648502   5.379   7.800   5.480  0.1603  0.0393  0.4120
  219MOL   O10748503   5.333   7.741   5.363 -0.1262  0.2542  0.4515
  219MOL   H10848504   5.542   7.883   5.390 -1.2972  2.6171 -0.9349
  219MOL   H10948505   5.634   7.986   5.609 -1.1704  0.4777 -0.4037
  219MOL   H11048506   5.322   7.769   5.809  0.2762  0.6962 -0.1476
  219MOL   H11148507   5.228   7.703   5.602 -0.6427  0.6743  1.8686
  219MOL   C11248508   5.144   7.939   5.122 -0.7147 -0.3857 -0.4778
  219MOL   C11348509   5.247   7.883   5.196 -0.3532  0.2572 -0.5303
  219MOL   C11448510   5.227   7.795   5.303 -0.0379 -0.8684  0.6193
  219MOL   C11548511   5.096   7.758   5.329  0.7939 -0.1270  0.3350
  219MOL   C11648512   4.986   7.818   5.262  0.2337  0.4844 -0.3910
  219MOL   C11748513   5.012   7.907   5.151 -0.6941 -0.0645  0.0453
  219MOL   O11848514   4.911   7.972   5.090  0.1467  0.4389  0.4593
  219MOL   H11948515   5.165   8.005   5.040 -0.6032  1.0716  0.7074
  219MOL   H12048516   5.350   7.907   5.175  0.0694  0.9606  2.1849
  219MOL   H12148517   5.067   7.694   5.412 -0.1136  2.3368  1.9708
  219MOL   H12248518   4.884   7.792   5.289  1.0692 -0.2343  2.2269
  219MOL   C12348519   4.991   0.020   4.913  0.0200  0.1329 -0.3348
  219MOL   C12448520   4.964   8.141   4.944 -0.0681 -0.0389  0.8506
  219MOL   C12548521   4.922   8.102   5.074 -0.4887 -0.3337  0.0678
  219MOL   C12648522   4.905   8.201   5.174 -0.0440 -0.3852  0.1524
  219MOL   C12748523   4.943   0.084   5.142  0.3507 -0.0058 -1.2505
  219MOL   C12848524   4.978   0.116   5.012 -0.6434  0.3422  1.0806
  219MOL   O12948525   5.020   0.245   4.972 -0.0955 -0.2713  0.2815
  219MOL   H13048526   5.022   0.060   4.817  0.8331  1.2111  0.3672
  219MOL   H13148527   4.967   8.061   4.872  2.3375  1.2004 -0.4718
  219MOL   H13248528   4.868   8.174   5.272 -1.1791 -1.1907 -0.4826
  219MOL   H13348529   4.944   0.156   5.222  3.7154 -0.6339 -0.6579
  219MOL   C13448530   5.059   0.493   5.249  0.8692 -0.5771  0.3339
  219MOL   C13548531   4.998   0.401   5.161  0.1095  0.3864  0.3360
  219MOL   C13648532   5.077   0.338   5.063  0.1482  0.0143 -0.3025
  219MOL   C13748533   5.212   0.364   5.057 -0.5771  0.0787  0.3480
  219MOL   C13848534   5.270   0.454   5.150 -0.4609  0.9082 -0.2262
  219MOL   C13948535   5.191   0.521   5.246 -0.2063 -0.4795 -0.4836
  219MOL   O14048536   5.242   0.612   5.338 -0.2547  0.0137  0.3126
  219MOL   H14148537   4.998   0.555   5.314  2.0076  0.6689  0.2324
  219MOL   H14248538   4.892   0.381   5.165  0.4874 -1.8265  0.0028
  219MOL   H14348539   5.275   0.317   4.983 -0.7799  1.4148 -0.6779
  219MOL   H14448540   5.376   0.475   5.146 -0.2652  0.1036  0.8304
  219MOL   C14548541   5.605   0.617   5.441 -0.6930 -0.1660  0.3975
  219MOL   C14648542   5.471   0.582   5.429 -0.2353 -0.0560  0.6439
  219MOL   C14748543   5.380   0.647   5.337  0.2440 -0.3763  0.1621
  219MOL   C14848544   5.436   0.760   5.270  0.3094  0.6041  0.1997
  219MOL   C14948545   5.569   0.797   5.282 -0.1907 -0.5745  0.1049
  219MOL   C15048546   5.658   0.725   5.369  0.7142  0.0812  0.5894
  219MOL   O15148547   5.785   0.771   5.381  0.0800  0.0074 -0.0954
  219MOL   H15248548   5.671   0.566   5.510  0.9035  0.4078 -0.6680
  219MOL   H15348549   5.436   0.507   5.499  0.4954 -1.9033 -0.9200
  219MOL   H15448550   5.366   0.811   5.206  1.1332  1.1916 -0.2458
  219MOL   H15548551   5.603   0.883   5.226 -1.0958  0.3898  0.9950
  219MOL   C15648552   5.994   0.596   5.622  0.2808  0.2188 -0.0491
  219MOL   C15748553   5.923   0.628   5.506  1.0349 -0.6339 -0.5282
  219MOL   C15848554   5.849   0.747   5.502  0.1477  0.0201  0.6443
  219MOL   C15948555   5.845   0.833   5.617 -0.3012 -0.0181 -0.4468
  219MOL   C16048556   5.925   0.809   5.732  0.7010 -0.7893 -0.4192
  219MOL   C16148557   5.998   0.683   5.736  0.5009 -0.9485 -1.2416
  219MOL   O16248558   6.081   0.654   5.842  0.0005 -0.2087 -0.3112
  219MOL   H16348559   6.048   0.503   5.633 -2.8699 -1.3118  3.6356
  219MOL   H16448560   5.929   0.563   5.420  0.5286 -1.5888  0.1566
  219MOL   H16548561   5.786   0.923   5.617 -1.5460 -0.8270 -0.8859
  219MOL   H16648562   5.921   0.864   5.825  2.6833 -2.1334  0.4879
  219MOL   C16748563   6.438   0.714   5.769  0.8368 -0.1495  0.7374
  219MOL   C16848564   6.298   0.701   5.742  0.1976  0.2084  0.1728
  219MOL   C16948565   6.214   0.695   5.852 -0.0020 -0.0495 -0.0126
  219MOL   C17048566   6.255   0.735   5.982  1.0845 -0.3631  0.1731
  219MOL   C17148567   6.388   0.769   6.004  0.3630  0.3598  1.0742
  219MOL   C17248568   6.482   0.760   5.897 -0.0150  0.2662 -0.1376
  219MOL   O17348569   6.611   0.792   5.922  0.5382  0.3393 -0.2142
  219MOL   H17448570   6.501   0.705   5.683 -2.4116  2.4537 -2.0577
  219MOL   H17548571   6.265   0.664   5.646  1.2280 -1.5624  0.4733
  219MOL   H17648572   6.191   0.746   6.068  1.4674  2.1895  0.1843
  219MOL   H17748573   6.438   0.808   6.092  1.7921  0.4381  0.2401
  219MOL   C17848574   6.860   0.699   6.176  0.3958 -0.5490  0.0838
  219MOL   C17948575   6.790   0.770   6.075 -0.0003 -0.2808  0.2687
  219MOL   C18048576   6.680   0.712   6.007 -0.1685  0.3023  0.5681
  219MOL   C18148577   6.638   0.580   6.042  0.3373 -0.2055 -0.0483
  219MOL   C18248578   6.709   0.506   6.137  0.1326  0.1320 -0.8396
  219MOL   C18348579   6.819   0.570   6.207  0.0884  0.7761 -0.3518
  219MOL   O18448580   6.869   0.502   6.315  0.6661 -0.7293 -0.0898
  219MOL   H18548581   6.945   0.731   6.234  1.0678 -0.8030 -0.7495
  219MOL   H18648582   6.805   0.876   6.065 -0.2725 -0.3012 -0.3682
  219MOL   H18748583   6.550   0.546   5.990 -1.3509  1.4691  1.6286
  219MOL   H18848584   6.677   0.409   6.171  0.7560  0.6083  1.1835
  219MOL   C18948585   6.716   0.202   6.443  0.0788  1.0094  0.4167
  219MOL   C19048586   6.805   0.289   6.388 -0.1750 -0.4419  0.8815
  219MOL   C19148587   6.782   0.424   6.391 -0.4347 -0.1260  0.1018
  219MOL   C19248588   6.671   0.473   6.460  0.0133 -0.6056 -0.1502
  219MOL   C19348589   6.577   0.388   6.522  0.4114 -0.9817 -0.8673
  219MOL   C19448590   6.601   0.247   6.512  0.9989  0.7028 -0.3363
  219MOL   O19548591   6.523   0.163   6.588 -0.3728 -0.5998  0.4690
  219MOL   H19648592   6.737   0.097   6.432  1.3202  1.3870 -1.1493
  219MOL   H19748593   6.880   0.243   6.325  1.4007 -1.0465  3.1373
  219MOL   H19848594   6.652   0.580   6.466 -1.4622 -0.9624  2.9271
  219MOL   H19948595   6.498   0.423   6.587 -0.5299  0.2469 -2.6190
  219MOL   C20048596   6.502   8.059   6.486 -0.1460 -0.0237 -0.3013
  219MOL   C20148597   6.550   8.179   6.540  1.2503 -0.6407  0.3863
  219MOL   C20248598   6.481   0.047   6.527 -0.2245 -0.0200 -0.1681
  219MOL   C20348599   6.358   0.049   6.457  0.3487 -0.2137 -0.1392
  219MOL   C20448600   6.307   8.180   6.409  0.1294  0.2471  0.4680
  219MOL   C20548601   6.377   8.060   6.420  0.1099  0.2582  0.0158
  219MOL   O20648602   6.332   7.938   6.379 -0.1170  0.3080 -0.2552
  219MOL   H20748603   6.549   7.964   6.506  0.5382  0.1769 -0.9568
  219MOL   H20848604   6.646   8.174   6.589 -0.0474  3.5756  3.6658
  219MOL   H20948605   6.312   0.144   6.433  1.6338  0.8536  1.4905
  219MOL   H21048606   6.213   8.190   6.356  0.6400  1.7540 -0.2037
  219MOL   C21148607   5.986   7.889   6.513  0.4976 -0.1970  0.3954
  219MOL   C21248608   6.124   7.933   6.501  0.4567 -1.4200  0.2262
  219MOL   C21348609   6.205   7.898   6.395 -0.1005 -0.0718  0.5544
  219MOL   C21448610   6.151   7.814   6.298 -1.0432  0.3299 -0.8083
  219MOL   C21548611   6.020   7.762   6.314  0.8470 -0.1000  0.1003
  219MOL   C21648612   5.940   7.801   6.416  0.5599  0.0522 -0.3769
  219MOL   O21748613   5.816   7.742   6.427  0.9392  0.1798  0.5852
  219MOL   H21848614   5.919   7.916   6.594  2.0269  0.9508  1.3008
  219MOL   H21948615   6.155   8.009   6.571 -0.2508  0.2693 -1.2811
  219MOL   H22048616   6.201   7.767   6.215  0.0007 -1.5348  0.8241
  219MOL   H22148617   5.980   7.708   6.229 -3.2458  1.9418  0.5876
  219MOL   H22248618   5.760   7.778   6.494  0.0744  0.9372 -0.5269
  220MOL     C148619   4.387   1.766   5.422  0.3474  0.3375 -0.2909
  220MOL     C248620   4.398   1.662   5.519  0.2007  0.3830  0.1183
  220MOL     C348621   4.421   1.531   5.475 -0.3496  0.1495 -0.0774
  220MOL     C448622   4.437   1.500   5.336 -0.6271  0.1042  0.4374
  220MOL     C548623   4.429   1.600   5.239  0.5803  0.3324 -0.2582
  220MOL     C648624   4.403   1.731   5.281  0.3544  0.3325 -0.8006
  220MOL     O748625   4.391   1.840   5.197 -0.8184 -0.9436  0.4904
  220MOL     H848626   4.367   1.868   5.450  0.0185  0.8789 -2.4294
  220MOL     H948627   4.396   1.695   5.622 -1.8966  2.7754 -0.6389
  220MOL    H1048628   4.459   1.397   5.310 -0.3750  0.5144 -1.0447
  220MOL    H1148629   4.442   1.569   5.136 -2.4323 -1.0899 -0.2643
  220MOL    H1248630   4.425   1.451   5.547  0.8074 -1.2560 -1.6536
  220MOL    C1348631   4.657   1.821   4.938  0.1484 -0.2321 -0.5933
  220MOL    C1448632   4.592   1.831   5.068 -0.2529  0.0582 -0.0426
  220MOL    C1548633   4.452   1.832   5.076 -0.2427 -0.7037  0.0587
  220MOL    C1648634   4.372   1.819   4.960  0.5363  0.2578 -0.1215
  220MOL    C1748635   4.431   1.806   4.833  0.4273 -0.1163 -0.5352
  220MOL    C1848636   4.575   1.804   4.820  0.9433 -0.2287 -0.1880
  220MOL    O1948637   4.627   1.783   4.698 -0.6343 -0.2686  0.8388
  220MOL    H2048638   4.764   1.815   4.933  0.0947 -1.0073 -1.0401
  220MOL    H2148639   4.646   1.836   5.161 -0.3461  0.1948  0.0053
  220MOL    H2248640   4.264   1.816   4.963  0.4037  0.6777 -3.1825
  220MOL    H2348641   4.368   1.802   4.745 -1.5572 -0.1894  0.8638
  220MOL    C2448642   4.973   1.702   4.647 -0.0807  0.8711 -0.2881
  220MOL    C2548643   4.840   1.691   4.650 -0.2158  0.0702  0.3490
  220MOL    C2648644   4.761   1.801   4.672 -0.1073 -0.2579 -0.2657
  220MOL    C2748645   4.820   1.932   4.672  0.8540 -0.2004  0.3097
  220MOL    C2848646   4.954   1.949   4.654 -0.2272  0.8629  0.3148
  220MOL    C2948647   5.037   1.829   4.637  0.7568 -0.5411 -0.3211
  220MOL    O3048648   5.168   1.844   4.620  0.1769  0.7733 -0.1336
  220MOL    H3148649   5.041   1.618   4.647  1.0373  1.7520 -1.2452
  220MOL    H3248650   4.795   1.593   4.650  0.5721 -0.3001 -0.7134
  220MOL    H3348651   4.762   2.021   4.690 -0.0796 -0.1004 -2.7840
  220MOL    H3448652   4.990   2.050   4.641 -1.1826  1.1831  0.1180
  220MOL    C3548653   5.328   1.632   4.362  0.3376 -0.1049  0.1015
  220MOL    C3648654   5.265   1.668   4.488  0.0229  0.2023 -0.1627
  220MOL    C3748655   5.226   1.805   4.506  0.6173  0.3364 -0.6353
  220MOL    C3848656   5.237   1.897   4.402 -0.0555  0.0443  0.5972
  220MOL    C3948657   5.291   1.861   4.278  0.3344  0.0822  0.3579
  220MOL    C4048658   5.337   1.731   4.264  0.2454 -0.0973  0.2120
  220MOL    O4148659   5.384   1.688   4.144 -0.8256  0.2736 -0.4138
  220MOL    H4248660   5.353   1.531   4.333 -3.3468 -1.2130  0.4345
  220MOL    H4348661   5.242   1.602   4.570  2.8080  2.2932  2.4044
  220MOL    H4448662   5.204   1.997   4.424  2.0574  0.3586  2.6070
  220MOL    H4548663   5.292   1.935   4.200  0.8661  0.1459  0.4208
  220MOL    C4648664   5.373   1.803   3.799  0.8818  0.7974 -0.0034
  220MOL    C4748665   5.422   1.761   3.925 -0.1003 -0.4213  1.0371
  220MOL    C4848666   5.336   1.728   4.024  0.2373  0.4787  0.2387
  220MOL    C4948667   5.194   1.729   4.001 -0.2099 -0.1841 -1.1110
  220MOL    C5048668   5.146   1.781   3.881  0.2706  0.2686 -0.8400
  220MOL    C5148669   5.234   1.822   3.780  0.3274 -0.4482 -0.1491
  220MOL    O5248670   5.177   1.879   3.666 -0.6118  0.1182 -0.5922
  220MOL    H5348671   5.438   1.832   3.717 -1.3593  1.7312 -1.5122
  220MOL    H5448672   5.528   1.767   3.947  0.4399  0.3086 -1.4987
  220MOL    H5548673   5.134   1.696   4.084  1.6485  2.3929  1.3837
  220MOL    H5648674   5.041   1.782   3.860 -0.5710  2.0428  3.0104
  220MOL    C5748675   5.264   2.238   3.662 -0.1106  0.4227 -0.3619
  220MOL    C5848676   5.279   2.101   3.682  0.5010  0.1015 -0.5479
  220MOL    C5948677   5.164   2.014   3.658  0.1142  0.0661 -0.4383
  220MOL    C6048678   5.038   2.071   3.636  0.1942 -0.4081  0.1995
  220MOL    C6148679   5.026   2.208   3.614  0.2393  0.2966  0.4130
  220MOL    C6248680   5.140   2.286   3.614 -0.5326  0.0464  0.3471
  220MOL    O6348681   5.126   2.423   3.593 -0.2757 -0.1248 -0.2709
  220MOL    H6448682   5.343   2.306   3.689  1.0561 -0.4919 -1.3931
  220MOL    H6548683   5.378   2.063   3.701  0.2005 -1.2948 -1.6853
  220MOL    H6648684   4.950   2.008   3.627 -0.0312  0.0332 -0.8343
  220MOL    H6748685   4.932   2.258   3.598  0.3262  0.5422  0.6720
  220MOL    C6848686   5.273   2.687   3.389  0.4365  0.1657 -0.0268
  220MOL    C6948687   5.225   2.611   3.500  0.5141 -0.9127 -0.0970
  220MOL    C7048688   5.183   2.479   3.484 -0.1810 -0.3814  0.1238
  220MOL    C7148689   5.211   2.412   3.366  0.6062 -0.6235 -0.0890
  220MOL    C7248690   5.269   2.474   3.257 -0.0671 -0.7821 -0.3133
  220MOL    C7348691   5.297   2.616   3.267  0.0093 -0.0733 -0.4163
  220MOL    O7448692   5.351   2.691   3.158 -0.1315 -0.0912 -0.1558
  220MOL    H7548693   5.296   2.792   3.404  0.5960  0.0540  0.5035
  220MOL    H7648694   5.202   2.660   3.594 -0.0916 -2.1239  0.3933
  220MOL    H7748695   5.179   2.309   3.357  0.5370 -0.6110  0.0181
  220MOL    H7848696   5.296   2.411   3.174 -0.8973 -1.4071 -0.1187
  220MOL    C7948697   5.073   2.799   2.944  0.1042  0.4397  0.2605
  220MOL    C8048698   5.154   2.791   3.059  0.2654 -0.2959  0.3212
  220MOL    C8148699   5.265   2.710   3.052 -0.3407  0.1030 -0.7478
  220MOL    C8248700   5.307   2.663   2.929 -0.6656  0.1601  0.3535
  220MOL    C8348701   5.227   2.673   2.811  0.5340  0.4920  0.1465
  220MOL    C8448702   5.110   2.748   2.818  0.3423 -0.1730  0.3377
  220MOL    O8548703   5.034   2.781   2.705  0.0405 -0.2578  0.2393
  220MOL    H8648704   4.986   2.863   2.948 -0.5902 -0.5817  1.6144
  220MOL    H8748705   5.113   2.837   3.147 -1.3705  0.7428 -0.9762
  220MOL    H8848706   5.405   2.618   2.927 -0.4338  0.5785  1.7753
  220MOL    H8948707   5.266   2.649   2.713  0.4747  2.6633 -0.4540
  220MOL    C9048708   4.695   2.646   2.777  0.9319  0.6135  0.1781
  220MOL    C9148709   4.840   2.651   2.781  0.7824 -0.0525  0.3700
  220MOL    C9248710   4.898   2.765   2.722 -0.5300 -0.6650 -0.0969
  220MOL    C9348711   4.823   2.873   2.681 -0.1617  0.4454  0.4909
  220MOL    C9448712   4.688   2.860   2.669  0.2268  0.2411  0.2831
  220MOL    C9548713   4.613   2.753   2.729 -0.2988  0.3220  0.5347
  220MOL    O9648714   4.476   2.749   2.715 -0.0719  0.7208  0.8473
  220MOL    H9748715   4.657   2.549   2.803 -0.8154  0.8322 -1.4844
  220MOL    H9848716   4.899   2.566   2.811 -0.3687 -1.6299 -1.7345
  220MOL    H9948717   4.877   2.961   2.648  0.2602 -0.4013 -1.1290
  220MOL   H10048718   4.628   2.942   2.633 -0.2180  0.2170  0.9374
  220MOL   C10148719   4.216   2.519   2.837  0.4729  0.6348  0.3052
  220MOL   C10248720   4.311   2.586   2.754 -0.2794 -0.4076  0.7919
  220MOL   C10348721   4.396   2.684   2.802 -0.4486 -0.0202 -0.6293
  220MOL   C10448722   4.387   2.731   2.935 -0.0317  0.4145  0.0675
  220MOL   C10548723   4.284   2.672   3.013 -0.0045  0.3271 -0.4017
  220MOL   C10648724   4.204   2.567   2.967  0.1847  0.2486 -0.2624
  220MOL   O10748725   4.109   2.508   3.050 -0.5029  0.1218 -0.3510
  220MOL   H10848726   4.159   2.438   2.796 -0.2048  0.8715  0.7640
  220MOL   H10948727   4.320   2.553   2.651  0.0300 -0.1633  0.7420
  220MOL   H11048728   4.461   2.799   2.974  1.1951 -0.3847 -0.8428
  220MOL   H11148729   4.265   2.713   3.111  1.4485  0.8723 -0.3304
  220MOL   C11248730   3.800   2.703   3.075 -0.0470 -0.7469  0.5911
  220MOL   C11348731   3.931   2.663   3.085  0.4110 -0.1379 -0.3256
  220MOL   C11448732   3.978   2.543   3.031 -0.1655  0.1673  0.7623
  220MOL   C11548733   3.899   2.457   2.962  0.3303  0.1909 -0.1109
  220MOL   C11648734   3.762   2.502   2.952 -0.1442  0.4583  0.1899
  220MOL   C11748735   3.710   2.618   3.015  0.2388 -0.2389 -0.4117
  220MOL   O11848736   3.576   2.651   3.010 -0.0533 -0.0355 -0.4442
  220MOL   H11948737   3.762   2.797   3.111  1.9849  1.1513 -1.9714
  220MOL   H12048738   4.002   2.735   3.123  0.7417  0.2619 -1.6665
  220MOL   H12148739   3.930   2.365   2.913 -0.6291 -1.1610  1.7490
  220MOL   H12248740   3.694   2.432   2.905  1.1591 -1.2920  0.8571
  220MOL   C12348741   3.319   2.592   2.741 -0.1745 -0.3481  0.2656
  220MOL   C12448742   3.385   2.583   2.864  0.2418 -0.6373  0.2259
  220MOL   C12548743   3.510   2.656   2.884 -0.2087 -0.4699  0.0957
  220MOL   C12648744   3.563   2.732   2.777  0.7822 -0.6501  0.6559
  220MOL   C12748745   3.486   2.749   2.659  0.0430 -0.6511  0.0484
  220MOL   C12848746   3.367   2.674   2.638 -0.0305  0.5228 -0.2961
  220MOL   O12948747   3.299   2.676   2.519 -0.2413  0.5605  0.3609
  220MOL   H13048748   3.235   2.529   2.720 -0.4504  0.2637 -0.4914
  220MOL   H13148749   3.348   2.524   2.947 -0.3921  3.3633  2.8947
  220MOL   H13248750   3.651   2.790   2.802  0.5773  0.5628 -1.3580
  220MOL   H13348751   3.523   2.824   2.592  0.1974 -0.9263 -0.1757
  220MOL   C13448752   3.307   2.907   2.225  0.1267  0.8182 -0.0267
  220MOL   C13548753   3.317   2.786   2.298  0.2277 -0.2076 -0.3056
  220MOL   C13648754   3.287   2.786   2.441 -0.6334  0.3483  0.4285
  220MOL   C13748755   3.236   2.898   2.500 -0.0770  0.3502 -0.0064
  220MOL   C13848756   3.219   3.009   2.424 -1.1184 -0.8406  0.3609
  220MOL   C13948757   3.268   3.020   2.291  0.3013 -0.1110 -0.1971
  220MOL   O14048758   3.275   3.134   2.219 -0.5641 -0.2121  0.3010
  220MOL   H14148759   3.351   2.913   2.127  0.2788  1.1687  0.0627
  220MOL   H14248760   3.362   2.698   2.254 -3.5516 -2.2877 -0.1938
  220MOL   H14348761   3.211   2.901   2.605 -0.1514  1.5672 -0.0565
  220MOL   H14448762   3.180   3.099   2.470  0.4128  0.0350 -0.0001
  220MOL   C14548763   2.939   3.285   2.198 -0.6127  0.2796  0.4647
  220MOL   C14648764   3.040   3.192   2.205 -0.1500  0.0746 -0.7735
  220MOL   C14748765   3.172   3.228   2.221  0.1158  0.4221 -0.1044
  220MOL   C14848766   3.204   3.363   2.235  0.0079  0.1773 -0.0958
  220MOL   C14948767   3.098   3.456   2.230 -0.0783  0.4829  0.5664
  220MOL   C15048768   2.968   3.421   2.196  0.1762  0.3165  0.6920
  220MOL   O15148769   2.875   3.514   2.204  0.4069 -0.6648 -0.1400
  220MOL   H15248770   2.836   3.254   2.191 -0.5821  0.0913  0.8194
  220MOL   H15348771   3.013   3.087   2.205 -0.3128  0.1039  0.8259
  220MOL   H15448772   3.302   3.406   2.249  0.3155  0.0680 -1.8214
  220MOL   H15548773   3.124   3.560   2.246 -0.9400  0.6190  1.1182
  220MOL   C15648774   2.672   3.547   1.895  0.3794 -0.0284  0.2190
  220MOL   C15748775   2.783   3.560   1.985  0.3710  0.2154  0.4389
  220MOL   C15848776   2.773   3.509   2.114 -0.3360  0.0258  0.4591
  220MOL   C15948777   2.655   3.448   2.156  0.7396  0.6112 -0.1264
  220MOL   C16048778   2.537   3.449   2.076  0.2733  0.4938  0.2483
  220MOL   C16148779   2.551   3.491   1.938  0.0758  0.4926 -0.2016
  220MOL   O16248780   2.445   3.491   1.856 -0.1739 -0.7429  0.2581
  220MOL   H16348781   2.669   3.590   1.796 -0.6958  0.5222  0.4701
  220MOL   H16448782   2.874   3.606   1.952 -0.5645 -0.0701 -2.6672
  220MOL   H16548783   2.639   3.407   2.255  0.4839 -0.7546 -0.7217
  220MOL   H16648784   2.443   3.408   2.107  0.4933  0.1443  0.4512
  220MOL   C16748785   2.162   3.261   1.925 -0.1137  0.2156 -0.5918
  220MOL   C16848786   2.247   3.375   1.929  0.0951  0.6431  0.0993
  220MOL   C16948787   2.367   3.380   1.851  0.0266  0.6405  0.7341
  220MOL   C17048788   2.402   3.270   1.773  0.2876  0.4797  0.0093
  220MOL   C17148789   2.324   3.154   1.765 -0.3899 -0.5386 -0.0987
  220MOL   C17248790   2.200   3.150   1.841 -0.5640  0.2905 -0.1870
  220MOL   O17348791   2.127   3.033   1.847  0.1584  0.5755 -0.3624
  220MOL   H17448792   2.077   3.267   1.992  0.5376  0.1858  0.2473
  220MOL   H17548793   2.226   3.462   1.990 -1.4439  0.4790 -0.1666
  220MOL   H17648794   2.494   3.270   1.716  0.1627  1.0373 -0.1941
  220MOL   H17748795   2.348   3.062   1.714 -1.6180  0.4521 -2.5481
  220MOL   C17848796   1.947   2.812   1.610 -0.0373  0.1909  0.1206
  220MOL   C17948797   2.032   2.857   1.720  0.9148  0.2996 -0.0330
  220MOL   C18048798   2.054   2.996   1.739 -0.3368 -1.4245 -0.4449
  220MOL   C18148799   1.995   3.087   1.651 -0.1453  1.1120  0.1307
  220MOL   C18248800   1.910   3.045   1.550  0.0870 -0.6784 -0.1344
  220MOL   C18348801   1.887   2.907   1.528 -0.3619 -0.1452  0.3843
  220MOL   O18448802   1.809   2.869   1.426 -0.3243  0.2297  0.7115
  220MOL   H18548803   1.926   2.707   1.595  1.4721 -0.1172  0.1512
  220MOL   H18648804   2.069   2.784   1.790 -0.8937 -1.0271 -0.4624
  220MOL   H18748805   2.015   3.192   1.667  2.5633  0.3585  2.1433
  220MOL   H18848806   1.854   3.119   1.495  3.1330  0.8579 -1.2470
  220MOL   C18948807   2.030   2.780   1.137 -0.1657  0.7449 -0.4368
  220MOL   C19048808   1.968   2.782   1.263 -0.4729  0.1646 -0.3088
  220MOL   C19148809   1.862   2.868   1.295  0.7748 -0.1643  0.4045
  220MOL   C19248810   1.821   2.958   1.198  0.8114 -0.6721 -0.1746
  220MOL   C19348811   1.872   2.963   1.068 -0.3748 -0.0909 -0.8223
  220MOL   C19448812   1.977   2.866   1.039  0.5850  0.3062 -0.4226
  220MOL   O19548813   2.030   2.856   0.914  0.2036 -0.3886 -0.0241
  220MOL   H19648814   2.115   2.720   1.109 -0.2214  1.5939 -2.5046
  220MOL   H19748815   2.003   2.705   1.330 -0.2959 -0.6941 -1.3686
  220MOL   H19848816   1.738   3.021   1.225  1.6421  0.1047  0.6180
  220MOL   H19948817   1.839   3.032   0.991 -3.0153 -2.3744 -1.8301
  220MOL   C20048818   2.231   3.145   0.788  0.0401 -0.8814  0.0525
  220MOL   C20148819   2.124   3.053   0.803 -0.7364 -0.0678 -0.3953
  220MOL   C20248820   2.137   2.941   0.892  0.1272  0.0368  0.0815
  220MOL   C20348821   2.255   2.926   0.963 -0.3373  0.3514  0.5334
  220MOL   C20448822   2.370   3.016   0.942 -0.1619 -0.2635  0.4012
  220MOL   C20548823   2.353   3.122   0.848 -0.2347  0.5873  0.6218
  220MOL   O20648824   2.463   3.199   0.810  0.2653  0.0963  0.5766
  220MOL   H20748825   2.213   3.222   0.715 -0.2200 -1.3473 -0.3786
  220MOL   H20848826   2.037   3.076   0.744 -0.3051  1.0622 -0.5960
  220MOL   H20948827   2.282   2.831   1.007  1.3605 -0.4665 -2.1480
  220MOL   H21048828   2.465   2.991   0.987  0.6640  2.2058  0.0999
  220MOL   C21148829   2.477   3.456   1.082 -0.2152 -0.7193  0.2003
  220MOL   C21248830   2.429   3.370   0.980 -0.5576  0.3055 -0.1666
  220MOL   C21348831   2.514   3.278   0.911  0.1851  0.2046  0.1534
  220MOL   C21448832   2.651   3.278   0.933  0.1666 -0.3589  0.7245
  220MOL   C21548833   2.705   3.374   1.024  0.4661 -0.5889  0.7770
  220MOL   C21648834   2.618   3.468   1.087 -0.3357 -0.1037  1.0151
  220MOL   O21748835   2.672   3.561   1.170 -0.3185  0.0996 -0.1593
  220MOL   H21848836   2.415   3.533   1.125 -1.4203 -1.5875  0.0266
  220MOL   H21948837   2.323   3.366   0.960 -0.4800 -0.5141 -0.4541
  220MOL   H22048838   2.704   3.199   0.883 -1.4821 -2.5691  2.3656
  220MOL   H22148839   2.809   3.370   1.054 -0.2097  0.6350  3.4840
  220MOL   H22248840   2.614   3.608   1.227  2.0958  2.0664  0.7505
  221MOL     C148841   6.801   6.190   5.544  0.7233 -0.0777  0.3448
  221MOL     C248842   6.696   6.107   5.495  0.1076 -1.0826  0.5429
  221MOL     C348843   6.599   6.063   5.585  0.3101  0.0368  0.0141
  221MOL     C448844   6.607   6.084   5.723 -0.2621 -0.1535  0.3570
  221MOL     C548845   6.711   6.163   5.773 -0.2303  0.4502 -0.5547
  221MOL     C648846   6.806   6.221   5.683 -0.1431  0.0296 -0.2451
  221MOL     O748847   6.906   6.297   5.741  0.7193 -0.4142  0.1314
  221MOL     H848848   6.881   6.214   5.476 -0.5196  3.0996 -0.0860
  221MOL     H948849   6.681   6.083   5.390 -0.7104  0.6855  0.2223
  221MOL    H1048850   6.533   6.033   5.784 -0.0249 -0.2815  0.5396
  221MOL    H1148851   6.725   6.177   5.879 -2.3105 -3.2353  0.2852
  221MOL    H1248852   6.518   6.010   5.538  1.1527 -1.4753  0.2319
  221MOL    C1348853   6.779   6.632   5.664  0.7827  0.1504 -0.6225
  221MOL    C1448854   6.785   6.493   5.665 -0.1865 -0.5468 -0.0320
  221MOL    C1548855   6.899   6.436   5.723 -0.3047 -0.4607 -0.0312
  221MOL    C1648856   7.005   6.521   5.775 -0.2490 -0.2063  0.5710
  221MOL    C1748857   7.008   6.661   5.760 -0.2784  0.0663 -0.2164
  221MOL    C1848858   6.892   6.716   5.699 -0.1548 -0.2124 -0.2581
  221MOL    O1948859   6.876   6.851   5.684 -0.6582 -0.0595 -0.3686
  221MOL    H2048860   6.695   6.680   5.616 -1.5543 -3.4460 -0.3108
  221MOL    H2148861   6.698   6.436   5.636 -0.0386 -1.1738  0.7329
  221MOL    H2248862   7.098   6.475   5.807  1.0278  1.2671 -0.9506
  221MOL    H2348863   7.101   6.714   5.774  0.9847 -2.3368  0.7511
  221MOL    C2448864   7.150   7.082   5.642  0.0892 -0.3597  0.2710
  221MOL    C2548865   7.061   6.996   5.702 -0.0876 -0.4731  0.2387
  221MOL    C2648866   6.980   6.911   5.623  0.3373 -0.7177  0.4504
  221MOL    C2748867   7.000   6.902   5.482 -0.3436 -0.2696 -0.1020
  221MOL    C2848868   7.100   6.981   5.424 -0.5789 -0.6676 -0.1336
  221MOL    C2948869   7.170   7.077   5.502 -0.0903  0.2709 -0.2454
  221MOL    O3048870   7.273   7.147   5.439 -0.5127 -0.8246  0.2402
  221MOL    H3148871   7.228   7.136   5.694  0.3749  0.2017 -0.7334
  221MOL    H3248872   7.056   7.005   5.809  0.1271  0.7070  0.1542
  221MOL    H3348873   6.945   6.831   5.422 -2.6217  1.3465  0.0501
  221MOL    H3448874   7.116   6.977   5.317 -0.8536 -0.2639 -0.1901
  221MOL    C3548875   7.117   7.374   5.194  0.2835  0.4105 -0.0810
  221MOL    C3648876   7.159   7.255   5.255 -0.3230  0.4234 -0.2086
  221MOL    C3748877   7.228   7.261   5.379  0.3729  0.1019 -0.6293
  221MOL    C3848878   7.258   7.385   5.438  0.4915 -0.2809 -1.3627
  221MOL    C3948879   7.211   7.500   5.376  0.7178  0.1723 -1.0642
  221MOL    C4048880   7.149   7.495   5.250  0.6498  0.0724 -0.6130
  221MOL    O4148881   7.115   7.613   5.185 -0.1601  0.0309 -0.4165
  221MOL    H4248882   7.064   7.362   5.100  3.0852  0.2680 -1.7004
  221MOL    H4348883   7.139   7.164   5.200  0.3216 -1.4825  2.5562
  221MOL    H4448884   7.297   7.391   5.539 -0.6028 -0.8680 -0.8873
  221MOL    H4548885   7.236   7.594   5.423 -0.9048  1.0742 -1.9642
  221MOL    C4648886   6.756   7.664   5.281  0.2070 -0.4139  0.5360
  221MOL    C4748887   6.878   7.602   5.244  0.0733  0.2101  0.1018
  221MOL    C4848888   6.996   7.675   5.224  0.0880  0.4096  0.1779
  221MOL    C4948889   6.995   7.815   5.242 -0.5054  0.1718  1.7507
  221MOL    C5048890   6.875   7.876   5.273 -0.1526 -0.1822 -0.0169
  221MOL    C5148891   6.757   7.803   5.303  0.0325  0.7265  0.0086
  221MOL    O5248892   6.633   7.874   5.308  0.1090 -0.7682  0.2419
  221MOL    H5348893   6.667   7.609   5.306 -0.5042  0.5793  0.2345
  221MOL    H5448894   6.888   7.495   5.239  0.7625  0.1658  2.1683
  221MOL    H5548895   7.080   7.881   5.228  0.3906 -1.4973 -1.2007
  221MOL    H5648896   6.862   7.983   5.269  0.3448 -0.1269 -0.1657
  221MOL    C5748897   6.547   7.873   5.665 -0.1439  0.6946 -0.0953
  221MOL    C5848898   6.620   7.852   5.546 -0.2300  0.3700 -0.6057
  221MOL    C5948899   6.564   7.889   5.425  0.1469 -0.0858  0.4303
  221MOL    C6048900   6.430   7.935   5.416  0.0374  0.0636 -0.1308
  221MOL    C6148901   6.359   7.952   5.536  0.5206 -0.0938 -0.1966
  221MOL    C6248902   6.419   7.931   5.661  0.8445  0.1546 -0.0167
  221MOL    O6348903   6.346   7.949   5.779  0.3866  0.4987 -0.2684
  221MOL    H6448904   6.593   7.832   5.754 -2.1740 -2.2325 -0.3366
  221MOL    H6548905   6.716   7.802   5.552 -0.0538  0.8134  0.3831
  221MOL    H6648906   6.385   7.965   5.322  0.8373 -2.1123 -1.2218
  221MOL    H6748907   6.255   7.979   5.540  0.2711 -0.8486 -1.3185
  221MOL    C6848908   6.464   0.010   5.927  0.0566  0.3166 -0.4091
  221MOL    C6948909   6.397   8.176   5.840 -0.1830 -0.2435 -0.0428
  221MOL    C7048910   6.399   8.037   5.868 -0.1582 -0.1036 -0.2426
  221MOL    C7148911   6.462   7.995   5.988  0.4219  0.2606 -0.0313
  221MOL    C7248912   6.524   8.078   6.075  0.6386 -0.1220  0.9275
  221MOL    C7348913   6.533   8.217   6.040  0.3874 -0.2567  0.0897
  221MOL    O7448914   6.582   0.051   6.133  0.1236  0.5801 -0.4952
  221MOL    H7548915   6.452   0.116   5.914 -0.0563 -0.0125 -3.2565
  221MOL    H7648916   6.346   8.216   5.753 -1.1547 -0.1119  0.5767
  221MOL    H7748917   6.466   7.888   6.006  2.0871  0.4426  0.7244
  221MOL    H7848918   6.558   8.047   6.173 -1.6285  0.9278  2.1072
  221MOL    C7948919   6.845   0.248   5.969 -0.1825 -0.2759  0.0423
  221MOL    C8048920   6.717   0.204   6.009 -0.1373  0.5384 -0.8452
  221MOL    C8148921   6.709   0.093   6.098 -0.0637  0.1326  0.2176
  221MOL    C8248922   6.827   0.022   6.136 -0.3223  0.7341 -0.3186
  221MOL    C8348923   6.953   0.063   6.092 -0.7128  0.0500  0.0468
  221MOL    C8448924   6.959   0.171   6.005  0.0209 -0.0301  0.8874
  221MOL    O8548925   7.082   0.217   5.960 -0.2156  0.3451 -0.0663
  221MOL    H8648926   6.853   0.341   5.914  0.0624  0.4400  1.2827
  221MOL    H8748927   6.626   0.255   5.983  0.1629  0.8316 -1.3355
  221MOL    H8848928   6.806   8.195   6.205 -0.4638 -0.2233 -1.4773
  221MOL    H8948929   7.038   0.003   6.120  0.4496  1.5206 -0.2975
  221MOL    C9048930   7.212   0.557   6.058  0.2968  0.3045  0.2507
  221MOL    C9148931   7.147   0.450   5.988  0.3880  0.3463  0.5654
  221MOL    C9248932   7.149   0.315   6.033 -0.0108 -0.9323 -0.3250
  221MOL    C9348933   7.227   0.289   6.148 -0.1725  0.0383  0.7304
  221MOL    C9448934   7.307   0.387   6.209 -0.5246  0.0959 -0.5119
  221MOL    C9548935   7.298   0.522   6.166  0.2640  0.2627 -0.5403
  221MOL    O9648936   7.371   0.617   6.244  0.3281 -0.5380  0.0285
  221MOL    H9748937   7.208   0.659   6.023 -0.3033  0.4655  0.7754
  221MOL    H9848938   7.087   0.458   5.898 -0.8279 -0.6892  1.2609
  221MOL    H9948939   7.224   0.189   6.188 -1.6521 -0.4826 -0.6173
  221MOL   H10048940   7.374   0.360   6.289  2.1194 -0.0668 -2.7166
  221MOL   C10148941   7.160   0.812   6.465  0.6950  0.0607 -0.7318
  221MOL   C10248942   7.210   0.760   6.349  0.6680 -0.3140 -0.6452
  221MOL   C10348943   7.306   0.655   6.354  0.0078 -0.2937 -0.1559
  221MOL   C10448944   7.345   0.604   6.477 -0.1319  0.4052 -0.4764
  221MOL   C10548945   7.295   0.660   6.595 -0.3448 -0.0517  0.3139
  221MOL   C10648946   7.202   0.760   6.591 -0.7891  0.6245 -0.2223
  221MOL   O10748947   7.164   0.819   6.710 -0.1122  0.1963  0.3934
  221MOL   H10848948   7.095   0.898   6.461  2.2584  1.4337  2.0690
  221MOL   H10948949   7.187   0.811   6.257 -3.2734 -1.1125 -0.1912
  221MOL   H11048950   7.405   0.514   6.477 -1.7637 -0.6898 -0.8322
  221MOL   H11148951   7.324   0.614   6.688  3.9759 -0.4388 -1.0887
  221MOL   C11248952   7.363   1.129   6.721 -0.8773 -0.9205 -0.9240
  221MOL   C11348953   7.331   1.000   6.694 -0.4087  0.3327  0.5053
  221MOL   C11448954   7.198   0.952   6.720  0.0295  1.1697  0.2173
  221MOL   C11548955   7.101   1.045   6.758 -0.9599  0.5375 -0.5200
  221MOL   C11648956   7.135   1.183   6.777 -0.5128  0.3396 -0.3328
  221MOL   C11748957   7.268   1.225   6.758  0.2061 -1.0190  0.4129
  221MOL   O11848958   7.306   1.358   6.753  0.7086  0.5657  0.0473
  221MOL   H11948959   7.465   1.163   6.709 -0.8203  0.4521  2.9419
  221MOL   H12048960   7.400   0.927   6.656  0.2115  0.7875  0.7468
  221MOL   H12148961   7.004   0.998   6.757  0.2379 -2.0513 -2.4942
  221MOL   H12248962   7.052   1.245   6.810 -0.6348 -0.2843  0.5393
  221MOL   C12348963   7.194   1.635   6.980 -0.0699  0.1985  0.4490
  221MOL   C12448964   7.225   1.562   6.862  0.0608  0.3387 -0.3293
  221MOL   C12548965   7.272   1.427   6.867  0.4391 -0.5734  0.0097
  221MOL   C12648966   7.288   1.376   7.001  0.8214  0.3227 -0.0848
  221MOL   C12748967   7.264   1.453   7.116  0.8276  0.6414 -0.2158
  221MOL   C12848968   7.208   1.581   7.107  0.1900 -0.5839  0.0677
  221MOL   O12948969   7.147   1.652   7.210 -0.0670 -0.5397  0.5850
  221MOL   H13048970   7.139   1.727   6.971 -0.0832 -0.1346 -3.7471
  221MOL   H13148971   7.195   1.603   6.767 -0.6332  0.3611 -0.1028
  221MOL   H13248972   7.325   1.275   7.013  1.4456  0.4417 -0.9286
  221MOL   H13348973   7.254   1.404   7.211  1.5833  0.9726  0.0403
  221MOL   C13448974   7.256   1.523   7.532 -0.1211 -0.5505 -0.9986
  221MOL   C13548975   7.260   1.573   7.401  0.2472 -0.0304 -0.1123
  221MOL   C13648976   7.141   1.600   7.336 -0.0090  0.4787  0.3103
  221MOL   C13748977   7.016   1.570   7.397  0.7447  0.2866  0.3414
  221MOL   C13848978   7.015   1.524   7.525  0.6289 -0.2904  0.2556
  221MOL   C13948979   7.135   1.504   7.593 -1.0352  0.2679 -0.3576
  221MOL   O14048980   7.124   1.466   7.723 -0.2310  0.0905 -0.4739
  221MOL   H14148981   7.347   1.512   7.589 -0.6368 -0.9545 -0.2472
  221MOL   H14248982   7.351   1.601   7.351 -0.4142  3.1222  0.3920
  221MOL   H14348983   6.924   1.595   7.347  1.8232 -0.5568 -2.1469
  221MOL   H14448984   6.924   1.514   7.582  1.3671  4.7525  2.6438
  221MOL   C14548985   7.273   1.703   7.975  0.9693 -0.6221 -0.0853
  221MOL   C14648986   7.183   1.649   7.881 -0.1705  0.0441  0.3636
  221MOL   C14748987   7.206   1.521   7.824 -0.0900 -0.1853 -0.3328
  221MOL   C14848988   7.318   1.447   7.865 -0.4236 -0.0138  1.0818
  221MOL   C14948989   7.413   1.498   7.964  0.8667  0.0503 -0.9009
  221MOL   C15048990   7.382   1.625   8.019  0.3043 -0.4753  0.1673
  221MOL   O15148991   7.461   1.673   8.116  0.4079  0.1984 -0.7363
  221MOL   H15248992   7.262   1.802   8.019  0.4682  0.0982 -1.8011
  221MOL   H15348993   7.103   1.707   7.839 -0.1878 -0.0203  0.3078
  221MOL   H15448994   7.330   1.352   7.814 -1.1738  0.3805  0.1557
  221MOL   H15548995   7.501   1.441   7.992  0.7619  0.7248  0.8079
  221MOL   C15648996   7.310   1.537   0.167 -0.3151 -0.2274 -0.0412
  221MOL   C15748997   7.363   1.545   0.039  0.5500 -0.0281 -0.3957
  221MOL   C15848998   7.398   1.669   8.239 -1.0525 -0.5385 -0.0654
  221MOL   C15948999   7.370   1.791   0.057 -0.4916  0.0137  0.7708
  221MOL   C16049000   7.312   1.785   0.185  0.4701 -0.5560 -0.1702
  221MOL   C16149001   7.288   1.657   0.242  0.3036 -0.2357 -0.1346
  221MOL   O16249002   7.233   1.657   0.365  0.1843 -0.4374 -0.0788
  221MOL   H16349003   7.282   1.446   0.217  1.1281 -1.2206 -1.0036
  221MOL   H16449004   7.394   1.453   8.244  1.6328  1.0230 -1.7082
  221MOL   H16549005   7.402   1.889   0.024 -1.5936  0.7543  1.8645
  221MOL   H16649006   7.290   1.876   0.239  1.9169  0.6791 -1.6126
  221MOL   C16749007   6.889   1.527   0.320 -0.6967 -0.1523  0.1553
  221MOL   C16849008   7.015   1.586   0.289 -0.1967 -0.5427  0.5637
  221MOL   C16949009   7.115   1.594   0.386 -0.8823 -0.5110  0.9912
  221MOL   C17049010   7.086   1.556   0.515 -0.5569 -0.0167 -0.0542
  221MOL   C17149011   6.965   1.488   0.548  0.1519 -0.6747  0.2336
  221MOL   C17249012   6.864   1.473   0.447 -0.6510  0.0638  0.0640
  221MOL   O17349013   6.747   1.422   0.480 -0.3300  0.0692  0.3581
  221MOL   H17449014   6.812   1.507   0.247  1.6417 -3.0751 -1.6252
  221MOL   H17549015   7.039   1.619   0.188 -0.2787 -0.2141  0.6525
  221MOL   H17649016   7.154   1.583   0.594 -1.8814  0.2125  1.0457
  221MOL   H17749017   6.949   1.474   0.654  2.8767  0.6229  0.8619
  221MOL   C17849018   6.578   1.519   0.786  0.1403 -0.0757 -0.5385
  221MOL   C17949019   6.645   1.443   0.687 -0.5046  0.6687  0.2754
  221MOL   C18049020   6.673   1.497   0.565  0.2726 -0.1993  0.3495
  221MOL   C18149021   6.634   1.630   0.533  0.5723  0.0602 -0.0527
  221MOL   C18249022   6.562   1.701   0.629 -0.2801  0.0839 -0.0294
  221MOL   C18349023   6.539   1.648   0.755 -0.0322 -0.3788  0.0688
  221MOL   O18449024   6.486   1.741   0.849 -0.0119 -0.0553 -0.1708
  221MOL   H18549025   6.555   1.481   0.885  0.0081  1.2778 -0.0392
  221MOL   H18649026   6.683   1.345   0.709 -0.7897  0.2396 -1.1075
  221MOL   H18749027   6.655   1.679   0.439 -1.2268  1.9741  0.4853
  221MOL   H18849028   6.525   1.802   0.617 -0.7093 -0.0426  0.2035
  221MOL   C18949029   6.642   1.744   1.183  0.1458 -0.2241  0.0156
  221MOL   C19049030   6.584   1.693   1.066  0.2999  0.8015 -0.2937
  221MOL   C19149031   6.551   1.780   0.964 -0.3790 -0.2181  0.8538
  221MOL   C19249032   6.586   1.919   0.973  0.3188  0.2992 -0.1360
  221MOL   C19349033   6.638   1.971   1.089 -0.1275 -0.5788  0.7554
  221MOL   C19449034   6.671   1.887   1.196 -0.0199  1.2918 -0.3170
  221MOL   O19549035   6.728   1.947   1.307 -0.1028  0.0599 -0.3190
  221MOL   H19649036   6.676   1.679   1.262  0.8222  0.4961  0.3247
  221MOL   H19749037   6.562   1.588   1.051 -0.9948  0.9237  0.6561
  221MOL   H19849038   6.568   1.982   0.887 -0.4035 -0.3556 -0.4730
  221MOL   H19949039   6.666   2.075   1.087  2.5241 -1.2983 -1.7594
  221MOL   C20049040   6.823   1.695   1.570 -0.8964  0.7322  0.6249
  221MOL   C20149041   6.831   1.787   1.457  0.2697  0.6568 -0.4205
  221MOL   C20249042   6.726   1.874   1.427 -0.3844  0.0847  0.3878
  221MOL   C20349043   6.610   1.875   1.507  0.6198  0.1432  0.7662
  221MOL   C20449044   6.616   1.811   1.633 -0.5065 -0.3315  0.5946
  221MOL   C20549045   6.716   1.715   1.659  0.1778  0.1913 -0.0667
  221MOL   O20649046   6.709   1.627   1.766  0.2124  0.0492  0.0470
  221MOL   H20749047   6.907   1.629   1.589  2.1078  4.7703  1.9745
  221MOL   H20849048   6.918   1.784   1.393  2.6777 -0.8254  2.7751
  221MOL   H20949049   6.533   1.946   1.477  0.3007  0.9668  3.4385
  221MOL   H21049050   6.529   1.821   1.696  0.3837  0.0383  1.7702
  221MOL   C21149051   6.690   1.689   2.123 -0.3515 -0.5847 -0.2665
  221MOL   C21249052   6.659   1.645   1.991 -0.1191 -0.1724 -0.9503
  221MOL   C21349053   6.751   1.669   1.893 -0.4682  0.1204  0.6567
  221MOL   C21449054   6.871   1.735   1.916  0.6127 -0.0165  0.3710
  221MOL   C21549055   6.902   1.775   2.051  0.0242  0.3490  0.8410
  221MOL   C21649056   6.810   1.755   2.155  0.4356  0.2577 -0.5435
  221MOL   O21749057   6.833   1.810   2.284 -0.2280 -0.1927  0.1209
  221MOL   H21849058   6.618   1.668   2.200  1.1722 -0.1065  1.3170
  221MOL   H21949059   6.566   1.596   1.962 -0.4803  0.8011 -1.4636
  221MOL   H22049060   6.941   1.752   1.835 -0.5604  0.7377 -0.5083
  221MOL   H22149061   6.998   1.819   2.072  1.7336 -2.2368 -1.2580
  221MOL   H22249062   6.763   1.799   2.347  0.5135  2.3013  1.4370
  222MOL     C149063   6.295   4.742   5.942 -1.2832  0.1427  0.5368
  222MOL     C249064   6.422   4.774   5.885 -0.2728  0.4163  0.5806
  222MOL     C349065   6.497   4.874   5.958  0.1145 -0.3472  0.7249
  222MOL     C449066   6.444   4.946   6.065  0.9931 -0.0899  0.0879
  222MOL     C549067   6.315   4.911   6.119 -0.0184 -0.2173 -0.0628
  222MOL     C649068   6.244   4.815   6.050 -0.0685 -0.2305  0.3042
  222MOL     O749069   6.118   4.805   6.091  0.1775  0.3066 -0.3818
  222MOL     H849070   6.234   4.671   5.888  2.5983 -3.8174  1.0836
  222MOL     H949071   6.453   4.715   5.800 -0.0431  0.7128  0.4580
  222MOL    H1049072   6.499   5.016   6.126  1.4308 -0.0803 -0.3156
  222MOL    H1149073   6.271   4.944   6.212 -1.5025 -3.9984  0.6436
  222MOL    H1249074   6.597   4.897   5.924  0.6574 -0.1183  2.4296
  222MOL    C1349075   6.110   4.515   6.315  0.4440 -0.2700 -0.3573
  222MOL    C1449076   6.165   4.618   6.244 -0.0113  0.2266 -0.1267
  222MOL    C1549077   6.078   4.708   6.182  0.5981  0.4480  0.3935
  222MOL    C1649078   5.938   4.698   6.193  0.3841 -0.6270 -0.2445
  222MOL    C1749079   5.881   4.604   6.279 -0.7788 -0.4839  0.5519
  222MOL    C1849080   5.971   4.513   6.337  0.4031 -0.1442 -0.0908
  222MOL    O1949081   5.923   4.405   6.411  0.1457 -0.2364 -0.4729
  222MOL    H2049082   6.188   4.459   6.364  2.9459  2.1736 -1.3798
  222MOL    H2149083   6.273   4.616   6.237 -0.0644 -2.3334 -0.8892
  222MOL    H2249084   5.880   4.768   6.136 -2.6108 -1.0563  2.1734
  222MOL    H2349085   5.775   4.608   6.297 -1.0649 -0.0820 -1.1040
  222MOL    C2449086   5.733   4.172   6.201  0.4492  0.0091 -0.6109
  222MOL    C2549087   5.835   4.263   6.240  0.4002 -0.6050 -0.1069
  222MOL    C2649088   5.825   4.322   6.369 -1.0015 -0.1769  0.6799
  222MOL    C2749089   5.713   4.300   6.448 -0.1150 -0.0963  0.8908
  222MOL    C2849090   5.612   4.205   6.409 -0.1552 -0.2949 -0.0780
  222MOL    C2949091   5.625   4.134   6.286  0.3344 -0.6377  0.2156
  222MOL    O3049092   5.529   4.031   6.264  0.0199  0.7498 -0.6616
  222MOL    H3149093   5.744   4.119   6.108 -1.4433 -0.4015 -0.6240
  222MOL    H3249094   5.918   4.275   6.172  1.1923  0.8329  1.0786
  222MOL    H3349095   5.709   4.341   6.547  1.8919  1.6313  0.2994
  222MOL    H3449096   5.531   4.179   6.476  1.0613 -2.7673  0.4689
  222MOL    C3549097   5.437   3.915   5.927  0.4358 -0.6104  0.3793
  222MOL    C3649098   5.427   3.985   6.048 -0.0208 -0.1017 -0.0797
  222MOL    C3749099   5.520   3.955   6.148  0.0126  0.7861 -1.2557
  222MOL    C3849100   5.616   3.852   6.132  0.3590  0.2482  0.3669
  222MOL    C3949101   5.628   3.788   6.005  0.0309 -0.5002 -0.3786
  222MOL    C4049102   5.535   3.818   5.905  0.9456  0.5912 -0.6079
  222MOL    O4149103   5.545   3.753   5.789 -0.1429 -0.1743 -0.2206
  222MOL    H4249104   5.369   3.932   5.844  0.9362  2.1863  0.4837
  222MOL    H4349105   5.348   4.056   6.067 -0.7581 -0.8947 -0.1396
  222MOL    H4449106   5.681   3.815   6.211  0.1085 -0.6470  0.1584
  222MOL    H4549107   5.707   3.716   5.988  1.2515  0.9342 -0.8911
  222MOL    C4649108   5.562   3.999   5.525  0.2199  0.1721  0.1547
  222MOL    C4749109   5.596   3.933   5.641  0.7690 -0.0338  0.4545
  222MOL    C4849110   5.526   3.814   5.673  1.4697 -0.1874  0.8188
  222MOL    C4949111   5.433   3.758   5.584 -0.7509 -0.3711 -0.1759
  222MOL    C5049112   5.415   3.820   5.453 -0.2251  0.1903 -0.2658
  222MOL    C5149113   5.476   3.944   5.429  0.6073 -0.5921 -0.1404
  222MOL    O5249114   5.459   4.002   5.306  0.1275  0.0239  0.8344
  222MOL    H5349115   5.615   4.093   5.517  0.7444 -0.0016  1.4855
  222MOL    H5449116   5.665   3.967   5.718  1.6154 -1.2057  0.2300
  222MOL    H5549117   5.388   3.664   5.614 -1.2765  0.4127  1.5762
  222MOL    H5649118   5.355   3.769   5.378 -0.4103  0.4044 -0.2635
  222MOL    C5749119   5.624   4.300   5.161  0.3025  0.5410 -0.5950
  222MOL    C5849120   5.523   4.208   5.207  0.2141 -0.0025  0.9395
  222MOL    C5949121   5.559   4.074   5.237 -0.0158 -0.5829 -0.9614
  222MOL    C6049122   5.692   4.021   5.215  0.1044 -0.1210 -0.1952
  222MOL    C6149123   5.786   4.107   5.154 -0.3503  0.1493  0.3750
  222MOL    C6249124   5.755   4.244   5.138 -0.2674 -0.2999  0.4811
  222MOL    O6349125   5.860   4.328   5.096  0.3728 -0.1149  0.7126
  222MOL    H6449126   5.596   4.402   5.139  0.9192  0.6388 -0.9547
  222MOL    H6549127   5.426   4.255   5.207  0.5369  0.6724  1.3536
  222MOL    H6649128   5.718   3.917   5.230  3.4373  0.5896 -0.5026
  222MOL    H6749129   5.885   4.073   5.125  0.1256  2.5939 -1.0046
  222MOL    C6849130   5.834   4.666   5.239  0.7596 -0.0738  0.3213
  222MOL    C6949131   5.846   4.526   5.237 -0.6397 -0.1031 -0.4494
  222MOL    C7049132   5.850   4.467   5.111  0.0154  0.1116 -0.2613
  222MOL    C7149133   5.831   4.545   4.997  0.3210 -0.2768  0.2940
  222MOL    C7249134   5.824   4.688   5.001 -0.0994 -0.0521  0.1567
  222MOL    C7349135   5.823   4.750   5.128 -0.6838  0.1724  0.0489
  222MOL    O7449136   5.805   4.887   5.141  0.0303  0.1109  0.3260
  222MOL    H7549137   5.831   4.708   5.338  0.4840 -3.3341  1.7589
  222MOL    H7649138   5.846   4.474   5.332  1.7449  0.6713  0.0017
  222MOL    H7749139   5.817   4.497   4.901  0.8997 -1.9276  1.0244
  222MOL    H7849140   5.821   4.748   4.911 -1.8116  1.2550  1.0637
  222MOL    C7949141   6.126   5.045   5.048 -0.1489  0.3004 -0.8607
  222MOL    C8049142   6.033   4.942   5.072 -0.0140 -0.3240 -0.2849
  222MOL    C8149143   5.900   4.979   5.103  0.4806  0.4006 -0.5734
  222MOL    C8249144   5.861   5.116   5.096 -0.2822 -0.4975  0.5661
  222MOL    C8349145   5.952   5.220   5.068  0.3877  0.1054  0.6166
  222MOL    C8449146   6.087   5.177   5.059 -0.0846 -0.3376 -0.5914
  222MOL    O8549147   6.187   5.273   5.065  0.6753  0.0803 -0.3326
  222MOL    H8649148   6.231   5.020   5.040  0.2860  2.2200 -1.4790
  222MOL    H8749149   6.060   4.838   5.077  0.6150 -0.2477 -1.7178
  222MOL    H8849150   5.763   5.146   5.130  1.4350  2.3784  3.3311
  222MOL    H8949151   5.917   5.322   5.065 -0.6055 -0.2369  0.2857
  222MOL    C9049152   6.221   5.343   5.427 -0.3752 -0.1247 -0.3157
  222MOL    C9149153   6.161   5.308   5.308  0.2293 -0.7171  0.0229
  222MOL    C9249154   6.237   5.318   5.187  0.2295  0.0085  0.0646
  222MOL    C9349155   6.370   5.359   5.184  0.5570  0.0957  0.0618
  222MOL    C9449156   6.428   5.396   5.306  0.1563  0.1751 -0.0367
  222MOL    C9549157   6.356   5.394   5.430  0.0155  0.3120 -0.0425
  222MOL    O9649158   6.425   5.431   5.546  0.3858 -0.0699 -0.4287
  222MOL    H9749159   6.161   5.333   5.516 -0.2661 -3.0095 -0.5276
  222MOL    H9849160   6.062   5.264   5.307 -0.3695  0.5878  1.1149
  222MOL    H9949161   6.421   5.350   5.089 -0.6797  1.1597 -0.7249
  222MOL   H10049162   6.527   5.439   5.316 -0.2652  1.0373  0.5695
  222MOL   C10149163   6.212   5.396   5.839  0.3271  0.1724 -0.8460
  222MOL   C10249164   6.272   5.452   5.725  0.0095 -0.4659 -0.1185
  222MOL   C10349165   6.380   5.387   5.666 -0.4048 -0.3812 -0.8362
  222MOL   C10449166   6.443   5.278   5.730 -0.0652  0.1739 -0.7206
  222MOL   C10549167   6.390   5.228   5.854  0.5586  0.1183 -0.3050
  222MOL   C10649168   6.276   5.292   5.908 -0.6452 -0.3194 -0.5097
  222MOL   O10749169   6.217   5.240   6.028 -0.2702 -0.6702 -0.2501
  222MOL   H10849170   6.120   5.439   5.876  0.7245  1.5981 -1.4683
  222MOL   H10949171   6.223   5.531   5.671  0.2537 -0.0198  0.3153
  222MOL   H11049172   6.532   5.229   5.694 -1.0460 -1.9509 -0.3352
  222MOL   H11149173   6.443   5.148   5.903 -0.8257 -0.4973  0.2103
  222MOL   C11249174   5.854   5.285   6.080  0.1304  0.9252  0.2661
  222MOL   C11349175   5.988   5.319   6.069  0.2073  0.6571 -0.0094
  222MOL   C11449176   6.079   5.221   6.031  0.3011  0.8567 -0.1666
  222MOL   C11549177   6.028   5.097   5.986 -0.8799  0.3342  0.2100
  222MOL   C11649178   5.895   5.067   5.982 -0.6718 -0.6843  0.1738
  222MOL   C11749179   5.806   5.160   6.040  0.8434 -0.1507  0.2626
  222MOL   O11849180   5.670   5.138   6.058  0.1326 -0.0145  0.3044
  222MOL   H11949181   5.784   5.355   6.123 -0.6067 -0.2974  1.0560
  222MOL   H12049182   6.019   5.418   6.100  0.5183  0.2341  1.0520
  222MOL   H12149183   6.100   5.028   5.944 -1.3354  0.5332 -0.9300
  222MOL   H12249184   5.852   4.977   5.942 -1.7194  0.2449 -0.8236
  222MOL   C12349185   5.614   4.866   6.306 -0.2971  0.4406  0.6598
  222MOL   C12449186   5.671   4.981   6.246 -0.5687  0.0269 -0.5387
  222MOL   C12549187   5.626   5.020   6.113 -0.0979 -0.4917 -0.0136
  222MOL   C12649188   5.542   4.932   6.043  0.1224 -0.5752  0.0712
  222MOL   C12749189   5.494   4.814   6.101 -1.0695  0.4756  0.1611
  222MOL   C12849190   5.528   4.777   6.230 -0.1288  0.0485 -0.3369
  222MOL   O12949191   5.473   4.659   6.281  0.0718 -0.5374 -0.1919
  222MOL   H13049192   5.644   4.836   6.406 -0.9256 -1.8772  0.1838
  222MOL   H13149193   5.740   5.041   6.303  2.4046 -2.4044 -1.4789
  222MOL   H13249194   5.515   4.961   5.942  1.6766  0.7582  0.0342
  222MOL   H13349195   5.432   4.742   6.051  2.2716 -3.0560  0.8010
  222MOL   C13449196   5.426   4.501   6.607 -0.3543  0.1070 -0.1831
  222MOL   C13549197   5.464   4.519   6.469  0.8821 -0.2351 -0.1006
  222MOL   C13649198   5.442   4.647   6.416 -0.0544 -0.7044  0.0194
  222MOL   C13749199   5.386   4.755   6.489  0.7596  0.6406 -0.6614
  222MOL   C13849200   5.353   4.733   6.627  0.3145 -0.5365 -0.4689
  222MOL   C13949201   5.375   4.612   6.685  0.2719 -0.5321 -0.4346
  222MOL   O14049202   5.349   4.594   6.817 -0.3256  0.5791 -0.3946
  222MOL   H14149203   5.439   4.408   6.661 -3.3522  1.1935  2.5860
  222MOL   H14249204   5.495   4.437   6.406  1.1965 -0.2260  0.0392
  222MOL   H14349205   5.364   4.853   6.448 -0.0049  1.0311  0.6378
  222MOL   H14449206   5.311   4.819   6.678  0.0614 -0.7039 -0.3956
  222MOL   C14549207   5.116   4.811   6.999 -0.2285 -0.6680 -0.4502
  222MOL   C14649208   5.240   4.746   6.955  0.3401 -0.3291 -0.6966
  222MOL   C14749209   5.233   4.636   6.869  0.2404  0.2947 -0.4418
  222MOL   C14849210   5.110   4.572   6.840 -0.2096 -0.7100  0.6358
  222MOL   C14949211   4.995   4.629   6.898  1.0500 -0.0590  0.1322
  222MOL   C15049212   4.993   4.750   6.976  0.6173  0.1428 -1.2055
  222MOL   O15149213   4.877   4.813   7.017 -0.5411 -0.4626  0.1259
  222MOL   H15249214   5.133   4.907   7.045  0.6329 -0.5531 -0.9947
  222MOL   H15349215   5.337   4.781   6.989  0.7417 -2.6986  0.7207
  222MOL   H15449216   5.112   4.492   6.767  1.7386 -0.2246  0.1282
  222MOL   H15549217   4.903   4.578   6.873  0.2616  0.2115  2.3335
  222MOL   C15649218   4.565   4.618   7.046 -0.6299  0.1634  0.5825
  222MOL   C15749219   4.687   4.681   7.081 -0.4551  0.1753  0.2122
  222MOL   C15849220   4.758   4.760   6.989  0.0439 -0.1992 -0.1963
  222MOL   C15949221   4.705   4.784   6.865 -0.0995 -0.2843  0.4138
  222MOL   C16049222   4.578   4.737   6.833 -0.7523  0.2465 -0.6403
  222MOL   C16149223   4.506   4.657   6.924 -0.3128  0.2204 -0.0264
  222MOL   O16249224   4.379   4.617   6.896  0.5137  0.4208  0.0911
  222MOL   H16349225   4.512   4.553   7.114 -0.0702 -0.3090  0.5766
  222MOL   H16449226   4.728   4.657   7.177  0.1517  1.8598  0.3997
  222MOL   H16549227   4.755   4.853   6.799  0.9837  1.4731  3.0289
  222MOL   H16649228   4.526   4.754   6.740 -0.2053 -2.3093 -1.4666
  222MOL   C16749229   4.222   4.449   6.607  0.6311  0.3247 -0.7687
  222MOL   C16849230   4.264   4.555   6.695  0.2430 -0.6739 -0.4861
  222MOL   C16949231   4.356   4.527   6.798  0.4403 -0.3038  0.3336
  222MOL   C17049232   4.406   4.394   6.808  0.5905  0.5349 -0.0620
  222MOL   C17149233   4.382   4.298   6.706  0.0333  0.2591  0.3264
  222MOL   C17249234   4.287   4.326   6.606  0.1715 -0.1243 -0.9485
  222MOL   O17349235   4.249   4.228   6.520  0.3313  0.1336  0.4776
  222MOL   H17449236   4.146   4.471   6.532 -1.0047  1.6083  1.2027
  222MOL   H17549237   4.233   4.659   6.690 -0.5021 -0.7920  1.4650
  222MOL   H17649238   4.462   4.369   6.897  0.4560  1.0048  0.1601
  222MOL   H17749239   4.421   4.197   6.706 -0.3137  0.0877  2.7893
  222MOL   C17849240   4.461   4.261   6.215 -0.0186  0.5819 -0.1047
  222MOL   C17949241   4.420   4.285   6.350  0.3930 -0.2250 -0.2226
  222MOL   C18049242   4.303   4.215   6.396 -0.2704 -0.0050 -0.2210
  222MOL   C18149243   4.238   4.134   6.308 -0.5758  0.7291  0.6438
  222MOL   C18249244   4.279   4.103   6.182  0.5362  0.3519  0.4642
  222MOL   C18349245   4.395   4.170   6.127 -0.5599 -0.5678 -0.2211
  222MOL   O18449246   4.430   4.150   5.998 -0.1590 -0.3550  0.7772
  222MOL   H18549247   4.548   4.314   6.177  0.2041  0.6440  0.4771
  222MOL   H18649248   4.470   4.353   6.417 -0.4035  0.0144  0.1391
  222MOL   H18749249   4.150   4.085   6.347 -1.7604  1.3215 -1.2058
  222MOL   H18849250   4.211   4.037   6.129 -0.7548 -0.4540  3.0665
  222MOL   C18949251   4.368   3.818   5.857 -0.5142 -0.3962 -1.3196
  222MOL   C19049252   4.342   3.953   5.894 -0.1265  0.4108  0.3521
  222MOL   C19149253   4.447   4.024   5.953  0.0236  0.5585 -0.3235
  222MOL   C19249254   4.576   3.976   5.958 -0.5344 -0.0104 -0.7592
  222MOL   C19349255   4.604   3.846   5.906 -0.1890 -0.2522  0.5172
  222MOL   C19449256   4.497   3.764   5.861  0.7209 -0.3654  0.2810
  222MOL   O19549257   4.523   3.641   5.818 -0.5273 -0.1647  0.0309
  222MOL   H19649258   4.297   3.757   5.803 -1.8203  1.3647 -1.6419
  222MOL   H19749259   4.240   3.989   5.892 -0.9740 -1.7382  2.4367
  222MOL   H19849260   4.655   4.039   5.997 -0.9891  0.3546 -0.4113
  222MOL   H19949261   4.705   3.808   5.911  0.3846  1.0555 -0.6575
  222MOL   C20049262   4.715   3.471   6.083 -0.3857 -1.0244  0.7557
  222MOL   C20149263   4.616   3.552   6.029  0.5384 -0.3579 -0.0052
  222MOL   C20249264   4.618   3.566   5.885  0.1474  0.1809  0.8698
  222MOL   C20349265   4.720   3.503   5.804  0.0803  0.0190  0.3485
  222MOL   C20449266   4.816   3.429   5.869 -0.4937  0.3642  1.5709
  222MOL   C20549267   4.816   3.419   6.005 -0.2199  0.5231 -0.8603
  222MOL   O20649268   4.911   3.349   6.068  0.0209  0.3481 -0.1992
  222MOL   H20749269   4.724   3.452   6.189 -3.2341  1.1279  1.4169
  222MOL   H20849270   4.544   3.605   6.091 -0.9242 -2.4666  0.1465
  222MOL   H20949271   4.709   3.517   5.698  0.3665  0.5269  0.3836
  222MOL   H21049272   4.881   3.371   5.805 -0.2339  0.6911  1.5373
  222MOL   C21149273   4.847   2.994   6.144 -0.3963  0.4291 -0.0051
  222MOL   C21249274   4.848   3.129   6.158 -0.3434 -0.2628 -0.1104
  222MOL   C21349275   4.902   3.212   6.058  0.4084  0.3793  0.2589
  222MOL   C21449276   4.966   3.159   5.948  0.0359 -0.5259 -0.1500
  222MOL   C21549277   4.978   3.017   5.945  0.4155 -0.2357  0.8978
  222MOL   C21649278   4.919   2.933   6.040  0.3018 -0.3436 -0.4846
  222MOL   O21749279   4.940   2.796   6.045 -0.2855  0.2438 -0.3314
  222MOL   H21849280   4.790   2.932   6.213  1.4944  0.9291  2.0902
  222MOL   H21949281   4.797   3.181   6.238  1.7961 -0.8532  1.6892
  222MOL   H22049282   5.012   3.221   5.871 -0.6800  1.5802  1.0827
  222MOL   H22149283   5.029   2.972   5.861  1.5243  1.4056  0.6821
  222MOL   H22249284   4.971   2.756   5.965  0.9096  1.4025 -0.4688
  223MOL     C149285   7.259   4.871   7.299 -0.1634 -0.3440 -0.3919
  223MOL     C249286   7.280   4.784   7.196  0.1142  0.3320  1.1812
  223MOL     C349287   7.290   4.834   7.062 -0.2916 -0.1866 -0.1824
  223MOL     C449288   7.280   4.971   7.037  0.3112  0.2221  0.1395
  223MOL     C549289   7.256   5.060   7.143  0.0420 -0.7796 -0.1399
  223MOL     C649290   7.240   5.008   7.272  0.3722 -0.6562  0.2808
  223MOL     O749291   7.197   5.090   7.374 -0.2723  0.6451  0.1961
  223MOL     H849292   7.246   4.823   7.395  0.8710  0.0080 -0.0687
  223MOL     H949293   7.276   4.679   7.220  2.7635  0.5922  2.9147
  223MOL    H1049294   7.278   4.999   6.933  0.0010 -1.6511 -0.3792
  223MOL    H1149295   7.227   5.163   7.126 -0.1722 -0.9766 -1.0167
  223MOL    H1249296   7.304   4.762   6.983  1.4688  0.4725 -0.5033
  223MOL    C1349297   7.416   5.089   7.675  0.8479  0.3975 -0.4422
  223MOL    C1449298   7.314   5.052   7.585  0.1773  0.1667  0.1467
  223MOL    C1549299   7.295   5.123   7.461  0.6969  0.0357 -0.0043
  223MOL    C1649300   7.378   5.235   7.438  0.2126  0.0738 -0.0636
  223MOL    C1749301   7.474   5.280   7.533 -0.3388  0.6703  0.7453
  223MOL    C1849302   7.501   5.196   7.649 -0.6340 -1.0406  0.6775
  223MOL    O1949303   7.609   5.226   7.730  0.4761  0.1510  0.2472
  223MOL    H2049304   7.443   5.032   7.763  0.8120 -0.1616 -0.7911
  223MOL    H2149305   7.250   4.972   7.619 -1.2639  1.4707  0.5387
  223MOL    H2249306   7.367   5.289   7.346  0.8347  1.1552  0.4772
  223MOL    H2349307   7.536   5.366   7.515 -1.1581  1.0435 -0.3425
  223MOL    C2449308   7.463   5.377   8.036 -0.4923  0.9069  0.4152
  223MOL    C2549309   7.497   5.359   7.900 -0.0763 -0.4823 -1.0700
  223MOL    C2649310   7.581   5.247   7.862 -0.5277  0.1254 -0.2062
  223MOL    C2749311   7.630   5.155   7.962 -0.7646 -0.0587  0.0280
  223MOL    C2849312   7.588   5.170   8.096  0.1198 -0.6854 -0.2696
  223MOL    C2949313   7.506   5.282   8.135 -0.3652 -0.6203  0.0649
  223MOL    O3049314   7.462   5.305   0.011 -0.0108  0.0563 -0.4828
  223MOL    H3149315   7.392   5.456   8.054 -1.9207 -0.2541  0.0154
  223MOL    H3249316   7.461   5.425   7.822  0.9173  1.3492 -0.0238
  223MOL    H3349317   7.704   5.080   7.937 -1.0596 -0.8824  1.5648
  223MOL    H3449318   7.624   5.105   8.174  1.1784  1.5353  1.1446
  223MOL    C3549319   7.332   5.009   0.193  0.3287 -0.4674  0.1819
  223MOL    C3649320   7.419   5.112   0.142  0.4435  0.5050 -0.3101
  223MOL    C3749321   7.373   5.215   0.061 -0.5378  0.0377  0.2481
  223MOL    C3849322   7.232   5.218   0.030 -0.5964  0.0695 -0.3557
  223MOL    C3949323   7.145   5.119   0.084 -0.6291 -0.5707  0.5716
  223MOL    C4049324   7.194   5.014   0.162 -0.6040 -0.3263  0.4167
  223MOL    O4149325   7.109   4.913   0.204 -0.8624 -0.3152 -0.2669
  223MOL    H4249326   7.374   4.933   0.257  1.3782  1.0040  1.2710
  223MOL    H4349327   7.524   5.096   0.163  0.8890  1.6207 -1.5829
  223MOL    H4449328   7.199   5.300   8.222  2.7727  1.1768 -0.7972
  223MOL    H4549329   7.040   5.133   0.064 -0.1662  1.4265 -0.6196
  223MOL    C4649330   7.120   4.628   8.215 -0.0263  0.7703  0.3553
  223MOL    C4749331   7.100   4.756   0.014  0.0682 -0.2733  0.0829
  223MOL    C4849332   7.122   4.792   0.149 -0.4235  0.0223 -0.2783
  223MOL    C4949333   7.154   4.684   0.228 -0.2049  0.0199  0.6883
  223MOL    C5049334   7.163   4.549   0.181 -0.2985 -0.4041 -0.4689
  223MOL    C5149335   7.151   4.520   0.047  0.2885  0.0485  0.2067
  223MOL    O5249336   7.169   4.394   8.254 -0.0745  0.0727 -0.6689
  223MOL    H5349337   7.123   4.621   8.108 -2.1167 -1.5347  0.3967
  223MOL    H5449338   7.079   4.831   8.193  2.9738  1.1968  0.6567
  223MOL    H5549339   7.172   4.698   0.334 -1.2301 -0.0501  0.8761
  223MOL    H5649340   7.191   4.466   0.245  0.9035  0.9229  0.7755
  223MOL    C5749341   7.413   4.303   7.977 -0.3133  0.4534  0.3129
  223MOL    C5849342   7.302   4.360   8.048 -0.3132 -0.2302  0.7426
  223MOL    C5949343   7.287   4.351   8.186  0.4818  0.1225  0.7843
  223MOL    C6049344   7.387   4.287   0.006 -0.3599  0.0437 -0.4412
  223MOL    C6149345   7.501   4.231   8.194 -0.8685  0.2163  1.2156
  223MOL    C6249346   7.514   4.239   8.053  0.2807 -0.0828 -0.2908
  223MOL    O6349347   7.632   4.184   8.000  0.5902 -0.2737  0.4662
  223MOL    H6449348   7.422   4.318   7.871  0.6653 -0.1946  0.2964
  223MOL    H6549349   7.220   4.401   7.992  1.2060  1.1937 -0.4726
  223MOL    H6649350   7.376   4.287   0.114 -0.3789  0.3491 -0.4413
  223MOL    H6749351   7.576   4.186   0.003  2.5033  1.3496 -1.8028
  223MOL    C6849352   7.533   4.006   7.688 -0.7141 -0.2472  0.3340
  223MOL    C6949353   7.539   4.050   7.820  0.4494 -0.0638 -0.0499
  223MOL    C7049354   7.633   4.144   7.868 -0.9140 -0.0522 -0.2896
  223MOL    C7149355   7.714   4.202   7.773  0.2496  0.3074 -0.5169
  223MOL    C7249356   7.700   4.174   7.639  0.1252 -0.0630  0.0797
  223MOL    C7349357   7.615   4.069   7.597 -1.1016 -0.1777  0.5104
  223MOL    O7449358   7.633   4.022   7.469 -1.1530 -0.0936 -0.4834
  223MOL    H7549359   7.472   3.921   7.663 -2.7068  0.6778  1.8577
  223MOL    H7649360   7.464   4.008   7.886  0.4014 -0.1350 -0.1494
  223MOL    H7749361   7.778   4.283   7.804  0.3096  0.0795 -0.0509
  223MOL    H7849362   7.780   4.210   7.576  1.0096  2.1887  2.4201
  223MOL    C7949363   7.511   4.314   7.279  0.4475  0.2280  0.7575
  223MOL    C8049364   7.559   4.239   7.385 -0.3853 -0.3658  0.0509
  223MOL    C8149365   7.597   4.100   7.366  0.0321 -0.5280  0.3111
  223MOL    C8249366   7.570   4.039   7.240  0.1413  0.2496  0.1562
  223MOL    C8349367   7.546   4.123   7.134  0.1253  0.7665 -0.4371
  223MOL    C8449368   7.506   4.254   7.147 -0.1801 -0.2381  0.4641
  223MOL    O8549369   7.471   4.331   7.038 -0.8955 -0.3017 -0.0058
  223MOL    H8649370   7.488   4.418   7.293 -0.7612 -0.0120  0.6066
  223MOL    H8749371   7.553   4.290   7.480 -0.4214 -2.0726  0.9879
  223MOL    H8849372   7.602   3.937   7.223 -0.0110  0.2467 -0.1014
  223MOL    H8949373   7.544   4.075   7.037 -1.9313  0.7552 -0.4275
  223MOL    C9049374   7.811   4.409   6.884 -0.1403 -0.1408 -0.0547
  223MOL    C9149375   7.695   4.340   6.932  1.0246 -0.1387 -0.5436
  223MOL    C9249376   7.574   4.405   6.978  0.3422 -0.1338 -0.7861
  223MOL    C9349377   7.576   4.546   6.956  0.3875  0.2046 -0.1666
  223MOL    C9449378   7.685   4.615   6.902 -0.1014 -0.3937  0.2265
  223MOL    C9549379   7.804   4.552   6.867  0.2558 -0.0661  0.9948
  223MOL    O9649380   7.908   4.618   6.813  0.6670 -0.0776 -0.1372
  223MOL    H9749381   7.894   4.347   6.855  0.3925  0.1749  0.7707
  223MOL    H9849382   7.699   4.234   6.953 -0.2054 -0.0846  0.0280
  223MOL    H9949383   7.483   4.598   6.978  0.0787 -0.1141 -0.7043
  223MOL   H10049384   7.681   4.721   6.878 -0.5955  0.1021  2.4651
  223MOL   C10149385   0.019   4.554   6.820 -0.2356  0.4975  0.0220
  223MOL   C10249386   8.140   4.574   6.776 -0.9553 -1.2668 -0.3603
  223MOL   C10349387   8.034   4.590   6.864  0.9577 -0.8937  0.3875
  223MOL   C10449388   8.059   4.583   7.004 -0.4029 -0.1541  0.7805
  223MOL   C10549389   8.192   4.570   7.046  0.4598  0.0224 -0.4185
  223MOL   C10649390   0.043   4.545   6.955 -0.0594  0.0770  0.2316
  223MOL   O10749391   0.166   4.512   7.005  0.0714  0.9057  0.2046
  223MOL   H10849392   0.106   4.537   6.757  0.0299  0.0873  0.4936
  223MOL   H10949393   8.129   4.579   6.668  1.5099  2.0447 -0.5643
  223MOL   H11049394   7.983   4.593   7.080  0.2248  3.5967  1.0270
  223MOL   H11149395   8.213   4.577   7.151  0.6522 -0.7147 -0.3999
  223MOL   C11249396   0.300   4.172   7.026  1.0502  0.1837  0.0663
  223MOL   C11349397   0.219   4.287   7.051 -1.3094 -0.1257  0.0433
  223MOL   C11449398   0.228   4.397   6.968  0.6634 -0.3417 -1.0497
  223MOL   C11549399   0.307   4.385   6.843 -0.3854 -0.5032 -0.1057
  223MOL   C11649400   0.386   4.274   6.826 -0.1645  0.0269  0.1935
  223MOL   C11749401   0.377   4.160   6.907  0.2982  0.0378 -0.4932
  223MOL   O11849402   0.447   4.050   6.877 -0.0589  0.8133 -0.0212
  223MOL   H11949403   0.283   4.091   7.095 -0.5085 -0.7845 -1.4290
  223MOL   H12049404   0.157   4.303   7.138 -0.2390  2.8653  0.3034
  223MOL   H12149405   0.321   4.476   6.785  2.2399 -0.7674  0.0583
  223MOL   H12249406   0.453   4.268   6.741 -0.8277  0.2674 -0.3621
  223MOL   C12349407   0.353   3.694   6.946 -0.6281 -0.0592 -1.1710
  223MOL   C12449408   0.430   3.819   6.940 -1.0879  0.3615 -1.4063
  223MOL   C12549409   0.377   3.935   6.880 -0.2341 -0.1286 -0.0609
  223MOL   C12649410   0.251   3.922   6.817 -0.4518 -1.0131 -0.4820
  223MOL   C12749411   0.174   3.802   6.813 -0.3054  0.1269  0.9453
  223MOL   C12849412   0.224   3.693   6.885 -0.3805  0.0745 -0.1005
  223MOL   O12949413   0.144   3.586   6.903  0.1148  0.3396 -0.0829
  223MOL   H13049414   0.384   3.608   7.003  1.0422 -0.7493 -3.0558
  223MOL   H13149415   0.523   3.820   6.994 -1.1811 -0.6794 -1.2016
  223MOL   H13249416   0.230   4.004   6.749  0.4654 -1.4058 -1.2556
  223MOL   H13349417   0.079   3.803   6.761 -0.2444 -1.9034  0.7583
  223MOL   C13449418   0.185   3.331   6.626 -0.0360  0.2569  0.0160
  223MOL   C13549419   0.166   3.459   6.689 -0.5705  0.2862 -0.1217
  223MOL   C13649420   0.173   3.468   6.833  0.0451 -0.3140  0.2487
  223MOL   C13749421   0.217   3.361   6.912  0.4845 -0.4470 -0.1317
  223MOL   C13849422   0.231   3.241   6.849 -0.2755 -0.0325 -0.2186
  223MOL   C13949423   0.224   3.220   6.709  0.2915 -0.5554 -0.5628
  223MOL   O14049424   0.247   3.093   6.665 -1.0642 -0.0299  0.0833
  223MOL   H14149425   0.178   3.327   6.519 -1.0966 -0.2494  0.1011
  223MOL   H14249426   0.136   3.547   6.634  0.0924 -0.0850 -1.0926
  223MOL   H14349427   0.230   3.368   7.019 -1.3807 -2.7140  0.2902
  223MOL   H14449428   0.253   3.161   6.919 -1.9242  0.2577  0.6601
  223MOL   C14549429   0.129   2.791   6.828 -0.0878  0.4369 -1.0544
  223MOL   C14649430   0.213   2.887   6.773  0.2104  0.5419 -0.4789
  223MOL   C14749431   0.153   2.996   6.705 -1.1402  0.0663 -0.0922
  223MOL   C14849432   0.012   3.018   6.698  0.5213  1.0505 -0.4090
  223MOL   C14949433   8.187   2.921   6.761 -0.7988 -0.4286 -0.5556
  223MOL   C15049434   8.245   2.809   6.828  0.5961  0.3352 -0.2968
  223MOL   O15149435   8.162   2.719   6.896  0.1134  0.5215  0.3648
  223MOL   H15249436   0.161   2.696   6.868 -0.5788 -0.3612 -2.5100
  223MOL   H15349437   0.320   2.875   6.784 -0.0295  0.2671  1.8053
  223MOL   H15449438   8.225   3.109   6.655  0.4966  0.3595 -1.8609
  223MOL   H15549439   8.079   2.921   6.772 -0.5413 -0.5056  2.4818
  223MOL   C15649440   8.144   2.827   7.251 -0.7240  0.2310 -0.0166
  223MOL   C15749441   8.204   2.787   7.130  0.2532 -0.1719 -1.0042
  223MOL   C15849442   8.116   2.759   7.019  0.4542 -0.4696 -0.0146
  223MOL   C15949443   7.972   2.781   7.033 -0.7642 -0.3051 -0.1242
  223MOL   C16049444   7.915   2.837   7.150  0.6130 -0.5614  0.8209
  223MOL   C16149445   8.003   2.867   7.259  0.0011 -0.5212 -0.5909
  223MOL   O16249446   7.945   2.916   7.372  0.2190 -0.3861  0.2095
  223MOL   H16349447   8.207   2.833   7.339 -1.3317 -1.9061  0.6169
  223MOL   H16449448   0.056   2.768   7.124  0.8545  2.1703  1.2607
  223MOL   H16549449   7.913   2.758   6.945 -1.1267 -0.0168  0.0406
  223MOL   H16649450   7.810   2.858   7.157  1.0519  2.1358 -0.0797
  223MOL   C16749451   8.103   2.911   7.704 -0.0591  0.3971 -0.2812
  223MOL   C16849452   8.025   2.873   7.590 -0.6114  0.5074 -0.5762
  223MOL   C16949453   8.020   2.952   7.478  0.5529  0.1633  0.6129
  223MOL   C17049454   8.094   3.069   7.470 -1.2140 -1.0662  0.1857
  223MOL   C17149455   8.187   3.098   7.573 -0.1641  0.2928  0.5137
  223MOL   C17249456   8.197   3.016   7.688  0.2220  0.1192 -0.4977
  223MOL   O17349457   0.029   3.060   7.783 -0.3353  0.4200  0.0672
  223MOL   H17449458   8.111   2.855   7.797  0.4713  1.5360  0.3649
  223MOL   H17549459   7.966   2.783   7.586  0.1996 -0.0928  0.8402
  223MOL   H17649460   8.090   3.144   7.392 -0.0611 -0.9015  0.2721
  223MOL   H17749461   8.247   3.187   7.566  1.6731 -1.0138 -0.5715
  223MOL   C17849462   8.106   3.311   8.003  0.7534  0.4807  0.2062
  223MOL   C17949463   8.161   3.243   7.885  0.3475 -0.1970 -0.0463
  223MOL   C18049464   8.223   3.117   7.894  0.2156 -0.0887 -0.0891
  223MOL   C18149465   8.231   3.058   8.025 -0.5127 -0.0129 -0.1522
  223MOL   C18249466   8.188   3.122   8.140 -0.4079  0.5720 -0.0859
  223MOL   C18349467   8.130   3.251   8.130 -0.0882  0.3255 -0.0885
  223MOL   O18449468   8.081   3.318   8.241 -0.6317  0.4519  0.5027
  223MOL   H18549469   8.060   3.407   7.989 -0.3295  0.0446  0.7707
  223MOL   H18649470   8.157   3.296   7.791 -1.9098 -2.6786 -1.4276
  223MOL   H18749471   0.018   2.960   8.043 -1.3654 -0.5553 -1.1579
  223MOL   H18849472   8.199   3.082   8.239 -0.5674 -0.6831 -0.5722
  223MOL   C18949473   0.063   3.590   0.024 -0.0376 -0.0588 -0.4539
  223MOL   C19049474   8.222   3.507   8.223  0.0558  0.0203 -0.9296
  223MOL   C19149475   8.171   3.398   0.044  0.3128  0.1261  0.1860
  223MOL   C19249476   8.211   3.376   0.179  0.1222  0.2565  0.6215
  223MOL   C19349477   0.057   3.465   0.236  0.0735  0.2763  0.0308
  223MOL   C19449478   0.108   3.566   0.159  0.1304  0.9790  1.3511
  223MOL   O19549479   0.187   3.654   0.224 -0.0052  0.1156 -0.6133
  223MOL   H19649480   0.098   3.679   8.228 -0.9107 -0.0208 -1.0009
  223MOL   H19749481   8.206   3.532   8.119 -1.7825  0.6734 -0.5054
  223MOL   H19849482   8.173   3.298   0.242  1.2701 -1.4217 -0.7139
  223MOL   H19949483   0.095   3.446   0.335 -0.8322  1.4963  0.6144
  223MOL   C20049484   0.521   3.734   0.111 -0.2785 -0.5307  0.1686
  223MOL   C20149485   0.384   3.733   0.115 -0.3463  0.0144  0.1677
  223MOL   C20249486   0.323   3.643   0.202 -0.2120 -0.5892  0.3328
  223MOL   C20349487   0.398   3.540   0.262  0.6093  0.0731  0.4158
  223MOL   C20449488   0.537   3.535   0.248  0.7032  0.2377  0.4317
  223MOL   C20549489   0.598   3.639   0.173  0.0722 -0.0703 -0.1974
  223MOL   O20649490   0.733   3.634   0.163  0.2548 -0.1643 -0.1016
  223MOL   H20749491   0.577   3.808   0.057 -0.2753  0.4521  1.4939
  223MOL   H20849492   0.331   3.816   0.071 -0.1328 -0.0422 -0.1950
  223MOL   H20949493   0.354   3.465   0.327  1.7000 -0.2535  0.7771
  223MOL   H21049494   0.596   3.460   0.298  0.8256 -0.1777 -0.3435
  223MOL   C21149495   0.947   3.603   0.464 -0.0843 -0.6131 -0.2815
  223MOL   C21249496   0.859   3.573   0.358 -0.4065 -0.4986  0.5148
  223MOL   C21349497   0.807   3.670   0.271  0.6269  0.5621  0.8243
  223MOL   C21449498   0.847   3.802   0.286  0.5330  0.2483 -0.1548
  223MOL   C21549499   0.937   3.831   0.391  1.1604  0.3134  0.8064
  223MOL   C21649500   0.991   3.735   0.484 -0.1424 -0.1585  0.2185
  223MOL   O21749501   1.090   3.760   0.568  0.0588 -0.5913  0.0555
  223MOL   H21849502   0.981   3.523   0.529  0.2615 -1.4403 -1.4627
  223MOL   H21949503   0.848   3.467   0.340 -1.0296 -0.7642  2.3160
  223MOL   H22049504   0.801   3.877   0.224 -0.9478  1.2034  2.0057
  223MOL   H22149505   0.954   3.938   0.401 -1.4370  0.6628  1.8971
  223MOL   H22249506   1.100   3.850   0.593  1.3420 -0.9518  0.8850
  224MOL     C149507   7.437   4.905   4.951 -0.0764 -0.4277 -0.5406
  224MOL     C249508   7.401   5.030   5.006 -0.5005  0.5501 -0.0278
  224MOL     C349509   7.365   5.136   4.920  0.2397 -0.1953  0.3532
  224MOL     C449510   7.370   5.121   4.780  0.4735  0.2592 -0.4629
  224MOL     C549511   7.391   4.994   4.726  0.0505  0.3423  0.6489
  224MOL     C649512   7.423   4.889   4.811 -0.3421 -0.4794  0.2396
  224MOL     O749513   7.447   4.772   4.744  0.1054  0.0815 -0.0418
  224MOL     H849514   7.463   4.824   5.018 -0.2620 -0.8025 -0.9254
  224MOL     H949515   7.400   5.057   5.111  3.7891  1.2874 -0.0831
  224MOL    H1049516   7.339   5.200   4.713  0.5727 -0.3914 -1.2859
  224MOL    H1149517   7.364   4.983   4.622 -0.0034 -0.9060  0.7952
  224MOL    H1249518   7.347   5.225   4.978  1.0506 -0.7548  1.4728
  224MOL    C1349519   7.125   4.616   4.683  0.0542 -0.9141  0.0655
  224MOL    C1449520   7.215   4.716   4.714  0.0479 -0.1041 -0.3573
  224MOL    C1549521   7.347   4.685   4.712  0.3890  0.2850 -0.5267
  224MOL    C1649522   7.392   4.558   4.671  0.0624 -0.2667  0.1641
  224MOL    C1749523   7.300   4.455   4.642  0.2044  0.3634  0.3051
  224MOL    C1849524   7.165   4.484   4.646 -0.0898 -0.7536 -0.1006
  224MOL    O1949525   7.069   4.397   4.605 -0.2889  0.2246  0.1206
  224MOL    H2049526   7.023   4.650   4.682  0.2798 -0.2280 -0.9042
  224MOL    H2149527   7.171   4.811   4.741  0.7260  0.1267 -0.0555
  224MOL    H2249528   7.499   4.550   4.677 -0.0765 -2.5458  0.1923
  224MOL    H2349529   7.330   4.354   4.618  0.7572  0.8229 -0.9896
  224MOL    C2449530   7.047   4.040   4.686  0.1529 -0.3749  0.6358
  224MOL    C2549531   7.078   4.157   4.625 -0.2712  0.0052  0.3227
  224MOL    C2649532   7.048   4.287   4.684  0.7179  0.6197 -0.7847
  224MOL    C2749533   6.987   4.293   4.812 -0.2940  0.1431 -0.0587
  224MOL    C2849534   6.958   4.164   4.875 -0.3586  0.3555 -0.5153
  224MOL    C2949535   6.985   4.043   4.810  0.1664  0.3557  0.1362
  224MOL    O3049536   6.956   3.925   4.868 -0.1698  0.3888  0.1742
  224MOL    H3149537   7.061   3.944   4.638 -2.3816 -0.2268 -0.4842
  224MOL    H3249538   7.120   4.162   4.526 -5.1751  0.3231 -1.8937
  224MOL    H3349539   6.960   4.386   4.860  1.2914  0.7009 -0.2208
  224MOL    H3449540   6.904   4.166   4.968  2.1023 -1.5423  1.0249
  224MOL    C3549541   7.220   3.800   5.088  0.6515 -0.0155 -0.4261
  224MOL    C3649542   7.160   3.854   4.975 -0.1844 -0.0203  0.6348
  224MOL    C3749543   7.020   3.881   4.978  0.3564  0.5872 -0.2468
  224MOL    C3849544   6.946   3.861   5.096 -0.5681 -0.6826 -0.2988
  224MOL    C3949545   7.012   3.821   5.215  0.2217  0.3257 -0.1432
  224MOL    C4049546   7.147   3.784   5.211 -0.5368 -0.3947 -0.1124
  224MOL    O4149547   7.213   3.777   5.333  0.5077  0.2496 -0.0853
  224MOL    H4249548   7.324   3.771   5.083  0.3548 -0.9880 -1.0984
  224MOL    H4349549   7.211   3.852   4.880 -0.5771 -0.7469  0.4362
  224MOL    H4449550   6.838   3.872   5.095 -0.6112 -0.8849  1.0247
  224MOL    H4549551   6.955   3.811   5.306 -1.5439  1.0126 -1.1586
  224MOL    C4649552   7.568   3.707   5.399  0.1058  0.1810 -0.1505
  224MOL    C4749553   7.442   3.771   5.394 -0.0385 -0.5258 -0.6310
  224MOL    C4849554   7.327   3.704   5.344  0.0050 -0.1430  0.4773
  224MOL    C4949555   7.335   3.570   5.300  0.3404 -0.0321 -0.2446
  224MOL    C5049556   7.461   3.511   5.302 -0.5788 -0.3053 -0.2785
  224MOL    C5149557   7.575   3.577   5.360  0.3735  0.6408 -0.1750
  224MOL    O5249558   7.696   3.511   5.360  0.4062 -0.9666 -0.5353
  224MOL    H5349559   7.651   3.756   5.447 -1.0530  1.6479  0.4117
  224MOL    H5449560   7.422   3.870   5.431  0.8747  0.0574 -1.6704
  224MOL    H5549561   7.245   3.520   5.268  1.6961 -3.1917  0.6073
  224MOL    H5649562   7.477   3.411   5.266 -1.2860  0.0519 -1.5950
  224MOL    C5749563   7.830   3.599   5.012 -0.0159 -0.1223 -0.4581
  224MOL    C5849564   7.749   3.617   5.127 -0.1489  0.8323 -0.1610
  224MOL    C5949565   7.772   3.525   5.239 -0.1290 -0.0794 -0.7311
  224MOL    C6049566   7.864   3.422   5.227  0.0487  0.4522  0.4325
  224MOL    C6149567   7.947   3.421   5.116 -0.4628  0.1222 -0.6681
  224MOL    C6249568   7.932   3.501   5.005  0.4215  0.4985 -0.0874
  224MOL    O6349569   8.016   3.506   4.897  0.1887 -0.1792  0.4082
  224MOL    H6449570   7.814   3.659   4.924 -2.9354 -0.2024 -0.0356
  224MOL    H6549571   7.674   3.694   5.135 -1.9274 -0.8423 -0.2959
  224MOL    H6649572   7.884   3.359   5.313  1.2814 -0.6289 -0.6378
  224MOL    H6749573   8.018   3.340   5.114 -2.1483 -1.4869  1.8964
  224MOL    C6849574   7.890   3.324   4.594 -0.3141  0.1588  0.6622
  224MOL    C6949575   7.906   3.423   4.691 -0.4529  0.5150  0.5773
  224MOL    C7049576   7.999   3.405   4.800 -0.2668 -0.4001 -0.4594
  224MOL    C7149577   8.067   3.289   4.820 -0.0877  0.4352 -0.7572
  224MOL    C7249578   8.045   3.180   4.731  0.2060  0.2886  0.0501
  224MOL    C7349579   7.961   3.202   4.622  0.4167 -0.1952  0.6346
  224MOL    O7449580   7.940   3.105   4.530  0.0720  0.3995 -0.2998
  224MOL    H7549581   7.822   3.336   4.511 -0.5861  1.4199  1.0602
  224MOL    H7649582   7.857   3.519   4.685 -0.9801  0.2033 -0.2152
  224MOL    H7749583   8.132   3.273   4.904 -0.3419  1.1378 -0.4169
  224MOL    H7849584   8.083   3.080   4.750 -0.5816  0.4627  2.6796
  224MOL    C7949585   8.200   2.892   4.385 -0.2574  0.5367  0.4817
  224MOL    C8049586   8.087   2.932   4.458  0.7057 -0.2035  0.3830
  224MOL    C8149587   8.048   3.065   4.456  0.4118 -0.4212 -0.0729
  224MOL    C8249588   8.120   3.155   4.375  0.2960  0.0255 -0.2171
  224MOL    C8349589   8.233   3.111   4.306 -0.3745  0.0485  0.8873
  224MOL    C8449590   0.023   2.983   4.310 -0.0308  0.3866 -0.0952
  224MOL    O8549591   0.125   2.941   4.232  0.1738  0.3181 -0.4095
  224MOL    H8649592   8.233   2.789   4.392  0.2851  0.7590  1.2638
  224MOL    H8749593   8.028   2.865   4.519 -1.5894  2.6397  1.4176
  224MOL    H8849594   8.078   3.254   4.364 -1.2754 -0.3669  1.8528
  224MOL    H8949595   0.028   3.182   4.240  0.5193 -0.8957  0.5250
  224MOL    C9049596   0.391   2.707   4.314  0.4265  0.1051 -0.2714
  224MOL    C9149597   0.271   2.760   4.263  0.4616 -0.2917 -0.0226
  224MOL    C9249598   0.242   2.896   4.284 -0.2505 -0.4337 -0.4660
  224MOL    C9349599   0.331   2.981   4.359 -0.2895  0.2993 -0.5840
  224MOL    C9449600   0.458   2.925   4.388 -0.0425 -0.0544  0.0185
  224MOL    C9549601   0.487   2.792   4.364  0.2956 -0.8797  0.9528
  224MOL    O9649602   0.612   2.745   4.384  0.3252 -0.0111  0.1887
  224MOL    H9749603   0.417   2.603   4.302 -0.9703 -0.0963 -1.6869
  224MOL    H9849604   0.201   2.690   4.220 -0.0376  1.6205 -2.4307
  224MOL    H9949605   0.317   3.086   4.379 -1.2600  0.2511 -1.0187
  224MOL   H10049606   0.519   2.993   4.447  0.2027  0.5043 -0.8758
  224MOL   C10149607   0.622   2.669   4.748 -0.2504 -0.3387  0.0074
  224MOL   C10249608   0.574   2.681   4.618 -0.3389  0.5787  0.7050
  224MOL   C10349609   0.659   2.733   4.516 -1.0305  0.6932  0.1912
  224MOL   C10449610   0.787   2.780   4.544  0.4445  0.8944  0.3657
  224MOL   C10549611   0.828   2.771   4.676  0.3955  0.2317 -0.1928
  224MOL   C10649612   0.750   2.713   4.781  0.2653 -0.1175  0.0122
  224MOL   O10749613   0.794   2.703   4.908 -0.0525  0.3894 -0.1454
  224MOL   H10849614   0.560   2.627   4.826 -0.5729 -3.3975 -1.8424
  224MOL   H10949615   0.482   2.630   4.594  1.0452 -3.2346  3.0525
  224MOL   H11049616   0.852   2.813   4.464  0.9811 -0.2548  0.3235
  224MOL   H11149617   0.928   2.803   4.699  0.7133 -1.7057  1.2637
  224MOL   C11249618   0.667   2.903   5.192  0.3113 -0.8939 -0.4200
  224MOL   C11349619   0.672   2.791   5.102  0.1784 -0.0116  0.0930
  224MOL   C11449620   0.764   2.802   4.993 -0.0886  0.2449  0.1869
  224MOL   C11549621   0.842   2.927   4.973 -0.1500  0.7253  0.0804
  224MOL   C11649622   0.821   3.035   5.054 -0.1548  0.1137 -0.6812
  224MOL   C11749623   0.740   3.025   5.164  0.3183  0.2610  0.1829
  224MOL   O11849624   0.728   3.132   5.251 -0.0111 -0.1239 -0.1650
  224MOL   H11949625   0.611   2.901   5.284  0.1787 -1.0618 -0.5037
  224MOL   H12049626   0.623   2.696   5.116 -0.4219  0.5215  1.6936
  224MOL   H12149627   0.911   2.945   4.891 -0.7944 -0.1547 -0.6584
  224MOL   H12249628   0.869   3.131   5.045  1.7988 -1.0298 -3.0916
  224MOL   C12349629   0.563   3.390   5.057 -0.4139  0.1821 -0.3668
  224MOL   C12449630   0.597   3.261   5.101  0.0542 -0.3441  0.0661
  224MOL   C12549631   0.704   3.255   5.198 -0.0706 -0.2672  0.1881
  224MOL   C12649632   0.769   3.371   5.242 -0.5025 -0.1465 -0.2869
  224MOL   C12749633   0.735   3.498   5.189 -0.1017 -0.6133 -1.1228
  224MOL   C12849634   0.627   3.509   5.101 -0.9704 -0.0447 -0.0620
  224MOL   O12949635   0.592   3.630   5.043  0.5528  0.2883 -0.5810
  224MOL   H13049636   0.476   3.402   4.995  0.0628  1.0661 -0.8667
  224MOL   H13149637   0.539   3.171   5.080 -0.1777  0.1185 -1.3597
  224MOL   H13249638   0.834   3.369   5.328 -1.5675  0.1118  0.5320
  224MOL   H13349639   0.762   3.592   5.234  0.1046 -0.5030 -1.4799
  224MOL   C13449640   0.373   3.854   5.241  0.0167  1.1459  0.2810
  224MOL   C13549641   0.485   3.796   5.180  0.3615 -0.2468 -0.0312
  224MOL   C13649642   0.472   3.694   5.083 -0.2638 -0.3589  0.1341
  224MOL   C13749643   0.344   3.655   5.039 -0.2896  0.6163  0.1796
  224MOL   C13849644   0.228   3.710   5.096  0.9043 -0.5522 -0.6117
  224MOL   C13949645   0.241   3.806   5.199  0.2122 -0.4766 -0.7734
  224MOL   O14049646   0.128   3.853   5.265  0.9827  0.1092 -0.6172
  224MOL   H14149647   0.385   3.927   5.320 -0.6929 -1.1901  2.5814
  224MOL   H14249648   0.582   3.830   5.213 -0.2095  1.8449 -0.3987
  224MOL   H14349649   0.334   3.578   4.963  1.1720 -0.3394  0.9313
  224MOL   H14449650   0.138   3.675   5.048 -0.3481  0.3766  0.9948
  224MOL   C14549651   0.050   4.208   5.171  0.4777  0.2804 -0.2320
  224MOL   C14649652   0.117   4.095   5.230  0.4306 -0.6716 -0.0440
  224MOL   C14749653   0.071   3.964   5.207 -0.2074  0.3407  0.9041
  224MOL   C14849654   8.209   3.946   5.123  0.2977 -0.3536 -0.2300
  224MOL   C14949655   8.146   4.060   5.064 -0.4621  0.6495  0.3895
  224MOL   C15049656   8.188   4.194   5.096 -0.3747 -0.2763  0.0317
  224MOL   O15149657   8.132   4.304   5.032 -0.2139  0.8414  0.4408
  224MOL   H15249658   0.092   4.307   5.183  1.1425 -0.2069  1.7109
  224MOL   H15349659   0.205   4.115   5.290 -0.5343  1.9381  0.5634
  224MOL   H15449660   8.165   3.852   5.094  0.9028 -0.8635  0.4926
  224MOL   H15549661   8.069   4.053   4.988  1.0498 -2.8497 -0.9434
  224MOL   C15649662   8.247   4.573   4.809  0.3542 -0.2860 -0.0529
  224MOL   C15749663   8.179   4.503   4.917  0.0389  0.0189  0.1827
  224MOL   C15849664   8.205   4.365   4.931  0.0274 -0.3543 -0.2139
  224MOL   C15949665   0.053   4.296   4.857 -0.2090  0.0352  0.2186
  224MOL   C16049666   0.127   4.372   4.759 -0.4432  0.5700 -0.7382
  224MOL   C16149667   0.096   4.513   4.733 -0.0281 -0.1071 -0.3597
  224MOL   O16249668   0.158   4.584   4.629  0.0310 -0.3356  0.3859
  224MOL   H16349669   8.207   4.668   4.776  0.7846 -1.0633 -2.9500
  224MOL   H16449670   8.087   4.542   4.958  0.5100  0.5909  0.7229
  224MOL   H16549671   0.073   4.190   4.867 -0.1666 -0.0036 -0.2670
  224MOL   H16649672   0.207   4.332   4.699  0.3709  0.4013  0.4533
  224MOL   C16749673   0.385   4.879   4.683 -0.4053 -0.2247 -0.6666
  224MOL   C16849674   0.272   4.803   4.658  0.1779 -0.0888 -0.6893
  224MOL   C16949675   0.273   4.659   4.654 -0.3729 -0.6981 -0.3969
  224MOL   C17049676   0.391   4.590   4.698 -0.1984 -0.3526  1.0970
  224MOL   C17149677   0.509   4.671   4.725 -0.0952  0.3574 -0.4232
  224MOL   C17249678   0.503   4.811   4.720 -0.2592 -0.9171  0.8871
  224MOL   O17349679   0.612   4.889   4.731 -0.1567 -0.6704  0.3109
  224MOL   H17449680   0.375   4.987   4.683 -0.3173 -0.2114 -1.8091
  224MOL   H17549681   0.181   4.856   4.637 -0.0879 -0.0314  0.5343
  224MOL   H17649682   0.402   4.483   4.709  0.5243 -0.5607 -1.2574
  224MOL   H17749683   0.605   4.628   4.749  0.3617  1.5722 -0.0371
  224MOL   C17849684   0.615   5.047   5.065  0.4104  0.8228  0.0529
  224MOL   C17949685   0.603   4.947   4.964 -0.3405  0.4210  0.3503
  224MOL   C18049686   0.615   4.988   4.830  0.2803  0.1024  0.1378
  224MOL   C18149687   0.624   5.124   4.791  0.3443 -0.1110 -0.2028
  224MOL   C18249688   0.632   5.219   4.893  0.2135  0.3755 -0.1344
  224MOL   C18349689   0.624   5.183   5.032  0.0009  0.1548  0.0578
  224MOL   O18449690   0.630   5.278   5.132 -0.8646  0.5842 -0.2770
  224MOL   H18549691   0.608   5.015   5.167 -1.3889  3.1166  0.7037
  224MOL   H18649692   0.597   4.844   4.997 -0.5002  0.3607  0.1338
  224MOL   H18749693   0.638   5.143   4.686  0.3710 -1.6577 -0.4893
  224MOL   H18849694   0.660   5.318   4.860 -0.4116  0.7040  0.3052
  224MOL   C18949695   0.276   5.278   5.237 -0.1767  0.6403 -0.4025
  224MOL   C19049696   0.406   5.235   5.196  0.1631  0.1164  0.5493
  224MOL   C19149697   0.508   5.324   5.168 -1.1646 -0.2771 -0.1487
  224MOL   C19249698   0.475   5.459   5.167 -0.2545 -0.3568  0.0269
  224MOL   C19349699   0.344   5.504   5.191  0.1354 -0.3679 -0.2451
  224MOL   C19449700   0.241   5.414   5.230 -0.0227 -1.0940  0.9192
  224MOL   O19549701   0.110   5.462   5.234  0.2496 -0.3773 -0.4238
  224MOL   H19649702   0.203   5.207   5.273 -0.4231  1.1067  0.0260
  224MOL   H19749703   0.418   5.128   5.204 -1.6045 -0.1525 -0.0598
  224MOL   H19849704   0.550   5.535   5.150 -1.4001  0.3413 -1.9798
  224MOL   H19949705   0.315   5.608   5.195  3.3381  0.5742 -0.3565
  224MOL   C20049706   8.057   5.264   5.292 -0.1253  0.6361 -0.7770
  224MOL   C20149707   8.178   5.327   5.314 -0.2195  0.1408  0.2903
  224MOL   C20249708   8.250   5.389   5.208 -0.8190  0.1068 -0.2497
  224MOL   C20349709   8.198   5.381   5.077 -0.3725  0.2124 -0.6547
  224MOL   C20449710   8.081   5.313   5.054 -0.0654  1.0173 -0.0061
  224MOL   C20549711   8.014   5.244   5.157 -0.6306  0.0329  0.2473
  224MOL   O20649712   7.898   5.175   5.126  0.5184 -0.3370 -0.1517
  224MOL   H20749713   7.998   5.217   5.369 -1.0059  0.6614 -1.4231
  224MOL   H20849714   8.208   5.345   5.416  0.3366  1.0357 -0.0271
  224MOL   H20949715   0.002   5.419   4.995  0.4478  0.6612  0.1242
  224MOL   H21049716   8.058   5.295   4.950  0.1551 -0.0567  0.1226
  224MOL   C21149717   8.000   4.850   4.987  0.3638  0.4204 -0.1390
  224MOL   C21249718   8.002   4.967   5.057 -0.2624 -0.1107 -0.3656
  224MOL   C21349719   7.907   5.073   5.034 -0.3783 -0.5536 -0.0780
  224MOL   C21449720   7.814   5.052   4.927 -0.0980  0.5390 -0.3502
  224MOL   C21549721   7.813   4.933   4.853 -0.4655  0.1930  0.4058
  224MOL   C21649722   7.902   4.829   4.883 -0.4366 -0.0605 -0.2162
  224MOL   O21749723   7.904   4.713   4.808 -0.1531 -0.1738 -0.0987
  224MOL   H21849724   8.072   4.771   5.006  0.2667 -0.1085 -1.8751
  224MOL   H21949725   8.069   4.985   5.139  0.9214  1.4824 -1.6433
  224MOL   H22049726   7.731   5.119   4.916 -0.6764 -0.1095 -0.0014
  224MOL   H22149727   7.735   4.909   4.782  1.4074  1.2867 -2.1101
  224MOL   H22249728   7.855   4.703   4.728  1.8477 -1.9181 -1.1555
  225MOL     C149729   4.136   7.467   4.165 -0.4520  0.3170  0.0637
  225MOL     C249730   4.219   7.514   4.264  0.0063 -0.6884 -0.2269
  225MOL     C349731   4.222   7.654   4.287  0.8980  0.6629 -0.1543
  225MOL     C449732   4.133   7.740   4.228 -0.2784  0.0251 -0.2250
  225MOL     C549733   4.054   7.693   4.124 -0.3143  0.4102 -0.0857
  225MOL     C649734   4.055   7.554   4.091  0.2945  0.1527 -0.1046
  225MOL     O749735   3.996   7.490   3.986 -0.3041 -0.2291 -0.0314
  225MOL     H849736   4.137   7.365   4.128 -1.1366 -0.3822  1.9360
  225MOL     H949737   4.289   7.456   4.321 -0.0574 -0.5403  0.0013
  225MOL    H1049738   4.122   7.844   4.257 -1.3837  0.5301 -2.3471
  225MOL    H1149739   3.989   7.762   4.072  1.1991  1.7989 -0.1808
  225MOL    H1249740   4.289   7.706   4.354  0.7800 -0.3060  0.7276
  225MOL    C1349741   3.666   7.654   3.952  0.1136  0.0176 -0.0383
  225MOL    C1449742   3.781   7.609   4.012 -0.1571  0.3266  0.1680
  225MOL    C1549743   3.878   7.543   3.935 -0.5725 -0.5834 -0.0537
  225MOL    C1649744   3.860   7.534   3.799  0.0688  0.0871 -0.6796
  225MOL    C1749745   3.741   7.579   3.739 -0.6333 -0.1152 -0.3028
  225MOL    C1849746   3.640   7.637   3.812  0.6276 -0.7320 -0.3323
  225MOL    O1949747   3.517   7.662   3.758 -0.3675 -0.3716  0.6615
  225MOL    H2049748   3.584   7.682   4.016 -0.7136  0.2580 -1.1949
  225MOL    H2149749   3.783   7.610   4.120 -0.5311 -0.9607  0.1902
  225MOL    H2249750   3.931   7.494   3.728  1.6850  0.6650  0.5649
  225MOL    H2349751   3.744   7.560   3.633  5.1105 -1.1590 -0.1517
  225MOL    C2449752   3.556   7.995   3.593  0.3827 -0.0536  0.9207
  225MOL    C2549753   3.563   7.857   3.615  0.2507  0.0397  0.1638
  225MOL    C2649754   3.492   7.798   3.721 -0.0718 -0.1514 -0.6188
  225MOL    C2749755   3.405   7.876   3.794  0.0042 -0.2943  0.0277
  225MOL    C2849756   3.390   8.018   3.771  0.4025 -0.4242 -0.5763
  225MOL    C2949757   3.471   8.069   3.672  0.0971  0.2933  0.1462
  225MOL    O3049758   3.467   8.204   3.659 -0.4524  0.6883  0.1867
  225MOL    H3149759   3.626   8.038   3.522 -0.3221  0.1055  0.3185
  225MOL    H3249760   3.628   7.794   3.556  2.1231  0.8014  1.3691
  225MOL    H3349761   3.350   7.839   3.879  0.6106  1.5839  1.2992
  225MOL    H3449762   3.327   8.086   3.826  0.4504  0.0868 -1.1427
  225MOL    C3549763   3.726   0.168   3.819 -0.4473 -0.3016  0.2424
  225MOL    C3649764   3.608   0.090   3.809  0.1240  0.1377  0.4269
  225MOL    C3749765   3.582   0.024   3.684 -0.1294 -0.0171  0.3257
  225MOL    C3849766   3.659   0.050   3.571  0.1286  0.2813  0.7630
  225MOL    C3949767   3.773   0.130   3.578 -0.0989  0.2763 -1.1073
  225MOL    C4049768   3.813   0.187   3.703  0.1670 -0.1365 -0.4910
  225MOL    O4149769   3.934   0.259   3.718  0.7038 -0.0224  0.5013
  225MOL    H4249770   3.754   0.199   3.919  0.9879  0.8670 -0.4886
  225MOL    H4349771   3.537   0.084   3.890  0.5293 -1.1530  0.7059
  225MOL    H4449772   3.627   0.009   3.476 -1.0857 -2.3214  2.2339
  225MOL    H4549773   3.837   0.143   3.491 -0.1195  2.6571 -0.8119
  225MOL    C4649774   3.896   0.592   3.556 -0.2201  0.8086 -0.2273
  225MOL    C4749775   3.901   0.454   3.569 -0.9790 -0.3466 -0.4714
  225MOL    C4849776   3.934   0.390   3.696  0.7760 -0.0083 -0.1163
  225MOL    C4949777   3.955   0.479   3.803 -0.4467 -0.2499  0.0555
  225MOL    C5049778   3.949   0.613   3.793  0.3481 -0.2543 -0.1225
  225MOL    C5149779   3.925   0.674   3.668  0.1596 -0.2420  0.0073
  225MOL    O5249780   3.925   0.814   3.660 -0.0066 -0.4825 -0.3002
  225MOL    H5349781   3.882   0.631   3.456 -1.1331 -1.8049 -1.1448
  225MOL    H5449782   3.885   0.396   3.479  0.4677 -0.4811 -0.6613
  225MOL    H5549783   3.987   0.442   3.900 -3.0276  1.2730  1.5494
  225MOL    H5649784   3.966   0.682   3.875  2.2722  0.4696 -1.0957
  225MOL    C5749785   4.289   0.884   3.681  0.3356 -0.4414  0.3089
  225MOL    C5849786   4.169   0.828   3.653 -0.1380 -0.1854  0.7163
  225MOL    C5949787   4.043   0.889   3.690  0.0317  0.3928 -0.1299
  225MOL    C6049788   4.046   1.015   3.757 -0.2505  1.0122 -0.0590
  225MOL    C6149789   4.171   1.073   3.787  0.2082 -0.1184 -0.6649
  225MOL    C6249790   4.290   1.006   3.755 -0.3775  0.3062  0.5715
  225MOL    O6349791   4.412   1.060   3.778 -0.2354  0.1363 -0.7177
  225MOL    H6449792   4.385   0.840   3.658 -0.1337 -1.4547  0.2718
  225MOL    H6549793   4.174   0.733   3.602  0.2552 -0.4023  1.1616
  225MOL    H6649794   3.945   1.047   3.779 -0.7856 -0.5510 -0.1541
  225MOL    H6749795   4.176   1.162   3.849 -0.0833  0.3546 -1.3078
  225MOL    C6849796   4.661   1.131   3.508 -0.1931  0.2773  0.3161
  225MOL    C6949797   4.596   1.071   3.616 -0.1848  0.0489 -0.2421
  225MOL    C7049798   4.479   1.120   3.675  0.6087 -1.0205  0.3356
  225MOL    C7149799   4.428   1.237   3.612 -0.1001  0.0836  0.0810
  225MOL    C7249800   4.491   1.298   3.494  0.3553  0.0215 -0.3596
  225MOL    C7349801   4.609   1.244   3.442 -0.3171  0.4095 -0.3117
  225MOL    O7449802   4.657   1.288   3.323  0.4769 -0.3020 -0.0791
  225MOL    H7549803   4.751   1.088   3.467  0.7291  2.3711  0.0501
  225MOL    H7649804   4.651   0.988   3.659 -0.7415  0.0485  0.4792
  225MOL    H7749805   4.334   1.270   3.653  0.5088  1.7625  0.1618
  225MOL    H7849806   4.446   1.380   3.441 -0.1669  2.1653  3.2140
  225MOL    C7949807   4.743   1.582   3.136 -0.9327 -1.1208 -0.2723
  225MOL    C8049808   4.687   1.455   3.167 -0.3437 -0.7455 -0.1472
  225MOL    C8149809   4.693   1.416   3.300 -0.0822 -0.0471  0.4880
  225MOL    C8249810   4.736   1.496   3.405 -0.8689 -0.0773  0.4674
  225MOL    C8349811   4.784   1.618   3.377 -0.1859  0.6610 -0.3490
  225MOL    C8449812   4.797   1.661   3.245 -0.8073 -0.2492 -0.4178
  225MOL    O8549813   4.865   1.779   3.221 -0.2889  0.7016  0.0585
  225MOL    H8649814   4.756   1.612   3.033  1.1921  0.0558  0.3005
  225MOL    H8749815   4.663   1.377   3.097 -2.2399  0.2719 -0.6641
  225MOL    H8849816   4.723   1.468   3.508  0.4265  1.5600  1.0847
  225MOL    H8949817   4.829   1.668   3.461  1.2426  2.0190 -1.9003
  225MOL    C9049818   4.750   2.079   3.393 -0.0867 -0.5874  0.0614
  225MOL    C9149819   4.826   1.963   3.361 -0.2661 -0.7562  0.2222
  225MOL    C9249820   4.801   1.897   3.242  0.0592 -0.4402  0.2199
  225MOL    C9349821   4.702   1.947   3.151 -0.3918 -0.1803  0.0275
  225MOL    C9449822   4.642   2.069   3.178  0.4770  0.2953  0.0602
  225MOL    C9549823   4.660   2.139   3.301  0.0611 -0.7459 -1.1605
  225MOL    O9649824   4.589   2.250   3.336 -0.5346  0.0343 -0.2547
  225MOL    H9749825   4.771   2.130   3.486  1.9615  0.4335 -0.9232
  225MOL    H9849826   4.896   1.920   3.431 -2.0114 -0.4326  2.2186
  225MOL    H9949827   4.699   1.899   3.054  0.8418 -0.2090 -0.0123
  225MOL   H10049828   4.573   2.108   3.104  2.2273  1.8962 -0.7882
  225MOL   C10149829   4.260   2.100   3.429 -0.1514  0.0975  0.7650
  225MOL   C10249830   4.399   2.116   3.415  0.0781  0.3325  0.0947
  225MOL   C10349831   4.457   2.230   3.347 -0.5085 -0.1647  0.1739
  225MOL   C10449832   4.370   2.318   3.283  0.1370 -0.4634 -0.2880
  225MOL   C10549833   4.228   2.312   3.304  0.3910  0.5304  0.8294
  225MOL   C10649834   4.178   2.206   3.378 -0.3666 -0.5766  0.0487
  225MOL   O10749835   4.040   2.192   3.401  0.2002 -0.4369  0.2478
  225MOL   H10849836   4.227   2.011   3.480 -0.9795  0.4276  0.8099
  225MOL   H10949837   4.461   2.037   3.453  1.1501  1.7819  1.3962
  225MOL   H11049838   4.403   2.405   3.228  0.5202 -1.5444 -1.7910
  225MOL   H11149839   4.165   2.392   3.267 -0.5715 -0.1613  0.9606
  225MOL   C11249840   3.913   1.864   3.304  0.0019 -0.4628  0.6933
  225MOL   C11349841   3.963   1.973   3.383 -0.6198  0.4676 -0.1635
  225MOL   C11449842   3.976   2.099   3.326  0.9158 -0.4173 -0.1391
  225MOL   C11549843   3.941   2.118   3.191 -0.0319  0.5787 -0.0495
  225MOL   C11649844   3.900   2.009   3.112 -0.3189 -0.7558  0.0448
  225MOL   C11749845   3.868   1.885   3.172  0.2093  0.1729 -0.3844
  225MOL   O11849846   3.814   1.785   3.098  0.0267  0.0910 -0.2487
  225MOL   H11949847   3.897   1.771   3.357  0.1792 -0.1676  1.2686
  225MOL   H12049848   4.001   1.967   3.484 -2.5809 -2.5101  0.4758
  225MOL   H12149849   3.973   2.211   3.147 -0.9747  0.7543 -0.3854
  225MOL   H12249850   3.879   2.027   3.008  1.3659 -0.0252 -0.1734
  225MOL   C12349851   3.717   1.438   3.169 -0.6209  0.2164  0.1232
  225MOL   C12449852   3.785   1.549   3.116 -0.2805 -0.4268  0.0060
  225MOL   C12549853   3.751   1.679   3.159  0.8043 -0.0416  0.2977
  225MOL   C12649854   3.657   1.696   3.260 -0.3766  0.4854 -0.0806
  225MOL   C12749855   3.587   1.583   3.306  0.0015  0.1146 -0.1461
  225MOL   C12849856   3.618   1.457   3.263  0.2714  0.2350 -0.5817
  225MOL   O12949857   3.555   1.355   3.325 -0.5396 -0.1155  0.1162
  225MOL   H13049858   3.747   1.343   3.128  2.3844  1.2194 -0.1356
  225MOL   H13149859   3.865   1.538   3.044  1.2446  1.6385  1.2987
  225MOL   H13249860   3.621   1.796   3.282  1.7499  1.0689  0.8433
  225MOL   H13349861   3.493   1.588   3.359 -1.6257 -1.9473 -2.7284
  225MOL   C13449862   3.222   1.352   3.160  0.2481  0.4155  0.5847
  225MOL   C13549863   3.356   1.378   3.182  0.6226 -0.1902 -0.9703
  225MOL   C13649864   3.416   1.335   3.303  0.2264  0.5349 -0.2742
  225MOL   C13749865   3.339   1.255   3.392  0.2753  0.5394 -0.2312
  225MOL   C13849866   3.202   1.222   3.366 -0.7174  0.2794 -0.0661
  225MOL   C13949867   3.137   1.279   3.251 -0.7605 -0.1133  0.2916
  225MOL   O14049868   3.009   1.257   3.230  0.4087  0.1409 -0.2109
  225MOL   H14149869   3.191   1.398   3.067 -1.5842 -1.7600  0.0446
  225MOL   H14249870   3.406   1.439   3.108 -1.5956  2.8046 -0.1095
  225MOL   H14349871   3.389   1.238   3.487  1.0691  1.5583 -0.4516
  225MOL   H14449872   3.148   1.158   3.434 -3.0036  3.4467  1.2107
  225MOL   C14549873   2.803   1.370   3.524  0.0104 -0.6281  0.7270
  225MOL   C14649874   2.881   1.293   3.432 -0.0697 -0.3853  0.2597
  225MOL   C14749875   2.923   1.337   3.306  0.4270  0.0704  0.1535
  225MOL   C14849876   2.889   1.472   3.267  0.4941  0.7319  0.0461
  225MOL   C14949877   2.805   1.544   3.357  0.2385  0.0568  0.1938
  225MOL   C15049878   2.757   1.498   3.479  0.1206 -0.6469  0.6324
  225MOL   O15149879   2.678   1.584   3.557  0.0395  0.2554 -0.3584
  225MOL   H15249880   2.784   1.328   3.622  0.3521 -0.8039  0.7179
  225MOL   H15349881   2.909   1.194   3.467 -2.4687 -1.0653  0.3592
  225MOL   H15449882   2.920   1.508   3.170  0.4237 -0.3818 -0.4047
  225MOL   H15549883   2.774   1.642   3.323 -1.3235 -0.4029  0.2316
  225MOL   C15649884   2.888   1.735   3.828  0.6909 -0.0658  0.8533
  225MOL   C15749885   2.820   1.639   3.749  0.4093 -0.0257  0.6490
  225MOL   C15849886   2.747   1.679   3.632 -0.1925 -0.2588 -0.1315
  225MOL   C15949887   2.741   1.817   3.598  0.5041 -0.1517  0.3603
  225MOL   C16049888   2.800   1.911   3.678 -0.3941 -0.0446 -0.7755
  225MOL   C16149889   2.880   1.867   3.791 -0.3738 -0.0743  0.3583
  225MOL   O16249890   2.949   1.965   3.858 -0.6968 -0.3079  0.2983
  225MOL   H16349891   2.950   1.715   3.914 -1.5305 -1.7570  2.0988
  225MOL   H16449892   2.814   1.536   3.781 -1.9624 -0.2355 -0.3508
  225MOL   H16549893   2.693   1.848   3.506 -0.9416  1.0297  1.4891
  225MOL   H16649894   2.797   2.016   3.654  0.6742  0.4160  0.9699
  225MOL   C16749895   3.114   1.946   4.190 -0.3177 -0.1177  1.1014
  225MOL   C16849896   3.095   1.964   4.051 -0.3746  0.3035 -0.6528
  225MOL   C16949897   2.967   1.955   3.993 -0.0061 -0.4197 -0.3168
  225MOL   C17049898   2.854   1.931   4.075 -0.0407 -0.4133 -0.8120
  225MOL   C17149899   2.872   1.915   4.213  0.0617 -0.4591  0.8133
  225MOL   C17249900   3.001   1.919   4.272 -0.3448 -0.0081  0.0974
  225MOL   O17349901   3.015   1.897   4.407 -0.4602  0.2743 -0.1743
  225MOL   H17449902   3.208   1.947   4.243 -1.7638  1.1943  3.7680
  225MOL   H17549903   3.179   1.962   3.983 -0.8226  1.8408 -1.2790
  225MOL   H17649904   2.751   1.927   4.043 -0.0490 -2.0492 -0.6308
  225MOL   H17749905   2.785   1.905   4.276 -0.2769 -1.3931  0.2043
  225MOL   C17849906   2.841   2.105   4.650  0.8169  0.0604 -0.2604
  225MOL   C17949907   2.873   1.995   4.576  0.6113 -0.2090 -0.3329
  225MOL   C18049908   2.983   2.002   4.491  0.3846  0.6327  0.1846
  225MOL   C18149909   3.065   2.113   4.488 -0.2315 -0.2419 -0.0003
  225MOL   C18249910   3.045   2.219   4.582  0.1147  0.7683 -0.1545
  225MOL   C18349911   2.930   2.218   4.663  0.0578 -0.0586 -0.8646
  225MOL   O18449912   2.903   2.332   4.737  0.1484 -0.2277  0.1513
  225MOL   H18549913   2.751   2.098   4.709  0.9296 -1.3011 -0.2349
  225MOL   H18649914   2.810   1.907   4.581  1.1226 -0.4595  2.8819
  225MOL   H18749915   3.147   2.126   4.419 -2.7885  0.0308 -3.1145
  225MOL   H18849916   3.107   2.307   4.583 -0.1326  0.9586 -0.9541
  225MOL   C18949917   2.758   2.245   5.077 -0.3059 -0.0798  0.1717
  225MOL   C19049918   2.849   2.247   4.966 -0.4258 -0.5578  0.2222
  225MOL   C19149919   2.819   2.328   4.850 -0.5816  0.0091 -0.8600
  225MOL   C19249920   2.694   2.391   4.833 -0.5131 -0.2357 -0.0754
  225MOL   C19349921   2.606   2.379   4.946 -0.0851  0.2727 -0.1256
  225MOL   C19449922   2.639   2.316   5.066  1.1384 -0.0204 -0.1192
  225MOL   O19549923   2.558   2.326   5.182 -0.3359  0.1517 -0.5545
  225MOL   H19649924   2.780   2.194   5.169  0.2826  0.3324  0.2589
  225MOL   H19749925   2.942   2.192   4.965 -0.1932 -0.1513 -0.3071
  225MOL   H19849926   2.679   2.448   4.742 -0.6238 -2.2248 -1.3332
  225MOL   H19949927   2.506   2.420   4.940 -0.8473 -1.3716  0.9144
  225MOL   C20049928   2.248   2.120   5.167 -0.4835 -0.9364  0.7028
  225MOL   C20149929   2.383   2.152   5.185 -0.1698  0.4002 -0.1730
  225MOL   C20249930   2.426   2.290   5.172  0.0743  0.4017 -0.1745
  225MOL   C20349931   2.335   2.387   5.143 -0.7004 -0.0353 -0.5077
  225MOL   C20449932   2.199   2.355   5.127 -0.2169 -0.6007 -0.2363
  225MOL   C20549933   2.156   2.218   5.139  0.3554 -0.5245 -0.7926
  225MOL   O20649934   2.027   2.184   5.140  0.2630 -0.4562  0.6367
  225MOL   H20749935   2.235   2.014   5.183 -1.7905 -0.8316  0.3806
  225MOL   H20849936   2.452   2.072   5.208 -0.8904 -0.1668  0.0150
  225MOL   H20949937   2.368   2.490   5.139 -1.8660  0.3272 -0.8694
  225MOL   H21049938   2.131   2.437   5.112 -1.4950 -1.5199  0.3696
  225MOL   C21149939   1.918   2.265   4.793 -0.6119 -0.4440 -0.1358
  225MOL   C21249940   1.989   2.210   4.901 -0.5718 -0.0212  0.4030
  225MOL   C21349941   1.951   2.228   5.036  1.1471  0.0373 -0.3658
  225MOL   C21449942   1.829   2.290   5.062 -0.0975  0.1742  0.1553
  225MOL   C21549943   1.749   2.325   4.951 -0.1018  0.0191 -0.6106
  225MOL   C21649944   1.796   2.327   4.826 -0.1510 -0.3369  0.0616
  225MOL   O21749945   1.725   2.359   4.716  0.2463  0.6618  0.4109
  225MOL   H21849946   1.947   2.257   4.690  0.2075  0.1286  0.0463
  225MOL   H21949947   2.078   2.151   4.883 -0.8370 -0.5722  0.8827
  225MOL   H22049948   1.799   2.288   5.166  0.1363  0.3499  0.2269
  225MOL   H22149949   1.652   2.367   4.970 -1.7682 -3.1124 -1.7153
  225MOL   H22249950   1.662   2.428   4.729  0.0333  0.3758  0.9050
   8.25408   8.25408   8.25408
