;
; Gromacs include topology (itp) file.
; For Molecular Group XYZ
; Force field scheme: opls2005
; Produced from DL_FIELD v4.11
;


[ moleculetype ]
; name    nrexcl
XYZ    3

[ atoms ]
; nr   type   resnr   residu    atom    cgnr    charge    mass
    1        CA    1  MOL      C1     1  -0.1150000   12.0115
    2        CA    1  MOL      C2     2  -0.1150000   12.0115
    3        CA    1  MOL      C3     3  -0.1150000   12.0115
    4        CA    1  MOL      C4     4  -0.1150000   12.0115
    5        CA    1  MOL      C5     5  -0.1150000   12.0115
    6        CA    1  MOL      C6     6   0.0850000   12.0115
    7        OS    1  MOL      O7     7  -0.1700000   15.9994
    8        HA    1  MOL      H8     8   0.1150000    1.0080
    9        HA    1  MOL      H9     9   0.1150000    1.0080
   10        HA    1  MOL     H10    10   0.1150000    1.0080
   11        HA    1  MOL     H11    11   0.1150000    1.0080
   12        HA    1  MOL     H12    12   0.1150000    1.0080
   13        CA    1  MOL     C13    13  -0.1150000   12.0115
   14        CA    1  MOL     C14    14  -0.1150000   12.0115
   15        CA    1  MOL     C15    15   0.0850000   12.0115
   16        CA    1  MOL     C16    16  -0.1150000   12.0115
   17        CA    1  MOL     C17    17  -0.1150000   12.0115
   18        CA    1  MOL     C18    18   0.0850000   12.0115
   19        OS    1  MOL     O19    19  -0.1700000   15.9994
   20        HA    1  MOL     H20    20   0.1150000    1.0080
   21        HA    1  MOL     H21    21   0.1150000    1.0080
   22        HA    1  MOL     H22    22   0.1150000    1.0080
   23        HA    1  MOL     H23    23   0.1150000    1.0080
   24        CA    1  MOL     C24    24  -0.1150000   12.0115
   25        CA    1  MOL     C25    25  -0.1150000   12.0115
   26        CA    1  MOL     C26    26   0.0850000   12.0115
   27        CA    1  MOL     C27    27  -0.1150000   12.0115
   28        CA    1  MOL     C28    28  -0.1150000   12.0115
   29        CA    1  MOL     C29    29   0.0850000   12.0115
   30        OS    1  MOL     O30    30  -0.1700000   15.9994
   31        HA    1  MOL     H31    31   0.1150000    1.0080
   32        HA    1  MOL     H32    32   0.1150000    1.0080
   33        HA    1  MOL     H33    33   0.1150000    1.0080
   34        HA    1  MOL     H34    34   0.1150000    1.0080
   35        CA    1  MOL     C35    35  -0.1150000   12.0115
   36        CA    1  MOL     C36    36  -0.1150000   12.0115
   37        CA    1  MOL     C37    37   0.0850000   12.0115
   38        CA    1  MOL     C38    38  -0.1150000   12.0115
   39        CA    1  MOL     C39    39  -0.1150000   12.0115
   40        CA    1  MOL     C40    40   0.0850000   12.0115
   41        OS    1  MOL     O41    41  -0.1700000   15.9994
   42        HA    1  MOL     H42    42   0.1150000    1.0080
   43        HA    1  MOL     H43    43   0.1150000    1.0080
   44        HA    1  MOL     H44    44   0.1150000    1.0080
   45        HA    1  MOL     H45    45   0.1150000    1.0080
   46        CA    1  MOL     C46    46  -0.1150000   12.0115
   47        CA    1  MOL     C47    47  -0.1150000   12.0115
   48        CA    1  MOL     C48    48   0.0850000   12.0115
   49        CA    1  MOL     C49    49  -0.1150000   12.0115
   50        CA    1  MOL     C50    50  -0.1150000   12.0115
   51        CA    1  MOL     C51    51   0.0850000   12.0115
   52        OS    1  MOL     O52    52  -0.1700000   15.9994
   53        HA    1  MOL     H53    53   0.1150000    1.0080
   54        HA    1  MOL     H54    54   0.1150000    1.0080
   55        HA    1  MOL     H55    55   0.1150000    1.0080
   56        HA    1  MOL     H56    56   0.1150000    1.0080
   57        CA    1  MOL     C57    57  -0.1150000   12.0115
   58        CA    1  MOL     C58    58  -0.1150000   12.0115
   59        CA    1  MOL     C59    59   0.0850000   12.0115
   60        CA    1  MOL     C60    60  -0.1150000   12.0115
   61        CA    1  MOL     C61    61  -0.1150000   12.0115
   62        CA    1  MOL     C62    62   0.0850000   12.0115
   63        OS    1  MOL     O63    63  -0.1700000   15.9994
   64        HA    1  MOL     H64    64   0.1150000    1.0080
   65        HA    1  MOL     H65    65   0.1150000    1.0080
   66        HA    1  MOL     H66    66   0.1150000    1.0080
   67        HA    1  MOL     H67    67   0.1150000    1.0080
   68        CA    1  MOL     C68    68  -0.1150000   12.0115
   69        CA    1  MOL     C69    69  -0.1150000   12.0115
   70        CA    1  MOL     C70    70   0.0850000   12.0115
   71        CA    1  MOL     C71    71  -0.1150000   12.0115
   72        CA    1  MOL     C72    72  -0.1150000   12.0115
   73        CA    1  MOL     C73    73   0.0850000   12.0115
   74        OS    1  MOL     O74    74  -0.1700000   15.9994
   75        HA    1  MOL     H75    75   0.1150000    1.0080
   76        HA    1  MOL     H76    76   0.1150000    1.0080
   77        HA    1  MOL     H77    77   0.1150000    1.0080
   78        HA    1  MOL     H78    78   0.1150000    1.0080
   79        CA    1  MOL     C79    79  -0.1150000   12.0115
   80        CA    1  MOL     C80    80  -0.1150000   12.0115
   81        CA    1  MOL     C81    81   0.0850000   12.0115
   82        CA    1  MOL     C82    82  -0.1150000   12.0115
   83        CA    1  MOL     C83    83  -0.1150000   12.0115
   84        CA    1  MOL     C84    84   0.0850000   12.0115
   85        OS    1  MOL     O85    85  -0.1700000   15.9994
   86        HA    1  MOL     H86    86   0.1150000    1.0080
   87        HA    1  MOL     H87    87   0.1150000    1.0080
   88        HA    1  MOL     H88    88   0.1150000    1.0080
   89        HA    1  MOL     H89    89   0.1150000    1.0080
   90        CA    1  MOL     C90    90  -0.1150000   12.0115
   91        CA    1  MOL     C91    91  -0.1150000   12.0115
   92        CA    1  MOL     C92    92   0.0850000   12.0115
   93        CA    1  MOL     C93    93  -0.1150000   12.0115
   94        CA    1  MOL     C94    94  -0.1150000   12.0115
   95        CA    1  MOL     C95    95   0.0850000   12.0115
   96        OS    1  MOL     O96    96  -0.1700000   15.9994
   97        HA    1  MOL     H97    97   0.1150000    1.0080
   98        HA    1  MOL     H98    98   0.1150000    1.0080
   99        HA    1  MOL     H99    99   0.1150000    1.0080
  100        HA    1  MOL    H100   100   0.1150000    1.0080
  101        CA    1  MOL    C101   101  -0.1150000   12.0115
  102        CA    1  MOL    C102   102  -0.1150000   12.0115
  103        CA    1  MOL    C103   103   0.0850000   12.0115
  104        CA    1  MOL    C104   104  -0.1150000   12.0115
  105        CA    1  MOL    C105   105  -0.1150000   12.0115
  106        CA    1  MOL    C106   106   0.0850000   12.0115
  107        OS    1  MOL    O107   107  -0.1700000   15.9994
  108        HA    1  MOL    H108   108   0.1150000    1.0080
  109        HA    1  MOL    H109   109   0.1150000    1.0080
  110        HA    1  MOL    H110   110   0.1150000    1.0080
  111        HA    1  MOL    H111   111   0.1150000    1.0080
  112        CA    1  MOL    C112   112  -0.1150000   12.0115
  113        CA    1  MOL    C113   113  -0.1150000   12.0115
  114        CA    1  MOL    C114   114   0.0850000   12.0115
  115        CA    1  MOL    C115   115  -0.1150000   12.0115
  116        CA    1  MOL    C116   116  -0.1150000   12.0115
  117        CA    1  MOL    C117   117   0.0850000   12.0115
  118        OS    1  MOL    O118   118  -0.1700000   15.9994
  119        HA    1  MOL    H119   119   0.1150000    1.0080
  120        HA    1  MOL    H120   120   0.1150000    1.0080
  121        HA    1  MOL    H121   121   0.1150000    1.0080
  122        HA    1  MOL    H122   122   0.1150000    1.0080
  123        CA    1  MOL    C123   123  -0.1150000   12.0115
  124        CA    1  MOL    C124   124  -0.1150000   12.0115
  125        CA    1  MOL    C125   125   0.0850000   12.0115
  126        CA    1  MOL    C126   126  -0.1150000   12.0115
  127        CA    1  MOL    C127   127  -0.1150000   12.0115
  128        CA    1  MOL    C128   128   0.0850000   12.0115
  129        OS    1  MOL    O129   129  -0.1700000   15.9994
  130        HA    1  MOL    H130   130   0.1150000    1.0080
  131        HA    1  MOL    H131   131   0.1150000    1.0080
  132        HA    1  MOL    H132   132   0.1150000    1.0080
  133        HA    1  MOL    H133   133   0.1150000    1.0080
  134        CA    1  MOL    C134   134  -0.1150000   12.0115
  135        CA    1  MOL    C135   135  -0.1150000   12.0115
  136        CA    1  MOL    C136   136   0.0850000   12.0115
  137        CA    1  MOL    C137   137  -0.1150000   12.0115
  138        CA    1  MOL    C138   138  -0.1150000   12.0115
  139        CA    1  MOL    C139   139   0.0850000   12.0115
  140        OS    1  MOL    O140   140  -0.1700000   15.9994
  141        HA    1  MOL    H141   141   0.1150000    1.0080
  142        HA    1  MOL    H142   142   0.1150000    1.0080
  143        HA    1  MOL    H143   143   0.1150000    1.0080
  144        HA    1  MOL    H144   144   0.1150000    1.0080
  145        CA    1  MOL    C145   145  -0.1150000   12.0115
  146        CA    1  MOL    C146   146  -0.1150000   12.0115
  147        CA    1  MOL    C147   147   0.0850000   12.0115
  148        CA    1  MOL    C148   148  -0.1150000   12.0115
  149        CA    1  MOL    C149   149  -0.1150000   12.0115
  150        CA    1  MOL    C150   150   0.0850000   12.0115
  151        OS    1  MOL    O151   151  -0.1700000   15.9994
  152        HA    1  MOL    H152   152   0.1150000    1.0080
  153        HA    1  MOL    H153   153   0.1150000    1.0080
  154        HA    1  MOL    H154   154   0.1150000    1.0080
  155        HA    1  MOL    H155   155   0.1150000    1.0080
  156        CA    1  MOL    C156   156  -0.1150000   12.0115
  157        CA    1  MOL    C157   157  -0.1150000   12.0115
  158        CA    1  MOL    C158   158   0.0850000   12.0115
  159        CA    1  MOL    C159   159  -0.1150000   12.0115
  160        CA    1  MOL    C160   160  -0.1150000   12.0115
  161        CA    1  MOL    C161   161   0.0850000   12.0115
  162        OS    1  MOL    O162   162  -0.1700000   15.9994
  163        HA    1  MOL    H163   163   0.1150000    1.0080
  164        HA    1  MOL    H164   164   0.1150000    1.0080
  165        HA    1  MOL    H165   165   0.1150000    1.0080
  166        HA    1  MOL    H166   166   0.1150000    1.0080
  167        CA    1  MOL    C167   167  -0.1150000   12.0115
  168        CA    1  MOL    C168   168  -0.1150000   12.0115
  169        CA    1  MOL    C169   169   0.0850000   12.0115
  170        CA    1  MOL    C170   170  -0.1150000   12.0115
  171        CA    1  MOL    C171   171  -0.1150000   12.0115
  172        CA    1  MOL    C172   172   0.0850000   12.0115
  173        OS    1  MOL    O173   173  -0.1700000   15.9994
  174        HA    1  MOL    H174   174   0.1150000    1.0080
  175        HA    1  MOL    H175   175   0.1150000    1.0080
  176        HA    1  MOL    H176   176   0.1150000    1.0080
  177        HA    1  MOL    H177   177   0.1150000    1.0080
  178        CA    1  MOL    C178   178  -0.1150000   12.0115
  179        CA    1  MOL    C179   179  -0.1150000   12.0115
  180        CA    1  MOL    C180   180   0.0850000   12.0115
  181        CA    1  MOL    C181   181  -0.1150000   12.0115
  182        CA    1  MOL    C182   182  -0.1150000   12.0115
  183        CA    1  MOL    C183   183   0.0850000   12.0115
  184        OS    1  MOL    O184   184  -0.1700000   15.9994
  185        HA    1  MOL    H185   185   0.1150000    1.0080
  186        HA    1  MOL    H186   186   0.1150000    1.0080
  187        HA    1  MOL    H187   187   0.1150000    1.0080
  188        HA    1  MOL    H188   188   0.1150000    1.0080
  189        CA    1  MOL    C189   189  -0.1150000   12.0115
  190        CA    1  MOL    C190   190  -0.1150000   12.0115
  191        CA    1  MOL    C191   191   0.0850000   12.0115
  192        CA    1  MOL    C192   192  -0.1150000   12.0115
  193        CA    1  MOL    C193   193  -0.1150000   12.0115
  194        CA    1  MOL    C194   194   0.0850000   12.0115
  195        OS    1  MOL    O195   195  -0.1700000   15.9994
  196        HA    1  MOL    H196   196   0.1150000    1.0080
  197        HA    1  MOL    H197   197   0.1150000    1.0080
  198        HA    1  MOL    H198   198   0.1150000    1.0080
  199        HA    1  MOL    H199   199   0.1150000    1.0080
  200        CA    1  MOL    C200   200  -0.1150000   12.0115
  201        CA    1  MOL    C201   201  -0.1150000   12.0115
  202        CA    1  MOL    C202   202   0.0850000   12.0115
  203        CA    1  MOL    C203   203  -0.1150000   12.0115
  204        CA    1  MOL    C204   204  -0.1150000   12.0115
  205        CA    1  MOL    C205   205   0.0850000   12.0115
  206        OS    1  MOL    O206   206  -0.1700000   15.9994
  207        HA    1  MOL    H207   207   0.1150000    1.0080
  208        HA    1  MOL    H208   208   0.1150000    1.0080
  209        HA    1  MOL    H209   209   0.1150000    1.0080
  210        HA    1  MOL    H210   210   0.1150000    1.0080
  211        CA    1  MOL    C211   211  -0.1150000   12.0115
  212        CA    1  MOL    C212   212  -0.1150000   12.0115
  213        CA    1  MOL    C213   213   0.0850000   12.0115
  214        CA    1  MOL    C214   214  -0.1150000   12.0115
  215        CA    1  MOL    C215   215  -0.1150000   12.0115
  216        CA    1  MOL    C216   216   0.1500000   12.0115
  217       OHP    1  MOL    O217   217  -0.5850000   15.9994
  218        HA    1  MOL    H218   218   0.1150000    1.0080
  219        HA    1  MOL    H219   219   0.1150000    1.0080
  220        HA    1  MOL    H220   220   0.1150000    1.0080
  221        HA    1  MOL    H221   221   0.1150000    1.0080
  222        HO    1  MOL    H222   222   0.4350000    1.0080

[ bonds ]
      1      2   1      0.1400 392459.2000
      1      6   1      0.1400 392459.2000
      1      8   1      0.1080 307105.6000
      2      3   1      0.1400 392459.2000
      2      9   1      0.1080 307105.6000
      3      4   1      0.1400 392459.2000
      3     12   1      0.1080 307105.6000
      4      5   1      0.1400 392459.2000
      4     10   1      0.1080 307105.6000
      5      6   1      0.1400 392459.2000
      5     11   1      0.1080 307105.6000
      6      7   1      0.1364 376560.0000
      7     15   1      0.1364 376560.0000
     13     14   1      0.1400 392459.2000
     13     18   1      0.1400 392459.2000
     13     20   1      0.1080 307105.6000
     14     15   1      0.1400 392459.2000
     14     21   1      0.1080 307105.6000
     15     16   1      0.1400 392459.2000
     16     17   1      0.1400 392459.2000
     16     22   1      0.1080 307105.6000
     17     18   1      0.1400 392459.2000
     17     23   1      0.1080 307105.6000
     18     19   1      0.1364 376560.0000
     19     26   1      0.1364 376560.0000
     24     25   1      0.1400 392459.2000
     24     29   1      0.1400 392459.2000
     24     31   1      0.1080 307105.6000
     25     26   1      0.1400 392459.2000
     25     32   1      0.1080 307105.6000
     26     27   1      0.1400 392459.2000
     27     28   1      0.1400 392459.2000
     27     33   1      0.1080 307105.6000
     28     29   1      0.1400 392459.2000
     28     34   1      0.1080 307105.6000
     29     30   1      0.1364 376560.0000
     30     37   1      0.1364 376560.0000
     35     36   1      0.1400 392459.2000
     35     40   1      0.1400 392459.2000
     35     42   1      0.1080 307105.6000
     36     37   1      0.1400 392459.2000
     36     43   1      0.1080 307105.6000
     37     38   1      0.1400 392459.2000
     38     39   1      0.1400 392459.2000
     38     44   1      0.1080 307105.6000
     39     40   1      0.1400 392459.2000
     39     45   1      0.1080 307105.6000
     40     41   1      0.1364 376560.0000
     41     48   1      0.1364 376560.0000
     46     47   1      0.1400 392459.2000
     46     51   1      0.1400 392459.2000
     46     53   1      0.1080 307105.6000
     47     48   1      0.1400 392459.2000
     47     54   1      0.1080 307105.6000
     48     49   1      0.1400 392459.2000
     49     50   1      0.1400 392459.2000
     49     55   1      0.1080 307105.6000
     50     51   1      0.1400 392459.2000
     50     56   1      0.1080 307105.6000
     51     52   1      0.1364 376560.0000
     52     59   1      0.1364 376560.0000
     57     58   1      0.1400 392459.2000
     57     62   1      0.1400 392459.2000
     57     64   1      0.1080 307105.6000
     58     59   1      0.1400 392459.2000
     58     65   1      0.1080 307105.6000
     59     60   1      0.1400 392459.2000
     60     61   1      0.1400 392459.2000
     60     66   1      0.1080 307105.6000
     61     62   1      0.1400 392459.2000
     61     67   1      0.1080 307105.6000
     62     63   1      0.1364 376560.0000
     63     70   1      0.1364 376560.0000
     68     69   1      0.1400 392459.2000
     68     73   1      0.1400 392459.2000
     68     75   1      0.1080 307105.6000
     69     70   1      0.1400 392459.2000
     69     76   1      0.1080 307105.6000
     70     71   1      0.1400 392459.2000
     71     72   1      0.1400 392459.2000
     71     77   1      0.1080 307105.6000
     72     73   1      0.1400 392459.2000
     72     78   1      0.1080 307105.6000
     73     74   1      0.1364 376560.0000
     74     81   1      0.1364 376560.0000
     79     80   1      0.1400 392459.2000
     79     84   1      0.1400 392459.2000
     79     86   1      0.1080 307105.6000
     80     81   1      0.1400 392459.2000
     80     87   1      0.1080 307105.6000
     81     82   1      0.1400 392459.2000
     82     83   1      0.1400 392459.2000
     82     88   1      0.1080 307105.6000
     83     84   1      0.1400 392459.2000
     83     89   1      0.1080 307105.6000
     84     85   1      0.1364 376560.0000
     85     92   1      0.1364 376560.0000
     90     91   1      0.1400 392459.2000
     90     95   1      0.1400 392459.2000
     90     97   1      0.1080 307105.6000
     91     92   1      0.1400 392459.2000
     91     98   1      0.1080 307105.6000
     92     93   1      0.1400 392459.2000
     93     94   1      0.1400 392459.2000
     93     99   1      0.1080 307105.6000
     94     95   1      0.1400 392459.2000
     94    100   1      0.1080 307105.6000
     95     96   1      0.1364 376560.0000
     96    103   1      0.1364 376560.0000
    101    102   1      0.1400 392459.2000
    101    106   1      0.1400 392459.2000
    101    108   1      0.1080 307105.6000
    102    103   1      0.1400 392459.2000
    102    109   1      0.1080 307105.6000
    103    104   1      0.1400 392459.2000
    104    105   1      0.1400 392459.2000
    104    110   1      0.1080 307105.6000
    105    106   1      0.1400 392459.2000
    105    111   1      0.1080 307105.6000
    106    107   1      0.1364 376560.0000
    107    114   1      0.1364 376560.0000
    112    113   1      0.1400 392459.2000
    112    117   1      0.1400 392459.2000
    112    119   1      0.1080 307105.6000
    113    114   1      0.1400 392459.2000
    113    120   1      0.1080 307105.6000
    114    115   1      0.1400 392459.2000
    115    116   1      0.1400 392459.2000
    115    121   1      0.1080 307105.6000
    116    117   1      0.1400 392459.2000
    116    122   1      0.1080 307105.6000
    117    118   1      0.1364 376560.0000
    118    125   1      0.1364 376560.0000
    123    124   1      0.1400 392459.2000
    123    128   1      0.1400 392459.2000
    123    130   1      0.1080 307105.6000
    124    125   1      0.1400 392459.2000
    124    131   1      0.1080 307105.6000
    125    126   1      0.1400 392459.2000
    126    127   1      0.1400 392459.2000
    126    132   1      0.1080 307105.6000
    127    128   1      0.1400 392459.2000
    127    133   1      0.1080 307105.6000
    128    129   1      0.1364 376560.0000
    129    136   1      0.1364 376560.0000
    134    135   1      0.1400 392459.2000
    134    139   1      0.1400 392459.2000
    134    141   1      0.1080 307105.6000
    135    136   1      0.1400 392459.2000
    135    142   1      0.1080 307105.6000
    136    137   1      0.1400 392459.2000
    137    138   1      0.1400 392459.2000
    137    143   1      0.1080 307105.6000
    138    139   1      0.1400 392459.2000
    138    144   1      0.1080 307105.6000
    139    140   1      0.1364 376560.0000
    140    147   1      0.1364 376560.0000
    145    146   1      0.1400 392459.2000
    145    150   1      0.1400 392459.2000
    145    152   1      0.1080 307105.6000
    146    147   1      0.1400 392459.2000
    146    153   1      0.1080 307105.6000
    147    148   1      0.1400 392459.2000
    148    149   1      0.1400 392459.2000
    148    154   1      0.1080 307105.6000
    149    150   1      0.1400 392459.2000
    149    155   1      0.1080 307105.6000
    150    151   1      0.1364 376560.0000
    151    158   1      0.1364 376560.0000
    156    157   1      0.1400 392459.2000
    156    161   1      0.1400 392459.2000
    156    163   1      0.1080 307105.6000
    157    158   1      0.1400 392459.2000
    157    164   1      0.1080 307105.6000
    158    159   1      0.1400 392459.2000
    159    160   1      0.1400 392459.2000
    159    165   1      0.1080 307105.6000
    160    161   1      0.1400 392459.2000
    160    166   1      0.1080 307105.6000
    161    162   1      0.1364 376560.0000
    162    169   1      0.1364 376560.0000
    167    168   1      0.1400 392459.2000
    167    172   1      0.1400 392459.2000
    167    174   1      0.1080 307105.6000
    168    169   1      0.1400 392459.2000
    168    175   1      0.1080 307105.6000
    169    170   1      0.1400 392459.2000
    170    171   1      0.1400 392459.2000
    170    176   1      0.1080 307105.6000
    171    172   1      0.1400 392459.2000
    171    177   1      0.1080 307105.6000
    172    173   1      0.1364 376560.0000
    173    180   1      0.1364 376560.0000
    178    179   1      0.1400 392459.2000
    178    183   1      0.1400 392459.2000
    178    185   1      0.1080 307105.6000
    179    180   1      0.1400 392459.2000
    179    186   1      0.1080 307105.6000
    180    181   1      0.1400 392459.2000
    181    182   1      0.1400 392459.2000
    181    187   1      0.1080 307105.6000
    182    183   1      0.1400 392459.2000
    182    188   1      0.1080 307105.6000
    183    184   1      0.1364 376560.0000
    184    191   1      0.1364 376560.0000
    189    190   1      0.1400 392459.2000
    189    194   1      0.1400 392459.2000
    189    196   1      0.1080 307105.6000
    190    191   1      0.1400 392459.2000
    190    197   1      0.1080 307105.6000
    191    192   1      0.1400 392459.2000
    192    193   1      0.1400 392459.2000
    192    198   1      0.1080 307105.6000
    193    194   1      0.1400 392459.2000
    193    199   1      0.1080 307105.6000
    194    195   1      0.1364 376560.0000
    195    202   1      0.1364 376560.0000
    200    201   1      0.1400 392459.2000
    200    205   1      0.1400 392459.2000
    200    207   1      0.1080 307105.6000
    201    202   1      0.1400 392459.2000
    201    208   1      0.1080 307105.6000
    202    203   1      0.1400 392459.2000
    203    204   1      0.1400 392459.2000
    203    209   1      0.1080 307105.6000
    204    205   1      0.1400 392459.2000
    204    210   1      0.1080 307105.6000
    205    206   1      0.1364 376560.0000
    206    213   1      0.1364 376560.0000
    211    212   1      0.1400 392459.2000
    211    216   1      0.1400 392459.2000
    211    218   1      0.1080 307105.6000
    212    213   1      0.1400 392459.2000
    212    219   1      0.1080 307105.6000
    213    214   1      0.1400 392459.2000
    214    215   1      0.1400 392459.2000
    214    220   1      0.1080 307105.6000
    215    216   1      0.1400 392459.2000
    215    221   1      0.1080 307105.6000
    216    217   1      0.1364 376560.0000
    217    222   1      0.0945 462750.4000

[ pairs ]
; ai   aj   funct   fudge_QQ  charge_i   charge_j   c6    c12
      6      3   2   0.50000     0.0850000   -0.1150000   1.172438e-03  2.346713e-06
      6      9   2   0.50000     0.0850000    0.1150000   2.431434e-04  1.541678e-07
      8      3   2   0.50000     0.1150000   -0.1150000   2.431434e-04  1.541678e-07
      8      9   2   0.50000     0.1150000    0.1150000   5.042375e-05  1.012808e-08
      2      5   2   0.50000    -0.1150000   -0.1150000   1.172438e-03  2.346713e-06
      2      7   2   0.50000    -0.1150000   -0.1700000   9.038862e-04  9.862632e-07
      8      5   2   0.50000     0.1150000   -0.1150000   2.431434e-04  1.541678e-07
      8      7   2   0.50000     0.1150000   -0.1700000   1.874504e-04  6.479276e-08
      1      4   2   0.50000    -0.1150000   -0.1150000   1.172438e-03  2.346713e-06
      1     12   2   0.50000    -0.1150000    0.1150000   2.431434e-04  1.541678e-07
      9      4   2   0.50000     0.1150000   -0.1150000   2.431434e-04  1.541678e-07
      9     12   2   0.50000     0.1150000    0.1150000   5.042375e-05  1.012808e-08
      2     10   2   0.50000    -0.1150000    0.1150000   2.431434e-04  1.541678e-07
     12      5   2   0.50000     0.1150000   -0.1150000   2.431434e-04  1.541678e-07
     12     10   2   0.50000     0.1150000    0.1150000   5.042375e-05  1.012808e-08
      3     11   2   0.50000    -0.1150000    0.1150000   2.431434e-04  1.541678e-07
     10      6   2   0.50000     0.1150000    0.0850000   2.431434e-04  1.541678e-07
     10     11   2   0.50000     0.1150000    0.1150000   5.042375e-05  1.012808e-08
      4      7   2   0.50000    -0.1150000   -0.1700000   9.038862e-04  9.862632e-07
     11      1   2   0.50000     0.1150000   -0.1150000   2.431434e-04  1.541678e-07
     11      7   2   0.50000     0.1150000   -0.1700000   1.874504e-04  6.479276e-08
      1     15   2   0.50000    -0.1150000    0.0850000   1.172438e-03  2.346713e-06
      5     15   2   0.50000    -0.1150000    0.0850000   1.172438e-03  2.346713e-06
      6     14   2   0.50000     0.0850000   -0.1150000   1.172438e-03  2.346713e-06
      6     16   2   0.50000     0.0850000   -0.1150000   1.172438e-03  2.346713e-06
     18     15   2   0.50000     0.0850000    0.0850000   1.172438e-03  2.346713e-06
     18     21   2   0.50000     0.0850000    0.1150000   2.431434e-04  1.541678e-07
     20     15   2   0.50000     0.1150000    0.0850000   2.431434e-04  1.541678e-07
     20     21   2   0.50000     0.1150000    0.1150000   5.042375e-05  1.012808e-08
     14     17   2   0.50000    -0.1150000   -0.1150000   1.172438e-03  2.346713e-06
     14     19   2   0.50000    -0.1150000   -0.1700000   9.038862e-04  9.862632e-07
     20     17   2   0.50000     0.1150000   -0.1150000   2.431434e-04  1.541678e-07
     20     19   2   0.50000     0.1150000   -0.1700000   1.874504e-04  6.479276e-08
     13      7   2   0.50000    -0.1150000   -0.1700000   9.038862e-04  9.862632e-07
     13     16   2   0.50000    -0.1150000   -0.1150000   1.172438e-03  2.346713e-06
     21      7   2   0.50000     0.1150000   -0.1700000   1.874504e-04  6.479276e-08
     21     16   2   0.50000     0.1150000   -0.1150000   2.431434e-04  1.541678e-07
      7     17   2   0.50000    -0.1700000   -0.1150000   9.038862e-04  9.862632e-07
      7     22   2   0.50000    -0.1700000    0.1150000   1.874504e-04  6.479276e-08
     14     22   2   0.50000    -0.1150000    0.1150000   2.431434e-04  1.541678e-07
     15     23   2   0.50000     0.0850000    0.1150000   2.431434e-04  1.541678e-07
     22     18   2   0.50000     0.1150000    0.0850000   2.431434e-04  1.541678e-07
     22     23   2   0.50000     0.1150000    0.1150000   5.042375e-05  1.012808e-08
     16     19   2   0.50000    -0.1150000   -0.1700000   9.038862e-04  9.862632e-07
     23     13   2   0.50000     0.1150000   -0.1150000   2.431434e-04  1.541678e-07
     23     19   2   0.50000     0.1150000   -0.1700000   1.874504e-04  6.479276e-08
     13     26   2   0.50000    -0.1150000    0.0850000   1.172438e-03  2.346713e-06
     17     26   2   0.50000    -0.1150000    0.0850000   1.172438e-03  2.346713e-06
     18     25   2   0.50000     0.0850000   -0.1150000   1.172438e-03  2.346713e-06
     18     27   2   0.50000     0.0850000   -0.1150000   1.172438e-03  2.346713e-06
     29     26   2   0.50000     0.0850000    0.0850000   1.172438e-03  2.346713e-06
     29     32   2   0.50000     0.0850000    0.1150000   2.431434e-04  1.541678e-07
     31     26   2   0.50000     0.1150000    0.0850000   2.431434e-04  1.541678e-07
     31     32   2   0.50000     0.1150000    0.1150000   5.042375e-05  1.012808e-08
     25     28   2   0.50000    -0.1150000   -0.1150000   1.172438e-03  2.346713e-06
     25     30   2   0.50000    -0.1150000   -0.1700000   9.038862e-04  9.862632e-07
     31     28   2   0.50000     0.1150000   -0.1150000   2.431434e-04  1.541678e-07
     31     30   2   0.50000     0.1150000   -0.1700000   1.874504e-04  6.479276e-08
     24     19   2   0.50000    -0.1150000   -0.1700000   9.038862e-04  9.862632e-07
     24     27   2   0.50000    -0.1150000   -0.1150000   1.172438e-03  2.346713e-06
     32     19   2   0.50000     0.1150000   -0.1700000   1.874504e-04  6.479276e-08
     32     27   2   0.50000     0.1150000   -0.1150000   2.431434e-04  1.541678e-07
     19     28   2   0.50000    -0.1700000   -0.1150000   9.038862e-04  9.862632e-07
     19     33   2   0.50000    -0.1700000    0.1150000   1.874504e-04  6.479276e-08
     25     33   2   0.50000    -0.1150000    0.1150000   2.431434e-04  1.541678e-07
     26     34   2   0.50000     0.0850000    0.1150000   2.431434e-04  1.541678e-07
     33     29   2   0.50000     0.1150000    0.0850000   2.431434e-04  1.541678e-07
     33     34   2   0.50000     0.1150000    0.1150000   5.042375e-05  1.012808e-08
     27     30   2   0.50000    -0.1150000   -0.1700000   9.038862e-04  9.862632e-07
     34     24   2   0.50000     0.1150000   -0.1150000   2.431434e-04  1.541678e-07
     34     30   2   0.50000     0.1150000   -0.1700000   1.874504e-04  6.479276e-08
     24     37   2   0.50000    -0.1150000    0.0850000   1.172438e-03  2.346713e-06
     28     37   2   0.50000    -0.1150000    0.0850000   1.172438e-03  2.346713e-06
     29     36   2   0.50000     0.0850000   -0.1150000   1.172438e-03  2.346713e-06
     29     38   2   0.50000     0.0850000   -0.1150000   1.172438e-03  2.346713e-06
     40     37   2   0.50000     0.0850000    0.0850000   1.172438e-03  2.346713e-06
     40     43   2   0.50000     0.0850000    0.1150000   2.431434e-04  1.541678e-07
     42     37   2   0.50000     0.1150000    0.0850000   2.431434e-04  1.541678e-07
     42     43   2   0.50000     0.1150000    0.1150000   5.042375e-05  1.012808e-08
     36     39   2   0.50000    -0.1150000   -0.1150000   1.172438e-03  2.346713e-06
     36     41   2   0.50000    -0.1150000   -0.1700000   9.038862e-04  9.862632e-07
     42     39   2   0.50000     0.1150000   -0.1150000   2.431434e-04  1.541678e-07
     42     41   2   0.50000     0.1150000   -0.1700000   1.874504e-04  6.479276e-08
     35     30   2   0.50000    -0.1150000   -0.1700000   9.038862e-04  9.862632e-07
     35     38   2   0.50000    -0.1150000   -0.1150000   1.172438e-03  2.346713e-06
     43     30   2   0.50000     0.1150000   -0.1700000   1.874504e-04  6.479276e-08
     43     38   2   0.50000     0.1150000   -0.1150000   2.431434e-04  1.541678e-07
     30     39   2   0.50000    -0.1700000   -0.1150000   9.038862e-04  9.862632e-07
     30     44   2   0.50000    -0.1700000    0.1150000   1.874504e-04  6.479276e-08
     36     44   2   0.50000    -0.1150000    0.1150000   2.431434e-04  1.541678e-07
     37     45   2   0.50000     0.0850000    0.1150000   2.431434e-04  1.541678e-07
     44     40   2   0.50000     0.1150000    0.0850000   2.431434e-04  1.541678e-07
     44     45   2   0.50000     0.1150000    0.1150000   5.042375e-05  1.012808e-08
     38     41   2   0.50000    -0.1150000   -0.1700000   9.038862e-04  9.862632e-07
     45     35   2   0.50000     0.1150000   -0.1150000   2.431434e-04  1.541678e-07
     45     41   2   0.50000     0.1150000   -0.1700000   1.874504e-04  6.479276e-08
     35     48   2   0.50000    -0.1150000    0.0850000   1.172438e-03  2.346713e-06
     39     48   2   0.50000    -0.1150000    0.0850000   1.172438e-03  2.346713e-06
     40     47   2   0.50000     0.0850000   -0.1150000   1.172438e-03  2.346713e-06
     40     49   2   0.50000     0.0850000   -0.1150000   1.172438e-03  2.346713e-06
     51     48   2   0.50000     0.0850000    0.0850000   1.172438e-03  2.346713e-06
     51     54   2   0.50000     0.0850000    0.1150000   2.431434e-04  1.541678e-07
     53     48   2   0.50000     0.1150000    0.0850000   2.431434e-04  1.541678e-07
     53     54   2   0.50000     0.1150000    0.1150000   5.042375e-05  1.012808e-08
     47     50   2   0.50000    -0.1150000   -0.1150000   1.172438e-03  2.346713e-06
     47     52   2   0.50000    -0.1150000   -0.1700000   9.038862e-04  9.862632e-07
     53     50   2   0.50000     0.1150000   -0.1150000   2.431434e-04  1.541678e-07
     53     52   2   0.50000     0.1150000   -0.1700000   1.874504e-04  6.479276e-08
     46     41   2   0.50000    -0.1150000   -0.1700000   9.038862e-04  9.862632e-07
     46     49   2   0.50000    -0.1150000   -0.1150000   1.172438e-03  2.346713e-06
     54     41   2   0.50000     0.1150000   -0.1700000   1.874504e-04  6.479276e-08
     54     49   2   0.50000     0.1150000   -0.1150000   2.431434e-04  1.541678e-07
     41     50   2   0.50000    -0.1700000   -0.1150000   9.038862e-04  9.862632e-07
     41     55   2   0.50000    -0.1700000    0.1150000   1.874504e-04  6.479276e-08
     47     55   2   0.50000    -0.1150000    0.1150000   2.431434e-04  1.541678e-07
     48     56   2   0.50000     0.0850000    0.1150000   2.431434e-04  1.541678e-07
     55     51   2   0.50000     0.1150000    0.0850000   2.431434e-04  1.541678e-07
     55     56   2   0.50000     0.1150000    0.1150000   5.042375e-05  1.012808e-08
     49     52   2   0.50000    -0.1150000   -0.1700000   9.038862e-04  9.862632e-07
     56     46   2   0.50000     0.1150000   -0.1150000   2.431434e-04  1.541678e-07
     56     52   2   0.50000     0.1150000   -0.1700000   1.874504e-04  6.479276e-08
     46     59   2   0.50000    -0.1150000    0.0850000   1.172438e-03  2.346713e-06
     50     59   2   0.50000    -0.1150000    0.0850000   1.172438e-03  2.346713e-06
     51     58   2   0.50000     0.0850000   -0.1150000   1.172438e-03  2.346713e-06
     51     60   2   0.50000     0.0850000   -0.1150000   1.172438e-03  2.346713e-06
     62     59   2   0.50000     0.0850000    0.0850000   1.172438e-03  2.346713e-06
     62     65   2   0.50000     0.0850000    0.1150000   2.431434e-04  1.541678e-07
     64     59   2   0.50000     0.1150000    0.0850000   2.431434e-04  1.541678e-07
     64     65   2   0.50000     0.1150000    0.1150000   5.042375e-05  1.012808e-08
     58     61   2   0.50000    -0.1150000   -0.1150000   1.172438e-03  2.346713e-06
     58     63   2   0.50000    -0.1150000   -0.1700000   9.038862e-04  9.862632e-07
     64     61   2   0.50000     0.1150000   -0.1150000   2.431434e-04  1.541678e-07
     64     63   2   0.50000     0.1150000   -0.1700000   1.874504e-04  6.479276e-08
     57     52   2   0.50000    -0.1150000   -0.1700000   9.038862e-04  9.862632e-07
     57     60   2   0.50000    -0.1150000   -0.1150000   1.172438e-03  2.346713e-06
     65     52   2   0.50000     0.1150000   -0.1700000   1.874504e-04  6.479276e-08
     65     60   2   0.50000     0.1150000   -0.1150000   2.431434e-04  1.541678e-07
     52     61   2   0.50000    -0.1700000   -0.1150000   9.038862e-04  9.862632e-07
     52     66   2   0.50000    -0.1700000    0.1150000   1.874504e-04  6.479276e-08
     58     66   2   0.50000    -0.1150000    0.1150000   2.431434e-04  1.541678e-07
     59     67   2   0.50000     0.0850000    0.1150000   2.431434e-04  1.541678e-07
     66     62   2   0.50000     0.1150000    0.0850000   2.431434e-04  1.541678e-07
     66     67   2   0.50000     0.1150000    0.1150000   5.042375e-05  1.012808e-08
     60     63   2   0.50000    -0.1150000   -0.1700000   9.038862e-04  9.862632e-07
     67     57   2   0.50000     0.1150000   -0.1150000   2.431434e-04  1.541678e-07
     67     63   2   0.50000     0.1150000   -0.1700000   1.874504e-04  6.479276e-08
     57     70   2   0.50000    -0.1150000    0.0850000   1.172438e-03  2.346713e-06
     61     70   2   0.50000    -0.1150000    0.0850000   1.172438e-03  2.346713e-06
     62     69   2   0.50000     0.0850000   -0.1150000   1.172438e-03  2.346713e-06
     62     71   2   0.50000     0.0850000   -0.1150000   1.172438e-03  2.346713e-06
     73     70   2   0.50000     0.0850000    0.0850000   1.172438e-03  2.346713e-06
     73     76   2   0.50000     0.0850000    0.1150000   2.431434e-04  1.541678e-07
     75     70   2   0.50000     0.1150000    0.0850000   2.431434e-04  1.541678e-07
     75     76   2   0.50000     0.1150000    0.1150000   5.042375e-05  1.012808e-08
     69     72   2   0.50000    -0.1150000   -0.1150000   1.172438e-03  2.346713e-06
     69     74   2   0.50000    -0.1150000   -0.1700000   9.038862e-04  9.862632e-07
     75     72   2   0.50000     0.1150000   -0.1150000   2.431434e-04  1.541678e-07
     75     74   2   0.50000     0.1150000   -0.1700000   1.874504e-04  6.479276e-08
     68     63   2   0.50000    -0.1150000   -0.1700000   9.038862e-04  9.862632e-07
     68     71   2   0.50000    -0.1150000   -0.1150000   1.172438e-03  2.346713e-06
     76     63   2   0.50000     0.1150000   -0.1700000   1.874504e-04  6.479276e-08
     76     71   2   0.50000     0.1150000   -0.1150000   2.431434e-04  1.541678e-07
     63     72   2   0.50000    -0.1700000   -0.1150000   9.038862e-04  9.862632e-07
     63     77   2   0.50000    -0.1700000    0.1150000   1.874504e-04  6.479276e-08
     69     77   2   0.50000    -0.1150000    0.1150000   2.431434e-04  1.541678e-07
     70     78   2   0.50000     0.0850000    0.1150000   2.431434e-04  1.541678e-07
     77     73   2   0.50000     0.1150000    0.0850000   2.431434e-04  1.541678e-07
     77     78   2   0.50000     0.1150000    0.1150000   5.042375e-05  1.012808e-08
     71     74   2   0.50000    -0.1150000   -0.1700000   9.038862e-04  9.862632e-07
     78     68   2   0.50000     0.1150000   -0.1150000   2.431434e-04  1.541678e-07
     78     74   2   0.50000     0.1150000   -0.1700000   1.874504e-04  6.479276e-08
     68     81   2   0.50000    -0.1150000    0.0850000   1.172438e-03  2.346713e-06
     72     81   2   0.50000    -0.1150000    0.0850000   1.172438e-03  2.346713e-06
     73     80   2   0.50000     0.0850000   -0.1150000   1.172438e-03  2.346713e-06
     73     82   2   0.50000     0.0850000   -0.1150000   1.172438e-03  2.346713e-06
     84     81   2   0.50000     0.0850000    0.0850000   1.172438e-03  2.346713e-06
     84     87   2   0.50000     0.0850000    0.1150000   2.431434e-04  1.541678e-07
     86     81   2   0.50000     0.1150000    0.0850000   2.431434e-04  1.541678e-07
     86     87   2   0.50000     0.1150000    0.1150000   5.042375e-05  1.012808e-08
     80     83   2   0.50000    -0.1150000   -0.1150000   1.172438e-03  2.346713e-06
     80     85   2   0.50000    -0.1150000   -0.1700000   9.038862e-04  9.862632e-07
     86     83   2   0.50000     0.1150000   -0.1150000   2.431434e-04  1.541678e-07
     86     85   2   0.50000     0.1150000   -0.1700000   1.874504e-04  6.479276e-08
     79     74   2   0.50000    -0.1150000   -0.1700000   9.038862e-04  9.862632e-07
     79     82   2   0.50000    -0.1150000   -0.1150000   1.172438e-03  2.346713e-06
     87     74   2   0.50000     0.1150000   -0.1700000   1.874504e-04  6.479276e-08
     87     82   2   0.50000     0.1150000   -0.1150000   2.431434e-04  1.541678e-07
     74     83   2   0.50000    -0.1700000   -0.1150000   9.038862e-04  9.862632e-07
     74     88   2   0.50000    -0.1700000    0.1150000   1.874504e-04  6.479276e-08
     80     88   2   0.50000    -0.1150000    0.1150000   2.431434e-04  1.541678e-07
     81     89   2   0.50000     0.0850000    0.1150000   2.431434e-04  1.541678e-07
     88     84   2   0.50000     0.1150000    0.0850000   2.431434e-04  1.541678e-07
     88     89   2   0.50000     0.1150000    0.1150000   5.042375e-05  1.012808e-08
     82     85   2   0.50000    -0.1150000   -0.1700000   9.038862e-04  9.862632e-07
     89     79   2   0.50000     0.1150000   -0.1150000   2.431434e-04  1.541678e-07
     89     85   2   0.50000     0.1150000   -0.1700000   1.874504e-04  6.479276e-08
     79     92   2   0.50000    -0.1150000    0.0850000   1.172438e-03  2.346713e-06
     83     92   2   0.50000    -0.1150000    0.0850000   1.172438e-03  2.346713e-06
     84     91   2   0.50000     0.0850000   -0.1150000   1.172438e-03  2.346713e-06
     84     93   2   0.50000     0.0850000   -0.1150000   1.172438e-03  2.346713e-06
     95     92   2   0.50000     0.0850000    0.0850000   1.172438e-03  2.346713e-06
     95     98   2   0.50000     0.0850000    0.1150000   2.431434e-04  1.541678e-07
     97     92   2   0.50000     0.1150000    0.0850000   2.431434e-04  1.541678e-07
     97     98   2   0.50000     0.1150000    0.1150000   5.042375e-05  1.012808e-08
     91     94   2   0.50000    -0.1150000   -0.1150000   1.172438e-03  2.346713e-06
     91     96   2   0.50000    -0.1150000   -0.1700000   9.038862e-04  9.862632e-07
     97     94   2   0.50000     0.1150000   -0.1150000   2.431434e-04  1.541678e-07
     97     96   2   0.50000     0.1150000   -0.1700000   1.874504e-04  6.479276e-08
     90     85   2   0.50000    -0.1150000   -0.1700000   9.038862e-04  9.862632e-07
     90     93   2   0.50000    -0.1150000   -0.1150000   1.172438e-03  2.346713e-06
     98     85   2   0.50000     0.1150000   -0.1700000   1.874504e-04  6.479276e-08
     98     93   2   0.50000     0.1150000   -0.1150000   2.431434e-04  1.541678e-07
     85     94   2   0.50000    -0.1700000   -0.1150000   9.038862e-04  9.862632e-07
     85     99   2   0.50000    -0.1700000    0.1150000   1.874504e-04  6.479276e-08
     91     99   2   0.50000    -0.1150000    0.1150000   2.431434e-04  1.541678e-07
     92    100   2   0.50000     0.0850000    0.1150000   2.431434e-04  1.541678e-07
     99     95   2   0.50000     0.1150000    0.0850000   2.431434e-04  1.541678e-07
     99    100   2   0.50000     0.1150000    0.1150000   5.042375e-05  1.012808e-08
     93     96   2   0.50000    -0.1150000   -0.1700000   9.038862e-04  9.862632e-07
    100     90   2   0.50000     0.1150000   -0.1150000   2.431434e-04  1.541678e-07
    100     96   2   0.50000     0.1150000   -0.1700000   1.874504e-04  6.479276e-08
     90    103   2   0.50000    -0.1150000    0.0850000   1.172438e-03  2.346713e-06
     94    103   2   0.50000    -0.1150000    0.0850000   1.172438e-03  2.346713e-06
     95    102   2   0.50000     0.0850000   -0.1150000   1.172438e-03  2.346713e-06
     95    104   2   0.50000     0.0850000   -0.1150000   1.172438e-03  2.346713e-06
    106    103   2   0.50000     0.0850000    0.0850000   1.172438e-03  2.346713e-06
    106    109   2   0.50000     0.0850000    0.1150000   2.431434e-04  1.541678e-07
    108    103   2   0.50000     0.1150000    0.0850000   2.431434e-04  1.541678e-07
    108    109   2   0.50000     0.1150000    0.1150000   5.042375e-05  1.012808e-08
    102    105   2   0.50000    -0.1150000   -0.1150000   1.172438e-03  2.346713e-06
    102    107   2   0.50000    -0.1150000   -0.1700000   9.038862e-04  9.862632e-07
    108    105   2   0.50000     0.1150000   -0.1150000   2.431434e-04  1.541678e-07
    108    107   2   0.50000     0.1150000   -0.1700000   1.874504e-04  6.479276e-08
    101     96   2   0.50000    -0.1150000   -0.1700000   9.038862e-04  9.862632e-07
    101    104   2   0.50000    -0.1150000   -0.1150000   1.172438e-03  2.346713e-06
    109     96   2   0.50000     0.1150000   -0.1700000   1.874504e-04  6.479276e-08
    109    104   2   0.50000     0.1150000   -0.1150000   2.431434e-04  1.541678e-07
     96    105   2   0.50000    -0.1700000   -0.1150000   9.038862e-04  9.862632e-07
     96    110   2   0.50000    -0.1700000    0.1150000   1.874504e-04  6.479276e-08
    102    110   2   0.50000    -0.1150000    0.1150000   2.431434e-04  1.541678e-07
    103    111   2   0.50000     0.0850000    0.1150000   2.431434e-04  1.541678e-07
    110    106   2   0.50000     0.1150000    0.0850000   2.431434e-04  1.541678e-07
    110    111   2   0.50000     0.1150000    0.1150000   5.042375e-05  1.012808e-08
    104    107   2   0.50000    -0.1150000   -0.1700000   9.038862e-04  9.862632e-07
    111    101   2   0.50000     0.1150000   -0.1150000   2.431434e-04  1.541678e-07
    111    107   2   0.50000     0.1150000   -0.1700000   1.874504e-04  6.479276e-08
    101    114   2   0.50000    -0.1150000    0.0850000   1.172438e-03  2.346713e-06
    105    114   2   0.50000    -0.1150000    0.0850000   1.172438e-03  2.346713e-06
    106    113   2   0.50000     0.0850000   -0.1150000   1.172438e-03  2.346713e-06
    106    115   2   0.50000     0.0850000   -0.1150000   1.172438e-03  2.346713e-06
    117    114   2   0.50000     0.0850000    0.0850000   1.172438e-03  2.346713e-06
    117    120   2   0.50000     0.0850000    0.1150000   2.431434e-04  1.541678e-07
    119    114   2   0.50000     0.1150000    0.0850000   2.431434e-04  1.541678e-07
    119    120   2   0.50000     0.1150000    0.1150000   5.042375e-05  1.012808e-08
    113    116   2   0.50000    -0.1150000   -0.1150000   1.172438e-03  2.346713e-06
    113    118   2   0.50000    -0.1150000   -0.1700000   9.038862e-04  9.862632e-07
    119    116   2   0.50000     0.1150000   -0.1150000   2.431434e-04  1.541678e-07
    119    118   2   0.50000     0.1150000   -0.1700000   1.874504e-04  6.479276e-08
    112    107   2   0.50000    -0.1150000   -0.1700000   9.038862e-04  9.862632e-07
    112    115   2   0.50000    -0.1150000   -0.1150000   1.172438e-03  2.346713e-06
    120    107   2   0.50000     0.1150000   -0.1700000   1.874504e-04  6.479276e-08
    120    115   2   0.50000     0.1150000   -0.1150000   2.431434e-04  1.541678e-07
    107    116   2   0.50000    -0.1700000   -0.1150000   9.038862e-04  9.862632e-07
    107    121   2   0.50000    -0.1700000    0.1150000   1.874504e-04  6.479276e-08
    113    121   2   0.50000    -0.1150000    0.1150000   2.431434e-04  1.541678e-07
    114    122   2   0.50000     0.0850000    0.1150000   2.431434e-04  1.541678e-07
    121    117   2   0.50000     0.1150000    0.0850000   2.431434e-04  1.541678e-07
    121    122   2   0.50000     0.1150000    0.1150000   5.042375e-05  1.012808e-08
    115    118   2   0.50000    -0.1150000   -0.1700000   9.038862e-04  9.862632e-07
    122    112   2   0.50000     0.1150000   -0.1150000   2.431434e-04  1.541678e-07
    122    118   2   0.50000     0.1150000   -0.1700000   1.874504e-04  6.479276e-08
    112    125   2   0.50000    -0.1150000    0.0850000   1.172438e-03  2.346713e-06
    116    125   2   0.50000    -0.1150000    0.0850000   1.172438e-03  2.346713e-06
    117    124   2   0.50000     0.0850000   -0.1150000   1.172438e-03  2.346713e-06
    117    126   2   0.50000     0.0850000   -0.1150000   1.172438e-03  2.346713e-06
    128    125   2   0.50000     0.0850000    0.0850000   1.172438e-03  2.346713e-06
    128    131   2   0.50000     0.0850000    0.1150000   2.431434e-04  1.541678e-07
    130    125   2   0.50000     0.1150000    0.0850000   2.431434e-04  1.541678e-07
    130    131   2   0.50000     0.1150000    0.1150000   5.042375e-05  1.012808e-08
    124    127   2   0.50000    -0.1150000   -0.1150000   1.172438e-03  2.346713e-06
    124    129   2   0.50000    -0.1150000   -0.1700000   9.038862e-04  9.862632e-07
    130    127   2   0.50000     0.1150000   -0.1150000   2.431434e-04  1.541678e-07
    130    129   2   0.50000     0.1150000   -0.1700000   1.874504e-04  6.479276e-08
    123    118   2   0.50000    -0.1150000   -0.1700000   9.038862e-04  9.862632e-07
    123    126   2   0.50000    -0.1150000   -0.1150000   1.172438e-03  2.346713e-06
    131    118   2   0.50000     0.1150000   -0.1700000   1.874504e-04  6.479276e-08
    131    126   2   0.50000     0.1150000   -0.1150000   2.431434e-04  1.541678e-07
    118    127   2   0.50000    -0.1700000   -0.1150000   9.038862e-04  9.862632e-07
    118    132   2   0.50000    -0.1700000    0.1150000   1.874504e-04  6.479276e-08
    124    132   2   0.50000    -0.1150000    0.1150000   2.431434e-04  1.541678e-07
    125    133   2   0.50000     0.0850000    0.1150000   2.431434e-04  1.541678e-07
    132    128   2   0.50000     0.1150000    0.0850000   2.431434e-04  1.541678e-07
    132    133   2   0.50000     0.1150000    0.1150000   5.042375e-05  1.012808e-08
    126    129   2   0.50000    -0.1150000   -0.1700000   9.038862e-04  9.862632e-07
    133    123   2   0.50000     0.1150000   -0.1150000   2.431434e-04  1.541678e-07
    133    129   2   0.50000     0.1150000   -0.1700000   1.874504e-04  6.479276e-08
    123    136   2   0.50000    -0.1150000    0.0850000   1.172438e-03  2.346713e-06
    127    136   2   0.50000    -0.1150000    0.0850000   1.172438e-03  2.346713e-06
    128    135   2   0.50000     0.0850000   -0.1150000   1.172438e-03  2.346713e-06
    128    137   2   0.50000     0.0850000   -0.1150000   1.172438e-03  2.346713e-06
    139    136   2   0.50000     0.0850000    0.0850000   1.172438e-03  2.346713e-06
    139    142   2   0.50000     0.0850000    0.1150000   2.431434e-04  1.541678e-07
    141    136   2   0.50000     0.1150000    0.0850000   2.431434e-04  1.541678e-07
    141    142   2   0.50000     0.1150000    0.1150000   5.042375e-05  1.012808e-08
    135    138   2   0.50000    -0.1150000   -0.1150000   1.172438e-03  2.346713e-06
    135    140   2   0.50000    -0.1150000   -0.1700000   9.038862e-04  9.862632e-07
    141    138   2   0.50000     0.1150000   -0.1150000   2.431434e-04  1.541678e-07
    141    140   2   0.50000     0.1150000   -0.1700000   1.874504e-04  6.479276e-08
    134    129   2   0.50000    -0.1150000   -0.1700000   9.038862e-04  9.862632e-07
    134    137   2   0.50000    -0.1150000   -0.1150000   1.172438e-03  2.346713e-06
    142    129   2   0.50000     0.1150000   -0.1700000   1.874504e-04  6.479276e-08
    142    137   2   0.50000     0.1150000   -0.1150000   2.431434e-04  1.541678e-07
    129    138   2   0.50000    -0.1700000   -0.1150000   9.038862e-04  9.862632e-07
    129    143   2   0.50000    -0.1700000    0.1150000   1.874504e-04  6.479276e-08
    135    143   2   0.50000    -0.1150000    0.1150000   2.431434e-04  1.541678e-07
    136    144   2   0.50000     0.0850000    0.1150000   2.431434e-04  1.541678e-07
    143    139   2   0.50000     0.1150000    0.0850000   2.431434e-04  1.541678e-07
    143    144   2   0.50000     0.1150000    0.1150000   5.042375e-05  1.012808e-08
    137    140   2   0.50000    -0.1150000   -0.1700000   9.038862e-04  9.862632e-07
    144    134   2   0.50000     0.1150000   -0.1150000   2.431434e-04  1.541678e-07
    144    140   2   0.50000     0.1150000   -0.1700000   1.874504e-04  6.479276e-08
    134    147   2   0.50000    -0.1150000    0.0850000   1.172438e-03  2.346713e-06
    138    147   2   0.50000    -0.1150000    0.0850000   1.172438e-03  2.346713e-06
    139    146   2   0.50000     0.0850000   -0.1150000   1.172438e-03  2.346713e-06
    139    148   2   0.50000     0.0850000   -0.1150000   1.172438e-03  2.346713e-06
    150    147   2   0.50000     0.0850000    0.0850000   1.172438e-03  2.346713e-06
    150    153   2   0.50000     0.0850000    0.1150000   2.431434e-04  1.541678e-07
    152    147   2   0.50000     0.1150000    0.0850000   2.431434e-04  1.541678e-07
    152    153   2   0.50000     0.1150000    0.1150000   5.042375e-05  1.012808e-08
    146    149   2   0.50000    -0.1150000   -0.1150000   1.172438e-03  2.346713e-06
    146    151   2   0.50000    -0.1150000   -0.1700000   9.038862e-04  9.862632e-07
    152    149   2   0.50000     0.1150000   -0.1150000   2.431434e-04  1.541678e-07
    152    151   2   0.50000     0.1150000   -0.1700000   1.874504e-04  6.479276e-08
    145    140   2   0.50000    -0.1150000   -0.1700000   9.038862e-04  9.862632e-07
    145    148   2   0.50000    -0.1150000   -0.1150000   1.172438e-03  2.346713e-06
    153    140   2   0.50000     0.1150000   -0.1700000   1.874504e-04  6.479276e-08
    153    148   2   0.50000     0.1150000   -0.1150000   2.431434e-04  1.541678e-07
    140    149   2   0.50000    -0.1700000   -0.1150000   9.038862e-04  9.862632e-07
    140    154   2   0.50000    -0.1700000    0.1150000   1.874504e-04  6.479276e-08
    146    154   2   0.50000    -0.1150000    0.1150000   2.431434e-04  1.541678e-07
    147    155   2   0.50000     0.0850000    0.1150000   2.431434e-04  1.541678e-07
    154    150   2   0.50000     0.1150000    0.0850000   2.431434e-04  1.541678e-07
    154    155   2   0.50000     0.1150000    0.1150000   5.042375e-05  1.012808e-08
    148    151   2   0.50000    -0.1150000   -0.1700000   9.038862e-04  9.862632e-07
    155    145   2   0.50000     0.1150000   -0.1150000   2.431434e-04  1.541678e-07
    155    151   2   0.50000     0.1150000   -0.1700000   1.874504e-04  6.479276e-08
    145    158   2   0.50000    -0.1150000    0.0850000   1.172438e-03  2.346713e-06
    149    158   2   0.50000    -0.1150000    0.0850000   1.172438e-03  2.346713e-06
    150    157   2   0.50000     0.0850000   -0.1150000   1.172438e-03  2.346713e-06
    150    159   2   0.50000     0.0850000   -0.1150000   1.172438e-03  2.346713e-06
    161    158   2   0.50000     0.0850000    0.0850000   1.172438e-03  2.346713e-06
    161    164   2   0.50000     0.0850000    0.1150000   2.431434e-04  1.541678e-07
    163    158   2   0.50000     0.1150000    0.0850000   2.431434e-04  1.541678e-07
    163    164   2   0.50000     0.1150000    0.1150000   5.042375e-05  1.012808e-08
    157    160   2   0.50000    -0.1150000   -0.1150000   1.172438e-03  2.346713e-06
    157    162   2   0.50000    -0.1150000   -0.1700000   9.038862e-04  9.862632e-07
    163    160   2   0.50000     0.1150000   -0.1150000   2.431434e-04  1.541678e-07
    163    162   2   0.50000     0.1150000   -0.1700000   1.874504e-04  6.479276e-08
    156    151   2   0.50000    -0.1150000   -0.1700000   9.038862e-04  9.862632e-07
    156    159   2   0.50000    -0.1150000   -0.1150000   1.172438e-03  2.346713e-06
    164    151   2   0.50000     0.1150000   -0.1700000   1.874504e-04  6.479276e-08
    164    159   2   0.50000     0.1150000   -0.1150000   2.431434e-04  1.541678e-07
    151    160   2   0.50000    -0.1700000   -0.1150000   9.038862e-04  9.862632e-07
    151    165   2   0.50000    -0.1700000    0.1150000   1.874504e-04  6.479276e-08
    157    165   2   0.50000    -0.1150000    0.1150000   2.431434e-04  1.541678e-07
    158    166   2   0.50000     0.0850000    0.1150000   2.431434e-04  1.541678e-07
    165    161   2   0.50000     0.1150000    0.0850000   2.431434e-04  1.541678e-07
    165    166   2   0.50000     0.1150000    0.1150000   5.042375e-05  1.012808e-08
    159    162   2   0.50000    -0.1150000   -0.1700000   9.038862e-04  9.862632e-07
    166    156   2   0.50000     0.1150000   -0.1150000   2.431434e-04  1.541678e-07
    166    162   2   0.50000     0.1150000   -0.1700000   1.874504e-04  6.479276e-08
    156    169   2   0.50000    -0.1150000    0.0850000   1.172438e-03  2.346713e-06
    160    169   2   0.50000    -0.1150000    0.0850000   1.172438e-03  2.346713e-06
    161    168   2   0.50000     0.0850000   -0.1150000   1.172438e-03  2.346713e-06
    161    170   2   0.50000     0.0850000   -0.1150000   1.172438e-03  2.346713e-06
    172    169   2   0.50000     0.0850000    0.0850000   1.172438e-03  2.346713e-06
    172    175   2   0.50000     0.0850000    0.1150000   2.431434e-04  1.541678e-07
    174    169   2   0.50000     0.1150000    0.0850000   2.431434e-04  1.541678e-07
    174    175   2   0.50000     0.1150000    0.1150000   5.042375e-05  1.012808e-08
    168    171   2   0.50000    -0.1150000   -0.1150000   1.172438e-03  2.346713e-06
    168    173   2   0.50000    -0.1150000   -0.1700000   9.038862e-04  9.862632e-07
    174    171   2   0.50000     0.1150000   -0.1150000   2.431434e-04  1.541678e-07
    174    173   2   0.50000     0.1150000   -0.1700000   1.874504e-04  6.479276e-08
    167    162   2   0.50000    -0.1150000   -0.1700000   9.038862e-04  9.862632e-07
    167    170   2   0.50000    -0.1150000   -0.1150000   1.172438e-03  2.346713e-06
    175    162   2   0.50000     0.1150000   -0.1700000   1.874504e-04  6.479276e-08
    175    170   2   0.50000     0.1150000   -0.1150000   2.431434e-04  1.541678e-07
    162    171   2   0.50000    -0.1700000   -0.1150000   9.038862e-04  9.862632e-07
    162    176   2   0.50000    -0.1700000    0.1150000   1.874504e-04  6.479276e-08
    168    176   2   0.50000    -0.1150000    0.1150000   2.431434e-04  1.541678e-07
    169    177   2   0.50000     0.0850000    0.1150000   2.431434e-04  1.541678e-07
    176    172   2   0.50000     0.1150000    0.0850000   2.431434e-04  1.541678e-07
    176    177   2   0.50000     0.1150000    0.1150000   5.042375e-05  1.012808e-08
    170    173   2   0.50000    -0.1150000   -0.1700000   9.038862e-04  9.862632e-07
    177    167   2   0.50000     0.1150000   -0.1150000   2.431434e-04  1.541678e-07
    177    173   2   0.50000     0.1150000   -0.1700000   1.874504e-04  6.479276e-08
    167    180   2   0.50000    -0.1150000    0.0850000   1.172438e-03  2.346713e-06
    171    180   2   0.50000    -0.1150000    0.0850000   1.172438e-03  2.346713e-06
    172    179   2   0.50000     0.0850000   -0.1150000   1.172438e-03  2.346713e-06
    172    181   2   0.50000     0.0850000   -0.1150000   1.172438e-03  2.346713e-06
    183    180   2   0.50000     0.0850000    0.0850000   1.172438e-03  2.346713e-06
    183    186   2   0.50000     0.0850000    0.1150000   2.431434e-04  1.541678e-07
    185    180   2   0.50000     0.1150000    0.0850000   2.431434e-04  1.541678e-07
    185    186   2   0.50000     0.1150000    0.1150000   5.042375e-05  1.012808e-08
    179    182   2   0.50000    -0.1150000   -0.1150000   1.172438e-03  2.346713e-06
    179    184   2   0.50000    -0.1150000   -0.1700000   9.038862e-04  9.862632e-07
    185    182   2   0.50000     0.1150000   -0.1150000   2.431434e-04  1.541678e-07
    185    184   2   0.50000     0.1150000   -0.1700000   1.874504e-04  6.479276e-08
    178    173   2   0.50000    -0.1150000   -0.1700000   9.038862e-04  9.862632e-07
    178    181   2   0.50000    -0.1150000   -0.1150000   1.172438e-03  2.346713e-06
    186    173   2   0.50000     0.1150000   -0.1700000   1.874504e-04  6.479276e-08
    186    181   2   0.50000     0.1150000   -0.1150000   2.431434e-04  1.541678e-07
    173    182   2   0.50000    -0.1700000   -0.1150000   9.038862e-04  9.862632e-07
    173    187   2   0.50000    -0.1700000    0.1150000   1.874504e-04  6.479276e-08
    179    187   2   0.50000    -0.1150000    0.1150000   2.431434e-04  1.541678e-07
    180    188   2   0.50000     0.0850000    0.1150000   2.431434e-04  1.541678e-07
    187    183   2   0.50000     0.1150000    0.0850000   2.431434e-04  1.541678e-07
    187    188   2   0.50000     0.1150000    0.1150000   5.042375e-05  1.012808e-08
    181    184   2   0.50000    -0.1150000   -0.1700000   9.038862e-04  9.862632e-07
    188    178   2   0.50000     0.1150000   -0.1150000   2.431434e-04  1.541678e-07
    188    184   2   0.50000     0.1150000   -0.1700000   1.874504e-04  6.479276e-08
    178    191   2   0.50000    -0.1150000    0.0850000   1.172438e-03  2.346713e-06
    182    191   2   0.50000    -0.1150000    0.0850000   1.172438e-03  2.346713e-06
    183    190   2   0.50000     0.0850000   -0.1150000   1.172438e-03  2.346713e-06
    183    192   2   0.50000     0.0850000   -0.1150000   1.172438e-03  2.346713e-06
    194    191   2   0.50000     0.0850000    0.0850000   1.172438e-03  2.346713e-06
    194    197   2   0.50000     0.0850000    0.1150000   2.431434e-04  1.541678e-07
    196    191   2   0.50000     0.1150000    0.0850000   2.431434e-04  1.541678e-07
    196    197   2   0.50000     0.1150000    0.1150000   5.042375e-05  1.012808e-08
    190    193   2   0.50000    -0.1150000   -0.1150000   1.172438e-03  2.346713e-06
    190    195   2   0.50000    -0.1150000   -0.1700000   9.038862e-04  9.862632e-07
    196    193   2   0.50000     0.1150000   -0.1150000   2.431434e-04  1.541678e-07
    196    195   2   0.50000     0.1150000   -0.1700000   1.874504e-04  6.479276e-08
    189    184   2   0.50000    -0.1150000   -0.1700000   9.038862e-04  9.862632e-07
    189    192   2   0.50000    -0.1150000   -0.1150000   1.172438e-03  2.346713e-06
    197    184   2   0.50000     0.1150000   -0.1700000   1.874504e-04  6.479276e-08
    197    192   2   0.50000     0.1150000   -0.1150000   2.431434e-04  1.541678e-07
    184    193   2   0.50000    -0.1700000   -0.1150000   9.038862e-04  9.862632e-07
    184    198   2   0.50000    -0.1700000    0.1150000   1.874504e-04  6.479276e-08
    190    198   2   0.50000    -0.1150000    0.1150000   2.431434e-04  1.541678e-07
    191    199   2   0.50000     0.0850000    0.1150000   2.431434e-04  1.541678e-07
    198    194   2   0.50000     0.1150000    0.0850000   2.431434e-04  1.541678e-07
    198    199   2   0.50000     0.1150000    0.1150000   5.042375e-05  1.012808e-08
    192    195   2   0.50000    -0.1150000   -0.1700000   9.038862e-04  9.862632e-07
    199    189   2   0.50000     0.1150000   -0.1150000   2.431434e-04  1.541678e-07
    199    195   2   0.50000     0.1150000   -0.1700000   1.874504e-04  6.479276e-08
    189    202   2   0.50000    -0.1150000    0.0850000   1.172438e-03  2.346713e-06
    193    202   2   0.50000    -0.1150000    0.0850000   1.172438e-03  2.346713e-06
    194    201   2   0.50000     0.0850000   -0.1150000   1.172438e-03  2.346713e-06
    194    203   2   0.50000     0.0850000   -0.1150000   1.172438e-03  2.346713e-06
    205    202   2   0.50000     0.0850000    0.0850000   1.172438e-03  2.346713e-06
    205    208   2   0.50000     0.0850000    0.1150000   2.431434e-04  1.541678e-07
    207    202   2   0.50000     0.1150000    0.0850000   2.431434e-04  1.541678e-07
    207    208   2   0.50000     0.1150000    0.1150000   5.042375e-05  1.012808e-08
    201    204   2   0.50000    -0.1150000   -0.1150000   1.172438e-03  2.346713e-06
    201    206   2   0.50000    -0.1150000   -0.1700000   9.038862e-04  9.862632e-07
    207    204   2   0.50000     0.1150000   -0.1150000   2.431434e-04  1.541678e-07
    207    206   2   0.50000     0.1150000   -0.1700000   1.874504e-04  6.479276e-08
    200    195   2   0.50000    -0.1150000   -0.1700000   9.038862e-04  9.862632e-07
    200    203   2   0.50000    -0.1150000   -0.1150000   1.172438e-03  2.346713e-06
    208    195   2   0.50000     0.1150000   -0.1700000   1.874504e-04  6.479276e-08
    208    203   2   0.50000     0.1150000   -0.1150000   2.431434e-04  1.541678e-07
    195    204   2   0.50000    -0.1700000   -0.1150000   9.038862e-04  9.862632e-07
    195    209   2   0.50000    -0.1700000    0.1150000   1.874504e-04  6.479276e-08
    201    209   2   0.50000    -0.1150000    0.1150000   2.431434e-04  1.541678e-07
    202    210   2   0.50000     0.0850000    0.1150000   2.431434e-04  1.541678e-07
    209    205   2   0.50000     0.1150000    0.0850000   2.431434e-04  1.541678e-07
    209    210   2   0.50000     0.1150000    0.1150000   5.042375e-05  1.012808e-08
    203    206   2   0.50000    -0.1150000   -0.1700000   9.038862e-04  9.862632e-07
    210    200   2   0.50000     0.1150000   -0.1150000   2.431434e-04  1.541678e-07
    210    206   2   0.50000     0.1150000   -0.1700000   1.874504e-04  6.479276e-08
    200    213   2   0.50000    -0.1150000    0.0850000   1.172438e-03  2.346713e-06
    204    213   2   0.50000    -0.1150000    0.0850000   1.172438e-03  2.346713e-06
    205    212   2   0.50000     0.0850000   -0.1150000   1.172438e-03  2.346713e-06
    205    214   2   0.50000     0.0850000   -0.1150000   1.172438e-03  2.346713e-06
    216    213   2   0.50000     0.1500000    0.0850000   1.172438e-03  2.346713e-06
    216    219   2   0.50000     0.1500000    0.1150000   2.431434e-04  1.541678e-07
    218    213   2   0.50000     0.1150000    0.0850000   2.431434e-04  1.541678e-07
    218    219   2   0.50000     0.1150000    0.1150000   5.042375e-05  1.012808e-08
    212    215   2   0.50000    -0.1150000   -0.1150000   1.172438e-03  2.346713e-06
    212    217   2   0.50000    -0.1150000   -0.5850000   1.181668e-03  1.529662e-06
    218    215   2   0.50000     0.1150000   -0.1150000   2.431434e-04  1.541678e-07
    218    217   2   0.50000     0.1150000   -0.5850000   2.450575e-04  1.004915e-07
    211    206   2   0.50000    -0.1150000   -0.1700000   9.038862e-04  9.862632e-07
    211    214   2   0.50000    -0.1150000   -0.1150000   1.172438e-03  2.346713e-06
    219    206   2   0.50000     0.1150000   -0.1700000   1.874504e-04  6.479276e-08
    219    214   2   0.50000     0.1150000   -0.1150000   2.431434e-04  1.541678e-07
    206    215   2   0.50000    -0.1700000   -0.1150000   9.038862e-04  9.862632e-07
    206    220   2   0.50000    -0.1700000    0.1150000   1.874504e-04  6.479276e-08
    212    220   2   0.50000    -0.1150000    0.1150000   2.431434e-04  1.541678e-07
    213    221   2   0.50000     0.0850000    0.1150000   2.431434e-04  1.541678e-07
    220    216   2   0.50000     0.1150000    0.1500000   2.431434e-04  1.541678e-07
    220    221   2   0.50000     0.1150000    0.1150000   5.042375e-05  1.012808e-08
    214    217   2   0.50000    -0.1150000   -0.5850000   1.181668e-03  1.529662e-06
    221    211   2   0.50000     0.1150000   -0.1150000   2.431434e-04  1.541678e-07
    221    217   2   0.50000     0.1150000   -0.5850000   2.450575e-04  1.004915e-07
    211    222   2   0.50000    -0.1150000    0.4350000   2.144502e-06  1.199282e-11
    215    222   2   0.50000    -0.1150000    0.4350000   2.144502e-06  1.199282e-11

[ angles ]
; ai  aj  ak
      2      1      6   1    120.0000    527.1840
      2      1      8   1    120.0000    292.8800
      6      1      8   1    120.0000    292.8800
      1      2      3   1    120.0000    527.1840
      1      2      9   1    120.0000    292.8800
      3      2      9   1    120.0000    292.8800
      2      3      4   1    120.0000    527.1840
      2      3     12   1    120.0000    292.8800
      4      3     12   1    120.0000    292.8800
      3      4      5   1    120.0000    527.1840
      3      4     10   1    120.0000    292.8800
      5      4     10   1    120.0000    292.8800
      4      5      6   1    120.0000    527.1840
      4      5     11   1    120.0000    292.8800
      6      5     11   1    120.0000    292.8800
      1      6      5   1    120.0000    527.1840
      1      6      7   1    120.0000    585.7600
      5      6      7   1    120.0000    585.7600
      6      7     15   1    114.7000    711.2800
     14     13     18   1    120.0000    527.1840
     14     13     20   1    120.0000    292.8800
     18     13     20   1    120.0000    292.8800
     13     14     15   1    120.0000    527.1840
     13     14     21   1    120.0000    292.8800
     15     14     21   1    120.0000    292.8800
      7     15     14   1    120.0000    585.7600
      7     15     16   1    120.0000    585.7600
     14     15     16   1    120.0000    527.1840
     15     16     17   1    120.0000    527.1840
     15     16     22   1    120.0000    292.8800
     17     16     22   1    120.0000    292.8800
     16     17     18   1    120.0000    527.1840
     16     17     23   1    120.0000    292.8800
     18     17     23   1    120.0000    292.8800
     13     18     17   1    120.0000    527.1840
     13     18     19   1    120.0000    585.7600
     17     18     19   1    120.0000    585.7600
     18     19     26   1    114.7000    711.2800
     25     24     29   1    120.0000    527.1840
     25     24     31   1    120.0000    292.8800
     29     24     31   1    120.0000    292.8800
     24     25     26   1    120.0000    527.1840
     24     25     32   1    120.0000    292.8800
     26     25     32   1    120.0000    292.8800
     19     26     25   1    120.0000    585.7600
     19     26     27   1    120.0000    585.7600
     25     26     27   1    120.0000    527.1840
     26     27     28   1    120.0000    527.1840
     26     27     33   1    120.0000    292.8800
     28     27     33   1    120.0000    292.8800
     27     28     29   1    120.0000    527.1840
     27     28     34   1    120.0000    292.8800
     29     28     34   1    120.0000    292.8800
     24     29     28   1    120.0000    527.1840
     24     29     30   1    120.0000    585.7600
     28     29     30   1    120.0000    585.7600
     29     30     37   1    114.7000    711.2800
     36     35     40   1    120.0000    527.1840
     36     35     42   1    120.0000    292.8800
     40     35     42   1    120.0000    292.8800
     35     36     37   1    120.0000    527.1840
     35     36     43   1    120.0000    292.8800
     37     36     43   1    120.0000    292.8800
     30     37     36   1    120.0000    585.7600
     30     37     38   1    120.0000    585.7600
     36     37     38   1    120.0000    527.1840
     37     38     39   1    120.0000    527.1840
     37     38     44   1    120.0000    292.8800
     39     38     44   1    120.0000    292.8800
     38     39     40   1    120.0000    527.1840
     38     39     45   1    120.0000    292.8800
     40     39     45   1    120.0000    292.8800
     35     40     39   1    120.0000    527.1840
     35     40     41   1    120.0000    585.7600
     39     40     41   1    120.0000    585.7600
     40     41     48   1    114.7000    711.2800
     47     46     51   1    120.0000    527.1840
     47     46     53   1    120.0000    292.8800
     51     46     53   1    120.0000    292.8800
     46     47     48   1    120.0000    527.1840
     46     47     54   1    120.0000    292.8800
     48     47     54   1    120.0000    292.8800
     41     48     47   1    120.0000    585.7600
     41     48     49   1    120.0000    585.7600
     47     48     49   1    120.0000    527.1840
     48     49     50   1    120.0000    527.1840
     48     49     55   1    120.0000    292.8800
     50     49     55   1    120.0000    292.8800
     49     50     51   1    120.0000    527.1840
     49     50     56   1    120.0000    292.8800
     51     50     56   1    120.0000    292.8800
     46     51     50   1    120.0000    527.1840
     46     51     52   1    120.0000    585.7600
     50     51     52   1    120.0000    585.7600
     51     52     59   1    114.7000    711.2800
     58     57     62   1    120.0000    527.1840
     58     57     64   1    120.0000    292.8800
     62     57     64   1    120.0000    292.8800
     57     58     59   1    120.0000    527.1840
     57     58     65   1    120.0000    292.8800
     59     58     65   1    120.0000    292.8800
     52     59     58   1    120.0000    585.7600
     52     59     60   1    120.0000    585.7600
     58     59     60   1    120.0000    527.1840
     59     60     61   1    120.0000    527.1840
     59     60     66   1    120.0000    292.8800
     61     60     66   1    120.0000    292.8800
     60     61     62   1    120.0000    527.1840
     60     61     67   1    120.0000    292.8800
     62     61     67   1    120.0000    292.8800
     57     62     61   1    120.0000    527.1840
     57     62     63   1    120.0000    585.7600
     61     62     63   1    120.0000    585.7600
     62     63     70   1    114.7000    711.2800
     69     68     73   1    120.0000    527.1840
     69     68     75   1    120.0000    292.8800
     73     68     75   1    120.0000    292.8800
     68     69     70   1    120.0000    527.1840
     68     69     76   1    120.0000    292.8800
     70     69     76   1    120.0000    292.8800
     63     70     69   1    120.0000    585.7600
     63     70     71   1    120.0000    585.7600
     69     70     71   1    120.0000    527.1840
     70     71     72   1    120.0000    527.1840
     70     71     77   1    120.0000    292.8800
     72     71     77   1    120.0000    292.8800
     71     72     73   1    120.0000    527.1840
     71     72     78   1    120.0000    292.8800
     73     72     78   1    120.0000    292.8800
     68     73     72   1    120.0000    527.1840
     68     73     74   1    120.0000    585.7600
     72     73     74   1    120.0000    585.7600
     73     74     81   1    114.7000    711.2800
     80     79     84   1    120.0000    527.1840
     80     79     86   1    120.0000    292.8800
     84     79     86   1    120.0000    292.8800
     79     80     81   1    120.0000    527.1840
     79     80     87   1    120.0000    292.8800
     81     80     87   1    120.0000    292.8800
     74     81     80   1    120.0000    585.7600
     74     81     82   1    120.0000    585.7600
     80     81     82   1    120.0000    527.1840
     81     82     83   1    120.0000    527.1840
     81     82     88   1    120.0000    292.8800
     83     82     88   1    120.0000    292.8800
     82     83     84   1    120.0000    527.1840
     82     83     89   1    120.0000    292.8800
     84     83     89   1    120.0000    292.8800
     79     84     83   1    120.0000    527.1840
     79     84     85   1    120.0000    585.7600
     83     84     85   1    120.0000    585.7600
     84     85     92   1    114.7000    711.2800
     91     90     95   1    120.0000    527.1840
     91     90     97   1    120.0000    292.8800
     95     90     97   1    120.0000    292.8800
     90     91     92   1    120.0000    527.1840
     90     91     98   1    120.0000    292.8800
     92     91     98   1    120.0000    292.8800
     85     92     91   1    120.0000    585.7600
     85     92     93   1    120.0000    585.7600
     91     92     93   1    120.0000    527.1840
     92     93     94   1    120.0000    527.1840
     92     93     99   1    120.0000    292.8800
     94     93     99   1    120.0000    292.8800
     93     94     95   1    120.0000    527.1840
     93     94    100   1    120.0000    292.8800
     95     94    100   1    120.0000    292.8800
     90     95     94   1    120.0000    527.1840
     90     95     96   1    120.0000    585.7600
     94     95     96   1    120.0000    585.7600
     95     96    103   1    114.7000    711.2800
    102    101    106   1    120.0000    527.1840
    102    101    108   1    120.0000    292.8800
    106    101    108   1    120.0000    292.8800
    101    102    103   1    120.0000    527.1840
    101    102    109   1    120.0000    292.8800
    103    102    109   1    120.0000    292.8800
     96    103    102   1    120.0000    585.7600
     96    103    104   1    120.0000    585.7600
    102    103    104   1    120.0000    527.1840
    103    104    105   1    120.0000    527.1840
    103    104    110   1    120.0000    292.8800
    105    104    110   1    120.0000    292.8800
    104    105    106   1    120.0000    527.1840
    104    105    111   1    120.0000    292.8800
    106    105    111   1    120.0000    292.8800
    101    106    105   1    120.0000    527.1840
    101    106    107   1    120.0000    585.7600
    105    106    107   1    120.0000    585.7600
    106    107    114   1    114.7000    711.2800
    113    112    117   1    120.0000    527.1840
    113    112    119   1    120.0000    292.8800
    117    112    119   1    120.0000    292.8800
    112    113    114   1    120.0000    527.1840
    112    113    120   1    120.0000    292.8800
    114    113    120   1    120.0000    292.8800
    107    114    113   1    120.0000    585.7600
    107    114    115   1    120.0000    585.7600
    113    114    115   1    120.0000    527.1840
    114    115    116   1    120.0000    527.1840
    114    115    121   1    120.0000    292.8800
    116    115    121   1    120.0000    292.8800
    115    116    117   1    120.0000    527.1840
    115    116    122   1    120.0000    292.8800
    117    116    122   1    120.0000    292.8800
    112    117    116   1    120.0000    527.1840
    112    117    118   1    120.0000    585.7600
    116    117    118   1    120.0000    585.7600
    117    118    125   1    114.7000    711.2800
    124    123    128   1    120.0000    527.1840
    124    123    130   1    120.0000    292.8800
    128    123    130   1    120.0000    292.8800
    123    124    125   1    120.0000    527.1840
    123    124    131   1    120.0000    292.8800
    125    124    131   1    120.0000    292.8800
    118    125    124   1    120.0000    585.7600
    118    125    126   1    120.0000    585.7600
    124    125    126   1    120.0000    527.1840
    125    126    127   1    120.0000    527.1840
    125    126    132   1    120.0000    292.8800
    127    126    132   1    120.0000    292.8800
    126    127    128   1    120.0000    527.1840
    126    127    133   1    120.0000    292.8800
    128    127    133   1    120.0000    292.8800
    123    128    127   1    120.0000    527.1840
    123    128    129   1    120.0000    585.7600
    127    128    129   1    120.0000    585.7600
    128    129    136   1    114.7000    711.2800
    135    134    139   1    120.0000    527.1840
    135    134    141   1    120.0000    292.8800
    139    134    141   1    120.0000    292.8800
    134    135    136   1    120.0000    527.1840
    134    135    142   1    120.0000    292.8800
    136    135    142   1    120.0000    292.8800
    129    136    135   1    120.0000    585.7600
    129    136    137   1    120.0000    585.7600
    135    136    137   1    120.0000    527.1840
    136    137    138   1    120.0000    527.1840
    136    137    143   1    120.0000    292.8800
    138    137    143   1    120.0000    292.8800
    137    138    139   1    120.0000    527.1840
    137    138    144   1    120.0000    292.8800
    139    138    144   1    120.0000    292.8800
    134    139    138   1    120.0000    527.1840
    134    139    140   1    120.0000    585.7600
    138    139    140   1    120.0000    585.7600
    139    140    147   1    114.7000    711.2800
    146    145    150   1    120.0000    527.1840
    146    145    152   1    120.0000    292.8800
    150    145    152   1    120.0000    292.8800
    145    146    147   1    120.0000    527.1840
    145    146    153   1    120.0000    292.8800
    147    146    153   1    120.0000    292.8800
    140    147    146   1    120.0000    585.7600
    140    147    148   1    120.0000    585.7600
    146    147    148   1    120.0000    527.1840
    147    148    149   1    120.0000    527.1840
    147    148    154   1    120.0000    292.8800
    149    148    154   1    120.0000    292.8800
    148    149    150   1    120.0000    527.1840
    148    149    155   1    120.0000    292.8800
    150    149    155   1    120.0000    292.8800
    145    150    149   1    120.0000    527.1840
    145    150    151   1    120.0000    585.7600
    149    150    151   1    120.0000    585.7600
    150    151    158   1    114.7000    711.2800
    157    156    161   1    120.0000    527.1840
    157    156    163   1    120.0000    292.8800
    161    156    163   1    120.0000    292.8800
    156    157    158   1    120.0000    527.1840
    156    157    164   1    120.0000    292.8800
    158    157    164   1    120.0000    292.8800
    151    158    157   1    120.0000    585.7600
    151    158    159   1    120.0000    585.7600
    157    158    159   1    120.0000    527.1840
    158    159    160   1    120.0000    527.1840
    158    159    165   1    120.0000    292.8800
    160    159    165   1    120.0000    292.8800
    159    160    161   1    120.0000    527.1840
    159    160    166   1    120.0000    292.8800
    161    160    166   1    120.0000    292.8800
    156    161    160   1    120.0000    527.1840
    156    161    162   1    120.0000    585.7600
    160    161    162   1    120.0000    585.7600
    161    162    169   1    114.7000    711.2800
    168    167    172   1    120.0000    527.1840
    168    167    174   1    120.0000    292.8800
    172    167    174   1    120.0000    292.8800
    167    168    169   1    120.0000    527.1840
    167    168    175   1    120.0000    292.8800
    169    168    175   1    120.0000    292.8800
    162    169    168   1    120.0000    585.7600
    162    169    170   1    120.0000    585.7600
    168    169    170   1    120.0000    527.1840
    169    170    171   1    120.0000    527.1840
    169    170    176   1    120.0000    292.8800
    171    170    176   1    120.0000    292.8800
    170    171    172   1    120.0000    527.1840
    170    171    177   1    120.0000    292.8800
    172    171    177   1    120.0000    292.8800
    167    172    171   1    120.0000    527.1840
    167    172    173   1    120.0000    585.7600
    171    172    173   1    120.0000    585.7600
    172    173    180   1    114.7000    711.2800
    179    178    183   1    120.0000    527.1840
    179    178    185   1    120.0000    292.8800
    183    178    185   1    120.0000    292.8800
    178    179    180   1    120.0000    527.1840
    178    179    186   1    120.0000    292.8800
    180    179    186   1    120.0000    292.8800
    173    180    179   1    120.0000    585.7600
    173    180    181   1    120.0000    585.7600
    179    180    181   1    120.0000    527.1840
    180    181    182   1    120.0000    527.1840
    180    181    187   1    120.0000    292.8800
    182    181    187   1    120.0000    292.8800
    181    182    183   1    120.0000    527.1840
    181    182    188   1    120.0000    292.8800
    183    182    188   1    120.0000    292.8800
    178    183    182   1    120.0000    527.1840
    178    183    184   1    120.0000    585.7600
    182    183    184   1    120.0000    585.7600
    183    184    191   1    114.7000    711.2800
    190    189    194   1    120.0000    527.1840
    190    189    196   1    120.0000    292.8800
    194    189    196   1    120.0000    292.8800
    189    190    191   1    120.0000    527.1840
    189    190    197   1    120.0000    292.8800
    191    190    197   1    120.0000    292.8800
    184    191    190   1    120.0000    585.7600
    184    191    192   1    120.0000    585.7600
    190    191    192   1    120.0000    527.1840
    191    192    193   1    120.0000    527.1840
    191    192    198   1    120.0000    292.8800
    193    192    198   1    120.0000    292.8800
    192    193    194   1    120.0000    527.1840
    192    193    199   1    120.0000    292.8800
    194    193    199   1    120.0000    292.8800
    189    194    193   1    120.0000    527.1840
    189    194    195   1    120.0000    585.7600
    193    194    195   1    120.0000    585.7600
    194    195    202   1    114.7000    711.2800
    201    200    205   1    120.0000    527.1840
    201    200    207   1    120.0000    292.8800
    205    200    207   1    120.0000    292.8800
    200    201    202   1    120.0000    527.1840
    200    201    208   1    120.0000    292.8800
    202    201    208   1    120.0000    292.8800
    195    202    201   1    120.0000    585.7600
    195    202    203   1    120.0000    585.7600
    201    202    203   1    120.0000    527.1840
    202    203    204   1    120.0000    527.1840
    202    203    209   1    120.0000    292.8800
    204    203    209   1    120.0000    292.8800
    203    204    205   1    120.0000    527.1840
    203    204    210   1    120.0000    292.8800
    205    204    210   1    120.0000    292.8800
    200    205    204   1    120.0000    527.1840
    200    205    206   1    120.0000    585.7600
    204    205    206   1    120.0000    585.7600
    205    206    213   1    114.7000    711.2800
    212    211    216   1    120.0000    527.1840
    212    211    218   1    120.0000    292.8800
    216    211    218   1    120.0000    292.8800
    211    212    213   1    120.0000    527.1840
    211    212    219   1    120.0000    292.8800
    213    212    219   1    120.0000    292.8800
    206    213    212   1    120.0000    585.7600
    206    213    214   1    120.0000    585.7600
    212    213    214   1    120.0000    527.1840
    213    214    215   1    120.0000    527.1840
    213    214    220   1    120.0000    292.8800
    215    214    220   1    120.0000    292.8800
    214    215    216   1    120.0000    527.1840
    214    215    221   1    120.0000    292.8800
    216    215    221   1    120.0000    292.8800
    211    216    215   1    120.0000    527.1840
    211    216    217   1    120.0000    585.7600
    215    216    217   1    120.0000    585.7600
    216    217    222   1    113.0000    292.8800

[ dihedrals ]
; Proper dihedrals
      6      1      2      3   5     0.00000    30.33400     0.00000  0.0
      6      1      2      9   5     0.00000    30.33400     0.00000  0.0
      8      1      2      3   5     0.00000    30.33400     0.00000  0.0
      8      1      2      9   5     0.00000    30.33400     0.00000  0.0
      2      1      6      5   5     0.00000    30.33400     0.00000  0.0
      2      1      6      7   5     0.00000    30.33400     0.00000  0.0
      8      1      6      5   5     0.00000    30.33400     0.00000  0.0
      8      1      6      7   5     0.00000    30.33400     0.00000  0.0
      1      2      3      4   5     0.00000    30.33400     0.00000  0.0
      1      2      3     12   5     0.00000    30.33400     0.00000  0.0
      9      2      3      4   5     0.00000    30.33400     0.00000  0.0
      9      2      3     12   5     0.00000    30.33400     0.00000  0.0
      2      3      4      5   5     0.00000    30.33400     0.00000  0.0
      2      3      4     10   5     0.00000    30.33400     0.00000  0.0
     12      3      4      5   5     0.00000    30.33400     0.00000  0.0
     12      3      4     10   5     0.00000    30.33400     0.00000  0.0
      3      4      5      6   5     0.00000    30.33400     0.00000  0.0
      3      4      5     11   5     0.00000    30.33400     0.00000  0.0
     10      4      5      6   5     0.00000    30.33400     0.00000  0.0
     10      4      5     11   5     0.00000    30.33400     0.00000  0.0
      4      5      6      1   5     0.00000    30.33400     0.00000  0.0
      4      5      6      7   5     0.00000    30.33400     0.00000  0.0
     11      5      6      1   5     0.00000    30.33400     0.00000  0.0
     11      5      6      7   5     0.00000    30.33400     0.00000  0.0
      1      6      7     15   5     0.00000     3.94551     0.00000  0.0
      5      6      7     15   5     0.00000     3.94551     0.00000  0.0
      6      7     15     14   5     0.00000     3.94551     0.00000  0.0
      6      7     15     16   5     0.00000     3.94551     0.00000  0.0
     18     13     14     15   5     0.00000    30.33400     0.00000  0.0
     18     13     14     21   5     0.00000    30.33400     0.00000  0.0
     20     13     14     15   5     0.00000    30.33400     0.00000  0.0
     20     13     14     21   5     0.00000    30.33400     0.00000  0.0
     14     13     18     17   5     0.00000    30.33400     0.00000  0.0
     14     13     18     19   5     0.00000    30.33400     0.00000  0.0
     20     13     18     17   5     0.00000    30.33400     0.00000  0.0
     20     13     18     19   5     0.00000    30.33400     0.00000  0.0
     13     14     15      7   5     0.00000    30.33400     0.00000  0.0
     13     14     15     16   5     0.00000    30.33400     0.00000  0.0
     21     14     15      7   5     0.00000    30.33400     0.00000  0.0
     21     14     15     16   5     0.00000    30.33400     0.00000  0.0
      7     15     16     17   5     0.00000    30.33400     0.00000  0.0
      7     15     16     22   5     0.00000    30.33400     0.00000  0.0
     14     15     16     17   5     0.00000    30.33400     0.00000  0.0
     14     15     16     22   5     0.00000    30.33400     0.00000  0.0
     15     16     17     18   5     0.00000    30.33400     0.00000  0.0
     15     16     17     23   5     0.00000    30.33400     0.00000  0.0
     22     16     17     18   5     0.00000    30.33400     0.00000  0.0
     22     16     17     23   5     0.00000    30.33400     0.00000  0.0
     16     17     18     13   5     0.00000    30.33400     0.00000  0.0
     16     17     18     19   5     0.00000    30.33400     0.00000  0.0
     23     17     18     13   5     0.00000    30.33400     0.00000  0.0
     23     17     18     19   5     0.00000    30.33400     0.00000  0.0
     13     18     19     26   5     0.00000     3.94551     0.00000  0.0
     17     18     19     26   5     0.00000     3.94551     0.00000  0.0
     18     19     26     25   5     0.00000     3.94551     0.00000  0.0
     18     19     26     27   5     0.00000     3.94551     0.00000  0.0
     29     24     25     26   5     0.00000    30.33400     0.00000  0.0
     29     24     25     32   5     0.00000    30.33400     0.00000  0.0
     31     24     25     26   5     0.00000    30.33400     0.00000  0.0
     31     24     25     32   5     0.00000    30.33400     0.00000  0.0
     25     24     29     28   5     0.00000    30.33400     0.00000  0.0
     25     24     29     30   5     0.00000    30.33400     0.00000  0.0
     31     24     29     28   5     0.00000    30.33400     0.00000  0.0
     31     24     29     30   5     0.00000    30.33400     0.00000  0.0
     24     25     26     19   5     0.00000    30.33400     0.00000  0.0
     24     25     26     27   5     0.00000    30.33400     0.00000  0.0
     32     25     26     19   5     0.00000    30.33400     0.00000  0.0
     32     25     26     27   5     0.00000    30.33400     0.00000  0.0
     19     26     27     28   5     0.00000    30.33400     0.00000  0.0
     19     26     27     33   5     0.00000    30.33400     0.00000  0.0
     25     26     27     28   5     0.00000    30.33400     0.00000  0.0
     25     26     27     33   5     0.00000    30.33400     0.00000  0.0
     26     27     28     29   5     0.00000    30.33400     0.00000  0.0
     26     27     28     34   5     0.00000    30.33400     0.00000  0.0
     33     27     28     29   5     0.00000    30.33400     0.00000  0.0
     33     27     28     34   5     0.00000    30.33400     0.00000  0.0
     27     28     29     24   5     0.00000    30.33400     0.00000  0.0
     27     28     29     30   5     0.00000    30.33400     0.00000  0.0
     34     28     29     24   5     0.00000    30.33400     0.00000  0.0
     34     28     29     30   5     0.00000    30.33400     0.00000  0.0
     24     29     30     37   5     0.00000     3.94551     0.00000  0.0
     28     29     30     37   5     0.00000     3.94551     0.00000  0.0
     29     30     37     36   5     0.00000     3.94551     0.00000  0.0
     29     30     37     38   5     0.00000     3.94551     0.00000  0.0
     40     35     36     37   5     0.00000    30.33400     0.00000  0.0
     40     35     36     43   5     0.00000    30.33400     0.00000  0.0
     42     35     36     37   5     0.00000    30.33400     0.00000  0.0
     42     35     36     43   5     0.00000    30.33400     0.00000  0.0
     36     35     40     39   5     0.00000    30.33400     0.00000  0.0
     36     35     40     41   5     0.00000    30.33400     0.00000  0.0
     42     35     40     39   5     0.00000    30.33400     0.00000  0.0
     42     35     40     41   5     0.00000    30.33400     0.00000  0.0
     35     36     37     30   5     0.00000    30.33400     0.00000  0.0
     35     36     37     38   5     0.00000    30.33400     0.00000  0.0
     43     36     37     30   5     0.00000    30.33400     0.00000  0.0
     43     36     37     38   5     0.00000    30.33400     0.00000  0.0
     30     37     38     39   5     0.00000    30.33400     0.00000  0.0
     30     37     38     44   5     0.00000    30.33400     0.00000  0.0
     36     37     38     39   5     0.00000    30.33400     0.00000  0.0
     36     37     38     44   5     0.00000    30.33400     0.00000  0.0
     37     38     39     40   5     0.00000    30.33400     0.00000  0.0
     37     38     39     45   5     0.00000    30.33400     0.00000  0.0
     44     38     39     40   5     0.00000    30.33400     0.00000  0.0
     44     38     39     45   5     0.00000    30.33400     0.00000  0.0
     38     39     40     35   5     0.00000    30.33400     0.00000  0.0
     38     39     40     41   5     0.00000    30.33400     0.00000  0.0
     45     39     40     35   5     0.00000    30.33400     0.00000  0.0
     45     39     40     41   5     0.00000    30.33400     0.00000  0.0
     35     40     41     48   5     0.00000     3.94551     0.00000  0.0
     39     40     41     48   5     0.00000     3.94551     0.00000  0.0
     40     41     48     47   5     0.00000     3.94551     0.00000  0.0
     40     41     48     49   5     0.00000     3.94551     0.00000  0.0
     51     46     47     48   5     0.00000    30.33400     0.00000  0.0
     51     46     47     54   5     0.00000    30.33400     0.00000  0.0
     53     46     47     48   5     0.00000    30.33400     0.00000  0.0
     53     46     47     54   5     0.00000    30.33400     0.00000  0.0
     47     46     51     50   5     0.00000    30.33400     0.00000  0.0
     47     46     51     52   5     0.00000    30.33400     0.00000  0.0
     53     46     51     50   5     0.00000    30.33400     0.00000  0.0
     53     46     51     52   5     0.00000    30.33400     0.00000  0.0
     46     47     48     41   5     0.00000    30.33400     0.00000  0.0
     46     47     48     49   5     0.00000    30.33400     0.00000  0.0
     54     47     48     41   5     0.00000    30.33400     0.00000  0.0
     54     47     48     49   5     0.00000    30.33400     0.00000  0.0
     41     48     49     50   5     0.00000    30.33400     0.00000  0.0
     41     48     49     55   5     0.00000    30.33400     0.00000  0.0
     47     48     49     50   5     0.00000    30.33400     0.00000  0.0
     47     48     49     55   5     0.00000    30.33400     0.00000  0.0
     48     49     50     51   5     0.00000    30.33400     0.00000  0.0
     48     49     50     56   5     0.00000    30.33400     0.00000  0.0
     55     49     50     51   5     0.00000    30.33400     0.00000  0.0
     55     49     50     56   5     0.00000    30.33400     0.00000  0.0
     49     50     51     46   5     0.00000    30.33400     0.00000  0.0
     49     50     51     52   5     0.00000    30.33400     0.00000  0.0
     56     50     51     46   5     0.00000    30.33400     0.00000  0.0
     56     50     51     52   5     0.00000    30.33400     0.00000  0.0
     46     51     52     59   5     0.00000     3.94551     0.00000  0.0
     50     51     52     59   5     0.00000     3.94551     0.00000  0.0
     51     52     59     58   5     0.00000     3.94551     0.00000  0.0
     51     52     59     60   5     0.00000     3.94551     0.00000  0.0
     62     57     58     59   5     0.00000    30.33400     0.00000  0.0
     62     57     58     65   5     0.00000    30.33400     0.00000  0.0
     64     57     58     59   5     0.00000    30.33400     0.00000  0.0
     64     57     58     65   5     0.00000    30.33400     0.00000  0.0
     58     57     62     61   5     0.00000    30.33400     0.00000  0.0
     58     57     62     63   5     0.00000    30.33400     0.00000  0.0
     64     57     62     61   5     0.00000    30.33400     0.00000  0.0
     64     57     62     63   5     0.00000    30.33400     0.00000  0.0
     57     58     59     52   5     0.00000    30.33400     0.00000  0.0
     57     58     59     60   5     0.00000    30.33400     0.00000  0.0
     65     58     59     52   5     0.00000    30.33400     0.00000  0.0
     65     58     59     60   5     0.00000    30.33400     0.00000  0.0
     52     59     60     61   5     0.00000    30.33400     0.00000  0.0
     52     59     60     66   5     0.00000    30.33400     0.00000  0.0
     58     59     60     61   5     0.00000    30.33400     0.00000  0.0
     58     59     60     66   5     0.00000    30.33400     0.00000  0.0
     59     60     61     62   5     0.00000    30.33400     0.00000  0.0
     59     60     61     67   5     0.00000    30.33400     0.00000  0.0
     66     60     61     62   5     0.00000    30.33400     0.00000  0.0
     66     60     61     67   5     0.00000    30.33400     0.00000  0.0
     60     61     62     57   5     0.00000    30.33400     0.00000  0.0
     60     61     62     63   5     0.00000    30.33400     0.00000  0.0
     67     61     62     57   5     0.00000    30.33400     0.00000  0.0
     67     61     62     63   5     0.00000    30.33400     0.00000  0.0
     57     62     63     70   5     0.00000     3.94551     0.00000  0.0
     61     62     63     70   5     0.00000     3.94551     0.00000  0.0
     62     63     70     69   5     0.00000     3.94551     0.00000  0.0
     62     63     70     71   5     0.00000     3.94551     0.00000  0.0
     73     68     69     70   5     0.00000    30.33400     0.00000  0.0
     73     68     69     76   5     0.00000    30.33400     0.00000  0.0
     75     68     69     70   5     0.00000    30.33400     0.00000  0.0
     75     68     69     76   5     0.00000    30.33400     0.00000  0.0
     69     68     73     72   5     0.00000    30.33400     0.00000  0.0
     69     68     73     74   5     0.00000    30.33400     0.00000  0.0
     75     68     73     72   5     0.00000    30.33400     0.00000  0.0
     75     68     73     74   5     0.00000    30.33400     0.00000  0.0
     68     69     70     63   5     0.00000    30.33400     0.00000  0.0
     68     69     70     71   5     0.00000    30.33400     0.00000  0.0
     76     69     70     63   5     0.00000    30.33400     0.00000  0.0
     76     69     70     71   5     0.00000    30.33400     0.00000  0.0
     63     70     71     72   5     0.00000    30.33400     0.00000  0.0
     63     70     71     77   5     0.00000    30.33400     0.00000  0.0
     69     70     71     72   5     0.00000    30.33400     0.00000  0.0
     69     70     71     77   5     0.00000    30.33400     0.00000  0.0
     70     71     72     73   5     0.00000    30.33400     0.00000  0.0
     70     71     72     78   5     0.00000    30.33400     0.00000  0.0
     77     71     72     73   5     0.00000    30.33400     0.00000  0.0
     77     71     72     78   5     0.00000    30.33400     0.00000  0.0
     71     72     73     68   5     0.00000    30.33400     0.00000  0.0
     71     72     73     74   5     0.00000    30.33400     0.00000  0.0
     78     72     73     68   5     0.00000    30.33400     0.00000  0.0
     78     72     73     74   5     0.00000    30.33400     0.00000  0.0
     68     73     74     81   5     0.00000     3.94551     0.00000  0.0
     72     73     74     81   5     0.00000     3.94551     0.00000  0.0
     73     74     81     80   5     0.00000     3.94551     0.00000  0.0
     73     74     81     82   5     0.00000     3.94551     0.00000  0.0
     84     79     80     81   5     0.00000    30.33400     0.00000  0.0
     84     79     80     87   5     0.00000    30.33400     0.00000  0.0
     86     79     80     81   5     0.00000    30.33400     0.00000  0.0
     86     79     80     87   5     0.00000    30.33400     0.00000  0.0
     80     79     84     83   5     0.00000    30.33400     0.00000  0.0
     80     79     84     85   5     0.00000    30.33400     0.00000  0.0
     86     79     84     83   5     0.00000    30.33400     0.00000  0.0
     86     79     84     85   5     0.00000    30.33400     0.00000  0.0
     79     80     81     74   5     0.00000    30.33400     0.00000  0.0
     79     80     81     82   5     0.00000    30.33400     0.00000  0.0
     87     80     81     74   5     0.00000    30.33400     0.00000  0.0
     87     80     81     82   5     0.00000    30.33400     0.00000  0.0
     74     81     82     83   5     0.00000    30.33400     0.00000  0.0
     74     81     82     88   5     0.00000    30.33400     0.00000  0.0
     80     81     82     83   5     0.00000    30.33400     0.00000  0.0
     80     81     82     88   5     0.00000    30.33400     0.00000  0.0
     81     82     83     84   5     0.00000    30.33400     0.00000  0.0
     81     82     83     89   5     0.00000    30.33400     0.00000  0.0
     88     82     83     84   5     0.00000    30.33400     0.00000  0.0
     88     82     83     89   5     0.00000    30.33400     0.00000  0.0
     82     83     84     79   5     0.00000    30.33400     0.00000  0.0
     82     83     84     85   5     0.00000    30.33400     0.00000  0.0
     89     83     84     79   5     0.00000    30.33400     0.00000  0.0
     89     83     84     85   5     0.00000    30.33400     0.00000  0.0
     79     84     85     92   5     0.00000     3.94551     0.00000  0.0
     83     84     85     92   5     0.00000     3.94551     0.00000  0.0
     84     85     92     91   5     0.00000     3.94551     0.00000  0.0
     84     85     92     93   5     0.00000     3.94551     0.00000  0.0
     95     90     91     92   5     0.00000    30.33400     0.00000  0.0
     95     90     91     98   5     0.00000    30.33400     0.00000  0.0
     97     90     91     92   5     0.00000    30.33400     0.00000  0.0
     97     90     91     98   5     0.00000    30.33400     0.00000  0.0
     91     90     95     94   5     0.00000    30.33400     0.00000  0.0
     91     90     95     96   5     0.00000    30.33400     0.00000  0.0
     97     90     95     94   5     0.00000    30.33400     0.00000  0.0
     97     90     95     96   5     0.00000    30.33400     0.00000  0.0
     90     91     92     85   5     0.00000    30.33400     0.00000  0.0
     90     91     92     93   5     0.00000    30.33400     0.00000  0.0
     98     91     92     85   5     0.00000    30.33400     0.00000  0.0
     98     91     92     93   5     0.00000    30.33400     0.00000  0.0
     85     92     93     94   5     0.00000    30.33400     0.00000  0.0
     85     92     93     99   5     0.00000    30.33400     0.00000  0.0
     91     92     93     94   5     0.00000    30.33400     0.00000  0.0
     91     92     93     99   5     0.00000    30.33400     0.00000  0.0
     92     93     94     95   5     0.00000    30.33400     0.00000  0.0
     92     93     94    100   5     0.00000    30.33400     0.00000  0.0
     99     93     94     95   5     0.00000    30.33400     0.00000  0.0
     99     93     94    100   5     0.00000    30.33400     0.00000  0.0
     93     94     95     90   5     0.00000    30.33400     0.00000  0.0
     93     94     95     96   5     0.00000    30.33400     0.00000  0.0
    100     94     95     90   5     0.00000    30.33400     0.00000  0.0
    100     94     95     96   5     0.00000    30.33400     0.00000  0.0
     90     95     96    103   5     0.00000     3.94551     0.00000  0.0
     94     95     96    103   5     0.00000     3.94551     0.00000  0.0
     95     96    103    102   5     0.00000     3.94551     0.00000  0.0
     95     96    103    104   5     0.00000     3.94551     0.00000  0.0
    106    101    102    103   5     0.00000    30.33400     0.00000  0.0
    106    101    102    109   5     0.00000    30.33400     0.00000  0.0
    108    101    102    103   5     0.00000    30.33400     0.00000  0.0
    108    101    102    109   5     0.00000    30.33400     0.00000  0.0
    102    101    106    105   5     0.00000    30.33400     0.00000  0.0
    102    101    106    107   5     0.00000    30.33400     0.00000  0.0
    108    101    106    105   5     0.00000    30.33400     0.00000  0.0
    108    101    106    107   5     0.00000    30.33400     0.00000  0.0
    101    102    103     96   5     0.00000    30.33400     0.00000  0.0
    101    102    103    104   5     0.00000    30.33400     0.00000  0.0
    109    102    103     96   5     0.00000    30.33400     0.00000  0.0
    109    102    103    104   5     0.00000    30.33400     0.00000  0.0
     96    103    104    105   5     0.00000    30.33400     0.00000  0.0
     96    103    104    110   5     0.00000    30.33400     0.00000  0.0
    102    103    104    105   5     0.00000    30.33400     0.00000  0.0
    102    103    104    110   5     0.00000    30.33400     0.00000  0.0
    103    104    105    106   5     0.00000    30.33400     0.00000  0.0
    103    104    105    111   5     0.00000    30.33400     0.00000  0.0
    110    104    105    106   5     0.00000    30.33400     0.00000  0.0
    110    104    105    111   5     0.00000    30.33400     0.00000  0.0
    104    105    106    101   5     0.00000    30.33400     0.00000  0.0
    104    105    106    107   5     0.00000    30.33400     0.00000  0.0
    111    105    106    101   5     0.00000    30.33400     0.00000  0.0
    111    105    106    107   5     0.00000    30.33400     0.00000  0.0
    101    106    107    114   5     0.00000     3.94551     0.00000  0.0
    105    106    107    114   5     0.00000     3.94551     0.00000  0.0
    106    107    114    113   5     0.00000     3.94551     0.00000  0.0
    106    107    114    115   5     0.00000     3.94551     0.00000  0.0
    117    112    113    114   5     0.00000    30.33400     0.00000  0.0
    117    112    113    120   5     0.00000    30.33400     0.00000  0.0
    119    112    113    114   5     0.00000    30.33400     0.00000  0.0
    119    112    113    120   5     0.00000    30.33400     0.00000  0.0
    113    112    117    116   5     0.00000    30.33400     0.00000  0.0
    113    112    117    118   5     0.00000    30.33400     0.00000  0.0
    119    112    117    116   5     0.00000    30.33400     0.00000  0.0
    119    112    117    118   5     0.00000    30.33400     0.00000  0.0
    112    113    114    107   5     0.00000    30.33400     0.00000  0.0
    112    113    114    115   5     0.00000    30.33400     0.00000  0.0
    120    113    114    107   5     0.00000    30.33400     0.00000  0.0
    120    113    114    115   5     0.00000    30.33400     0.00000  0.0
    107    114    115    116   5     0.00000    30.33400     0.00000  0.0
    107    114    115    121   5     0.00000    30.33400     0.00000  0.0
    113    114    115    116   5     0.00000    30.33400     0.00000  0.0
    113    114    115    121   5     0.00000    30.33400     0.00000  0.0
    114    115    116    117   5     0.00000    30.33400     0.00000  0.0
    114    115    116    122   5     0.00000    30.33400     0.00000  0.0
    121    115    116    117   5     0.00000    30.33400     0.00000  0.0
    121    115    116    122   5     0.00000    30.33400     0.00000  0.0
    115    116    117    112   5     0.00000    30.33400     0.00000  0.0
    115    116    117    118   5     0.00000    30.33400     0.00000  0.0
    122    116    117    112   5     0.00000    30.33400     0.00000  0.0
    122    116    117    118   5     0.00000    30.33400     0.00000  0.0
    112    117    118    125   5     0.00000     3.94551     0.00000  0.0
    116    117    118    125   5     0.00000     3.94551     0.00000  0.0
    117    118    125    124   5     0.00000     3.94551     0.00000  0.0
    117    118    125    126   5     0.00000     3.94551     0.00000  0.0
    128    123    124    125   5     0.00000    30.33400     0.00000  0.0
    128    123    124    131   5     0.00000    30.33400     0.00000  0.0
    130    123    124    125   5     0.00000    30.33400     0.00000  0.0
    130    123    124    131   5     0.00000    30.33400     0.00000  0.0
    124    123    128    127   5     0.00000    30.33400     0.00000  0.0
    124    123    128    129   5     0.00000    30.33400     0.00000  0.0
    130    123    128    127   5     0.00000    30.33400     0.00000  0.0
    130    123    128    129   5     0.00000    30.33400     0.00000  0.0
    123    124    125    118   5     0.00000    30.33400     0.00000  0.0
    123    124    125    126   5     0.00000    30.33400     0.00000  0.0
    131    124    125    118   5     0.00000    30.33400     0.00000  0.0
    131    124    125    126   5     0.00000    30.33400     0.00000  0.0
    118    125    126    127   5     0.00000    30.33400     0.00000  0.0
    118    125    126    132   5     0.00000    30.33400     0.00000  0.0
    124    125    126    127   5     0.00000    30.33400     0.00000  0.0
    124    125    126    132   5     0.00000    30.33400     0.00000  0.0
    125    126    127    128   5     0.00000    30.33400     0.00000  0.0
    125    126    127    133   5     0.00000    30.33400     0.00000  0.0
    132    126    127    128   5     0.00000    30.33400     0.00000  0.0
    132    126    127    133   5     0.00000    30.33400     0.00000  0.0
    126    127    128    123   5     0.00000    30.33400     0.00000  0.0
    126    127    128    129   5     0.00000    30.33400     0.00000  0.0
    133    127    128    123   5     0.00000    30.33400     0.00000  0.0
    133    127    128    129   5     0.00000    30.33400     0.00000  0.0
    123    128    129    136   5     0.00000     3.94551     0.00000  0.0
    127    128    129    136   5     0.00000     3.94551     0.00000  0.0
    128    129    136    135   5     0.00000     3.94551     0.00000  0.0
    128    129    136    137   5     0.00000     3.94551     0.00000  0.0
    139    134    135    136   5     0.00000    30.33400     0.00000  0.0
    139    134    135    142   5     0.00000    30.33400     0.00000  0.0
    141    134    135    136   5     0.00000    30.33400     0.00000  0.0
    141    134    135    142   5     0.00000    30.33400     0.00000  0.0
    135    134    139    138   5     0.00000    30.33400     0.00000  0.0
    135    134    139    140   5     0.00000    30.33400     0.00000  0.0
    141    134    139    138   5     0.00000    30.33400     0.00000  0.0
    141    134    139    140   5     0.00000    30.33400     0.00000  0.0
    134    135    136    129   5     0.00000    30.33400     0.00000  0.0
    134    135    136    137   5     0.00000    30.33400     0.00000  0.0
    142    135    136    129   5     0.00000    30.33400     0.00000  0.0
    142    135    136    137   5     0.00000    30.33400     0.00000  0.0
    129    136    137    138   5     0.00000    30.33400     0.00000  0.0
    129    136    137    143   5     0.00000    30.33400     0.00000  0.0
    135    136    137    138   5     0.00000    30.33400     0.00000  0.0
    135    136    137    143   5     0.00000    30.33400     0.00000  0.0
    136    137    138    139   5     0.00000    30.33400     0.00000  0.0
    136    137    138    144   5     0.00000    30.33400     0.00000  0.0
    143    137    138    139   5     0.00000    30.33400     0.00000  0.0
    143    137    138    144   5     0.00000    30.33400     0.00000  0.0
    137    138    139    134   5     0.00000    30.33400     0.00000  0.0
    137    138    139    140   5     0.00000    30.33400     0.00000  0.0
    144    138    139    134   5     0.00000    30.33400     0.00000  0.0
    144    138    139    140   5     0.00000    30.33400     0.00000  0.0
    134    139    140    147   5     0.00000     3.94551     0.00000  0.0
    138    139    140    147   5     0.00000     3.94551     0.00000  0.0
    139    140    147    146   5     0.00000     3.94551     0.00000  0.0
    139    140    147    148   5     0.00000     3.94551     0.00000  0.0
    150    145    146    147   5     0.00000    30.33400     0.00000  0.0
    150    145    146    153   5     0.00000    30.33400     0.00000  0.0
    152    145    146    147   5     0.00000    30.33400     0.00000  0.0
    152    145    146    153   5     0.00000    30.33400     0.00000  0.0
    146    145    150    149   5     0.00000    30.33400     0.00000  0.0
    146    145    150    151   5     0.00000    30.33400     0.00000  0.0
    152    145    150    149   5     0.00000    30.33400     0.00000  0.0
    152    145    150    151   5     0.00000    30.33400     0.00000  0.0
    145    146    147    140   5     0.00000    30.33400     0.00000  0.0
    145    146    147    148   5     0.00000    30.33400     0.00000  0.0
    153    146    147    140   5     0.00000    30.33400     0.00000  0.0
    153    146    147    148   5     0.00000    30.33400     0.00000  0.0
    140    147    148    149   5     0.00000    30.33400     0.00000  0.0
    140    147    148    154   5     0.00000    30.33400     0.00000  0.0
    146    147    148    149   5     0.00000    30.33400     0.00000  0.0
    146    147    148    154   5     0.00000    30.33400     0.00000  0.0
    147    148    149    150   5     0.00000    30.33400     0.00000  0.0
    147    148    149    155   5     0.00000    30.33400     0.00000  0.0
    154    148    149    150   5     0.00000    30.33400     0.00000  0.0
    154    148    149    155   5     0.00000    30.33400     0.00000  0.0
    148    149    150    145   5     0.00000    30.33400     0.00000  0.0
    148    149    150    151   5     0.00000    30.33400     0.00000  0.0
    155    149    150    145   5     0.00000    30.33400     0.00000  0.0
    155    149    150    151   5     0.00000    30.33400     0.00000  0.0
    145    150    151    158   5     0.00000     3.94551     0.00000  0.0
    149    150    151    158   5     0.00000     3.94551     0.00000  0.0
    150    151    158    157   5     0.00000     3.94551     0.00000  0.0
    150    151    158    159   5     0.00000     3.94551     0.00000  0.0
    161    156    157    158   5     0.00000    30.33400     0.00000  0.0
    161    156    157    164   5     0.00000    30.33400     0.00000  0.0
    163    156    157    158   5     0.00000    30.33400     0.00000  0.0
    163    156    157    164   5     0.00000    30.33400     0.00000  0.0
    157    156    161    160   5     0.00000    30.33400     0.00000  0.0
    157    156    161    162   5     0.00000    30.33400     0.00000  0.0
    163    156    161    160   5     0.00000    30.33400     0.00000  0.0
    163    156    161    162   5     0.00000    30.33400     0.00000  0.0
    156    157    158    151   5     0.00000    30.33400     0.00000  0.0
    156    157    158    159   5     0.00000    30.33400     0.00000  0.0
    164    157    158    151   5     0.00000    30.33400     0.00000  0.0
    164    157    158    159   5     0.00000    30.33400     0.00000  0.0
    151    158    159    160   5     0.00000    30.33400     0.00000  0.0
    151    158    159    165   5     0.00000    30.33400     0.00000  0.0
    157    158    159    160   5     0.00000    30.33400     0.00000  0.0
    157    158    159    165   5     0.00000    30.33400     0.00000  0.0
    158    159    160    161   5     0.00000    30.33400     0.00000  0.0
    158    159    160    166   5     0.00000    30.33400     0.00000  0.0
    165    159    160    161   5     0.00000    30.33400     0.00000  0.0
    165    159    160    166   5     0.00000    30.33400     0.00000  0.0
    159    160    161    156   5     0.00000    30.33400     0.00000  0.0
    159    160    161    162   5     0.00000    30.33400     0.00000  0.0
    166    160    161    156   5     0.00000    30.33400     0.00000  0.0
    166    160    161    162   5     0.00000    30.33400     0.00000  0.0
    156    161    162    169   5     0.00000     3.94551     0.00000  0.0
    160    161    162    169   5     0.00000     3.94551     0.00000  0.0
    161    162    169    168   5     0.00000     3.94551     0.00000  0.0
    161    162    169    170   5     0.00000     3.94551     0.00000  0.0
    172    167    168    169   5     0.00000    30.33400     0.00000  0.0
    172    167    168    175   5     0.00000    30.33400     0.00000  0.0
    174    167    168    169   5     0.00000    30.33400     0.00000  0.0
    174    167    168    175   5     0.00000    30.33400     0.00000  0.0
    168    167    172    171   5     0.00000    30.33400     0.00000  0.0
    168    167    172    173   5     0.00000    30.33400     0.00000  0.0
    174    167    172    171   5     0.00000    30.33400     0.00000  0.0
    174    167    172    173   5     0.00000    30.33400     0.00000  0.0
    167    168    169    162   5     0.00000    30.33400     0.00000  0.0
    167    168    169    170   5     0.00000    30.33400     0.00000  0.0
    175    168    169    162   5     0.00000    30.33400     0.00000  0.0
    175    168    169    170   5     0.00000    30.33400     0.00000  0.0
    162    169    170    171   5     0.00000    30.33400     0.00000  0.0
    162    169    170    176   5     0.00000    30.33400     0.00000  0.0
    168    169    170    171   5     0.00000    30.33400     0.00000  0.0
    168    169    170    176   5     0.00000    30.33400     0.00000  0.0
    169    170    171    172   5     0.00000    30.33400     0.00000  0.0
    169    170    171    177   5     0.00000    30.33400     0.00000  0.0
    176    170    171    172   5     0.00000    30.33400     0.00000  0.0
    176    170    171    177   5     0.00000    30.33400     0.00000  0.0
    170    171    172    167   5     0.00000    30.33400     0.00000  0.0
    170    171    172    173   5     0.00000    30.33400     0.00000  0.0
    177    171    172    167   5     0.00000    30.33400     0.00000  0.0
    177    171    172    173   5     0.00000    30.33400     0.00000  0.0
    167    172    173    180   5     0.00000     3.94551     0.00000  0.0
    171    172    173    180   5     0.00000     3.94551     0.00000  0.0
    172    173    180    179   5     0.00000     3.94551     0.00000  0.0
    172    173    180    181   5     0.00000     3.94551     0.00000  0.0
    183    178    179    180   5     0.00000    30.33400     0.00000  0.0
    183    178    179    186   5     0.00000    30.33400     0.00000  0.0
    185    178    179    180   5     0.00000    30.33400     0.00000  0.0
    185    178    179    186   5     0.00000    30.33400     0.00000  0.0
    179    178    183    182   5     0.00000    30.33400     0.00000  0.0
    179    178    183    184   5     0.00000    30.33400     0.00000  0.0
    185    178    183    182   5     0.00000    30.33400     0.00000  0.0
    185    178    183    184   5     0.00000    30.33400     0.00000  0.0
    178    179    180    173   5     0.00000    30.33400     0.00000  0.0
    178    179    180    181   5     0.00000    30.33400     0.00000  0.0
    186    179    180    173   5     0.00000    30.33400     0.00000  0.0
    186    179    180    181   5     0.00000    30.33400     0.00000  0.0
    173    180    181    182   5     0.00000    30.33400     0.00000  0.0
    173    180    181    187   5     0.00000    30.33400     0.00000  0.0
    179    180    181    182   5     0.00000    30.33400     0.00000  0.0
    179    180    181    187   5     0.00000    30.33400     0.00000  0.0
    180    181    182    183   5     0.00000    30.33400     0.00000  0.0
    180    181    182    188   5     0.00000    30.33400     0.00000  0.0
    187    181    182    183   5     0.00000    30.33400     0.00000  0.0
    187    181    182    188   5     0.00000    30.33400     0.00000  0.0
    181    182    183    178   5     0.00000    30.33400     0.00000  0.0
    181    182    183    184   5     0.00000    30.33400     0.00000  0.0
    188    182    183    178   5     0.00000    30.33400     0.00000  0.0
    188    182    183    184   5     0.00000    30.33400     0.00000  0.0
    178    183    184    191   5     0.00000     3.94551     0.00000  0.0
    182    183    184    191   5     0.00000     3.94551     0.00000  0.0
    183    184    191    190   5     0.00000     3.94551     0.00000  0.0
    183    184    191    192   5     0.00000     3.94551     0.00000  0.0
    194    189    190    191   5     0.00000    30.33400     0.00000  0.0
    194    189    190    197   5     0.00000    30.33400     0.00000  0.0
    196    189    190    191   5     0.00000    30.33400     0.00000  0.0
    196    189    190    197   5     0.00000    30.33400     0.00000  0.0
    190    189    194    193   5     0.00000    30.33400     0.00000  0.0
    190    189    194    195   5     0.00000    30.33400     0.00000  0.0
    196    189    194    193   5     0.00000    30.33400     0.00000  0.0
    196    189    194    195   5     0.00000    30.33400     0.00000  0.0
    189    190    191    184   5     0.00000    30.33400     0.00000  0.0
    189    190    191    192   5     0.00000    30.33400     0.00000  0.0
    197    190    191    184   5     0.00000    30.33400     0.00000  0.0
    197    190    191    192   5     0.00000    30.33400     0.00000  0.0
    184    191    192    193   5     0.00000    30.33400     0.00000  0.0
    184    191    192    198   5     0.00000    30.33400     0.00000  0.0
    190    191    192    193   5     0.00000    30.33400     0.00000  0.0
    190    191    192    198   5     0.00000    30.33400     0.00000  0.0
    191    192    193    194   5     0.00000    30.33400     0.00000  0.0
    191    192    193    199   5     0.00000    30.33400     0.00000  0.0
    198    192    193    194   5     0.00000    30.33400     0.00000  0.0
    198    192    193    199   5     0.00000    30.33400     0.00000  0.0
    192    193    194    189   5     0.00000    30.33400     0.00000  0.0
    192    193    194    195   5     0.00000    30.33400     0.00000  0.0
    199    193    194    189   5     0.00000    30.33400     0.00000  0.0
    199    193    194    195   5     0.00000    30.33400     0.00000  0.0
    189    194    195    202   5     0.00000     3.94551     0.00000  0.0
    193    194    195    202   5     0.00000     3.94551     0.00000  0.0
    194    195    202    201   5     0.00000     3.94551     0.00000  0.0
    194    195    202    203   5     0.00000     3.94551     0.00000  0.0
    205    200    201    202   5     0.00000    30.33400     0.00000  0.0
    205    200    201    208   5     0.00000    30.33400     0.00000  0.0
    207    200    201    202   5     0.00000    30.33400     0.00000  0.0
    207    200    201    208   5     0.00000    30.33400     0.00000  0.0
    201    200    205    204   5     0.00000    30.33400     0.00000  0.0
    201    200    205    206   5     0.00000    30.33400     0.00000  0.0
    207    200    205    204   5     0.00000    30.33400     0.00000  0.0
    207    200    205    206   5     0.00000    30.33400     0.00000  0.0
    200    201    202    195   5     0.00000    30.33400     0.00000  0.0
    200    201    202    203   5     0.00000    30.33400     0.00000  0.0
    208    201    202    195   5     0.00000    30.33400     0.00000  0.0
    208    201    202    203   5     0.00000    30.33400     0.00000  0.0
    195    202    203    204   5     0.00000    30.33400     0.00000  0.0
    195    202    203    209   5     0.00000    30.33400     0.00000  0.0
    201    202    203    204   5     0.00000    30.33400     0.00000  0.0
    201    202    203    209   5     0.00000    30.33400     0.00000  0.0
    202    203    204    205   5     0.00000    30.33400     0.00000  0.0
    202    203    204    210   5     0.00000    30.33400     0.00000  0.0
    209    203    204    205   5     0.00000    30.33400     0.00000  0.0
    209    203    204    210   5     0.00000    30.33400     0.00000  0.0
    203    204    205    200   5     0.00000    30.33400     0.00000  0.0
    203    204    205    206   5     0.00000    30.33400     0.00000  0.0
    210    204    205    200   5     0.00000    30.33400     0.00000  0.0
    210    204    205    206   5     0.00000    30.33400     0.00000  0.0
    200    205    206    213   5     0.00000     3.94551     0.00000  0.0
    204    205    206    213   5     0.00000     3.94551     0.00000  0.0
    205    206    213    212   5     0.00000     3.94551     0.00000  0.0
    205    206    213    214   5     0.00000     3.94551     0.00000  0.0
    216    211    212    213   5     0.00000    30.33400     0.00000  0.0
    216    211    212    219   5     0.00000    30.33400     0.00000  0.0
    218    211    212    213   5     0.00000    30.33400     0.00000  0.0
    218    211    212    219   5     0.00000    30.33400     0.00000  0.0
    212    211    216    215   5     0.00000    30.33400     0.00000  0.0
    212    211    216    217   5     0.00000    30.33400     0.00000  0.0
    218    211    216    215   5     0.00000    30.33400     0.00000  0.0
    218    211    216    217   5     0.00000    30.33400     0.00000  0.0
    211    212    213    206   5     0.00000    30.33400     0.00000  0.0
    211    212    213    214   5     0.00000    30.33400     0.00000  0.0
    219    212    213    206   5     0.00000    30.33400     0.00000  0.0
    219    212    213    214   5     0.00000    30.33400     0.00000  0.0
    206    213    214    215   5     0.00000    30.33400     0.00000  0.0
    206    213    214    220   5     0.00000    30.33400     0.00000  0.0
    212    213    214    215   5     0.00000    30.33400     0.00000  0.0
    212    213    214    220   5     0.00000    30.33400     0.00000  0.0
    213    214    215    216   5     0.00000    30.33400     0.00000  0.0
    213    214    215    221   5     0.00000    30.33400     0.00000  0.0
    220    214    215    216   5     0.00000    30.33400     0.00000  0.0
    220    214    215    221   5     0.00000    30.33400     0.00000  0.0
    214    215    216    211   5     0.00000    30.33400     0.00000  0.0
    214    215    216    217   5     0.00000    30.33400     0.00000  0.0
    221    215    216    211   5     0.00000    30.33400     0.00000  0.0
    221    215    216    217   5     0.00000    30.33400     0.00000  0.0
    211    216    217    222   5     0.00000     7.03749     0.00000  0.0
    215    216    217    222   5     0.00000     7.03749     0.00000  0.0

[ dihedrals ]
; Improper dihedrals
; h   i   j   k   funct
      2      6      1      8   5     0.00000     9.20480     0.00000  0.0
      1      3      2      9   5     0.00000     9.20480     0.00000  0.0
      2      4      3     12   5     0.00000     9.20480     0.00000  0.0
      3      5      4     10   5     0.00000     9.20480     0.00000  0.0
      4      6      5     11   5     0.00000     9.20480     0.00000  0.0
      1      5      6      7   5     0.00000    33.47200     0.00000  0.0
     14     18     13     20   5     0.00000     9.20480     0.00000  0.0
     13     15     14     21   5     0.00000     9.20480     0.00000  0.0
      7     14     15     16   5     0.00000    33.47200     0.00000  0.0
     15     17     16     22   5     0.00000     9.20480     0.00000  0.0
     16     18     17     23   5     0.00000     9.20480     0.00000  0.0
     13     17     18     19   5     0.00000    33.47200     0.00000  0.0
     25     29     24     31   5     0.00000     9.20480     0.00000  0.0
     24     26     25     32   5     0.00000     9.20480     0.00000  0.0
     19     25     26     27   5     0.00000    33.47200     0.00000  0.0
     26     28     27     33   5     0.00000     9.20480     0.00000  0.0
     27     29     28     34   5     0.00000     9.20480     0.00000  0.0
     24     28     29     30   5     0.00000    33.47200     0.00000  0.0
     36     40     35     42   5     0.00000     9.20480     0.00000  0.0
     35     37     36     43   5     0.00000     9.20480     0.00000  0.0
     30     36     37     38   5     0.00000    33.47200     0.00000  0.0
     37     39     38     44   5     0.00000     9.20480     0.00000  0.0
     38     40     39     45   5     0.00000     9.20480     0.00000  0.0
     35     39     40     41   5     0.00000    33.47200     0.00000  0.0
     47     51     46     53   5     0.00000     9.20480     0.00000  0.0
     46     48     47     54   5     0.00000     9.20480     0.00000  0.0
     41     47     48     49   5     0.00000    33.47200     0.00000  0.0
     48     50     49     55   5     0.00000     9.20480     0.00000  0.0
     49     51     50     56   5     0.00000     9.20480     0.00000  0.0
     46     50     51     52   5     0.00000    33.47200     0.00000  0.0
     58     62     57     64   5     0.00000     9.20480     0.00000  0.0
     57     59     58     65   5     0.00000     9.20480     0.00000  0.0
     52     58     59     60   5     0.00000    33.47200     0.00000  0.0
     59     61     60     66   5     0.00000     9.20480     0.00000  0.0
     60     62     61     67   5     0.00000     9.20480     0.00000  0.0
     57     61     62     63   5     0.00000    33.47200     0.00000  0.0
     69     73     68     75   5     0.00000     9.20480     0.00000  0.0
     68     70     69     76   5     0.00000     9.20480     0.00000  0.0
     63     69     70     71   5     0.00000    33.47200     0.00000  0.0
     70     72     71     77   5     0.00000     9.20480     0.00000  0.0
     71     73     72     78   5     0.00000     9.20480     0.00000  0.0
     68     72     73     74   5     0.00000    33.47200     0.00000  0.0
     80     84     79     86   5     0.00000     9.20480     0.00000  0.0
     79     81     80     87   5     0.00000     9.20480     0.00000  0.0
     74     80     81     82   5     0.00000    33.47200     0.00000  0.0
     81     83     82     88   5     0.00000     9.20480     0.00000  0.0
     82     84     83     89   5     0.00000     9.20480     0.00000  0.0
     79     83     84     85   5     0.00000    33.47200     0.00000  0.0
     91     95     90     97   5     0.00000     9.20480     0.00000  0.0
     90     92     91     98   5     0.00000     9.20480     0.00000  0.0
     85     91     92     93   5     0.00000    33.47200     0.00000  0.0
     92     94     93     99   5     0.00000     9.20480     0.00000  0.0
     93     95     94    100   5     0.00000     9.20480     0.00000  0.0
     90     94     95     96   5     0.00000    33.47200     0.00000  0.0
    102    106    101    108   5     0.00000     9.20480     0.00000  0.0
    101    103    102    109   5     0.00000     9.20480     0.00000  0.0
     96    102    103    104   5     0.00000    33.47200     0.00000  0.0
    103    105    104    110   5     0.00000     9.20480     0.00000  0.0
    104    106    105    111   5     0.00000     9.20480     0.00000  0.0
    101    105    106    107   5     0.00000    33.47200     0.00000  0.0
    113    117    112    119   5     0.00000     9.20480     0.00000  0.0
    112    114    113    120   5     0.00000     9.20480     0.00000  0.0
    107    113    114    115   5     0.00000    33.47200     0.00000  0.0
    114    116    115    121   5     0.00000     9.20480     0.00000  0.0
    115    117    116    122   5     0.00000     9.20480     0.00000  0.0
    112    116    117    118   5     0.00000    33.47200     0.00000  0.0
    124    128    123    130   5     0.00000     9.20480     0.00000  0.0
    123    125    124    131   5     0.00000     9.20480     0.00000  0.0
    118    124    125    126   5     0.00000    33.47200     0.00000  0.0
    125    127    126    132   5     0.00000     9.20480     0.00000  0.0
    126    128    127    133   5     0.00000     9.20480     0.00000  0.0
    123    127    128    129   5     0.00000    33.47200     0.00000  0.0
    135    139    134    141   5     0.00000     9.20480     0.00000  0.0
    134    136    135    142   5     0.00000     9.20480     0.00000  0.0
    129    135    136    137   5     0.00000    33.47200     0.00000  0.0
    136    138    137    143   5     0.00000     9.20480     0.00000  0.0
    137    139    138    144   5     0.00000     9.20480     0.00000  0.0
    134    138    139    140   5     0.00000    33.47200     0.00000  0.0
    146    150    145    152   5     0.00000     9.20480     0.00000  0.0
    145    147    146    153   5     0.00000     9.20480     0.00000  0.0
    140    146    147    148   5     0.00000    33.47200     0.00000  0.0
    147    149    148    154   5     0.00000     9.20480     0.00000  0.0
    148    150    149    155   5     0.00000     9.20480     0.00000  0.0
    145    149    150    151   5     0.00000    33.47200     0.00000  0.0
    157    161    156    163   5     0.00000     9.20480     0.00000  0.0
    156    158    157    164   5     0.00000     9.20480     0.00000  0.0
    151    157    158    159   5     0.00000    33.47200     0.00000  0.0
    158    160    159    165   5     0.00000     9.20480     0.00000  0.0
    159    161    160    166   5     0.00000     9.20480     0.00000  0.0
    156    160    161    162   5     0.00000    33.47200     0.00000  0.0
    168    172    167    174   5     0.00000     9.20480     0.00000  0.0
    167    169    168    175   5     0.00000     9.20480     0.00000  0.0
    162    168    169    170   5     0.00000    33.47200     0.00000  0.0
    169    171    170    176   5     0.00000     9.20480     0.00000  0.0
    170    172    171    177   5     0.00000     9.20480     0.00000  0.0
    167    171    172    173   5     0.00000    33.47200     0.00000  0.0
    179    183    178    185   5     0.00000     9.20480     0.00000  0.0
    178    180    179    186   5     0.00000     9.20480     0.00000  0.0
    173    179    180    181   5     0.00000    33.47200     0.00000  0.0
    180    182    181    187   5     0.00000     9.20480     0.00000  0.0
    181    183    182    188   5     0.00000     9.20480     0.00000  0.0
    178    182    183    184   5     0.00000    33.47200     0.00000  0.0
    190    194    189    196   5     0.00000     9.20480     0.00000  0.0
    189    191    190    197   5     0.00000     9.20480     0.00000  0.0
    184    190    191    192   5     0.00000    33.47200     0.00000  0.0
    191    193    192    198   5     0.00000     9.20480     0.00000  0.0
    192    194    193    199   5     0.00000     9.20480     0.00000  0.0
    189    193    194    195   5     0.00000    33.47200     0.00000  0.0
    201    205    200    207   5     0.00000     9.20480     0.00000  0.0
    200    202    201    208   5     0.00000     9.20480     0.00000  0.0
    195    201    202    203   5     0.00000    33.47200     0.00000  0.0
    202    204    203    209   5     0.00000     9.20480     0.00000  0.0
    203    205    204    210   5     0.00000     9.20480     0.00000  0.0
    200    204    205    206   5     0.00000    33.47200     0.00000  0.0
    212    216    211    218   5     0.00000     9.20480     0.00000  0.0
    211    213    212    219   5     0.00000     9.20480     0.00000  0.0
    206    212    213    214   5     0.00000    33.47200     0.00000  0.0
    213    215    214    220   5     0.00000     9.20480     0.00000  0.0
    214    216    215    221   5     0.00000     9.20480     0.00000  0.0
    211    215    216    217   5     0.00000    33.47200     0.00000  0.0
