;
; Gromacs include topology (itp) file.
; For Molecular Group XYZ
; Force field scheme: opls2005
; Produced from DL_FIELD v4.11
;


[ moleculetype ]
; name    nrexcl
XYZ    3

[ atoms ]
; nr   type   resnr   residu    atom    cgnr    charge    mass
    1       C3T    1  MOL      C1     1   0.0562000   12.0115
    2       C3T    1  MOL      C2     2   0.0997000   12.0115
    3       O3T    1  MOL      O3     3  -0.3524000   15.9994
    4        CT    1  MOL      C4     4   0.1565000   12.0115
    5        OS    1  MOL      O5     5  -0.2850000   15.9994
    6        CA    1  MOL      C6     6   0.0850000   12.0115
    7        CA    1  MOL      C7     7  -0.1150000   12.0115
    8        CA    1  MOL      C8     8  -0.1150000   12.0115
    9        CA    1  MOL      C9     9  -0.1150000   12.0115
   10        CA    1  MOL     C10    10  -0.1150000   12.0115
   11        CA    1  MOL     C11    11  -0.1150000   12.0115
   12        HC    1  MOL     H12    12   0.0600000    1.0080
   13        HC    1  MOL     H13    13   0.0600000    1.0080
   14        HC    1  MOL     H14    14   0.0300000    1.0080
   15        HC    1  MOL     H15    15   0.0300000    1.0080
   16        HA    1  MOL     H16    16   0.1150000    1.0080
   17        HA    1  MOL     H17    17   0.1150000    1.0080
   18        HA    1  MOL     H18    18   0.1150000    1.0080
   19        HA    1  MOL     H19    19   0.1150000    1.0080
   20        HC    1  MOL     H20    20   0.0600000    1.0080
   21       C3T    1  MOL     C21    21   0.2312000   12.0115
   22       C3T    1  MOL     C22    22   0.0997000   12.0115
   23       O3T    1  MOL     O23    23  -0.3524000   15.9994
   24        CT    1  MOL     C24    24   0.1565000   12.0115
   25        OS    1  MOL     O25    25  -0.2850000   15.9994
   26        CA    1  MOL     C26    26   0.0850000   12.0115
   27        CA    1  MOL     C27    27  -0.1150000   12.0115
   28        CA    1  MOL     C28    28  -0.1150000   12.0115
   29        CA    1  MOL     C29    29  -0.1150000   12.0115
   30        CA    1  MOL     C30    30  -0.1150000   12.0115
   31        CA    1  MOL     C31    31  -0.1150000   12.0115
   32        HC    1  MOL     H32    32   0.0600000    1.0080
   33        HC    1  MOL     H33    33   0.0600000    1.0080
   34        HC    1  MOL     H34    34   0.0300000    1.0080
   35        HC    1  MOL     H35    35   0.0300000    1.0080
   36        HA    1  MOL     H36    36   0.1150000    1.0080
   37        HA    1  MOL     H37    37   0.1150000    1.0080
   38        HA    1  MOL     H38    38   0.1150000    1.0080
   39        HA    1  MOL     H39    39   0.1150000    1.0080
   40       C3T    1  MOL     C40    40   0.2312000   12.0115
   41       C3T    1  MOL     C41    41   0.0997000   12.0115
   42       O3T    1  MOL     O42    42  -0.3524000   15.9994
   43        CT    1  MOL     C43    43   0.1565000   12.0115
   44        OS    1  MOL     O44    44  -0.2850000   15.9994
   45        CA    1  MOL     C45    45   0.0850000   12.0115
   46        CA    1  MOL     C46    46  -0.1150000   12.0115
   47        CA    1  MOL     C47    47  -0.1150000   12.0115
   48        CA    1  MOL     C48    48  -0.1150000   12.0115
   49        CA    1  MOL     C49    49  -0.1150000   12.0115
   50        CA    1  MOL     C50    50  -0.1150000   12.0115
   51        HC    1  MOL     H51    51   0.0600000    1.0080
   52        HC    1  MOL     H52    52   0.0600000    1.0080
   53        HC    1  MOL     H53    53   0.0300000    1.0080
   54        HC    1  MOL     H54    54   0.0300000    1.0080
   55        HA    1  MOL     H55    55   0.1150000    1.0080
   56        HA    1  MOL     H56    56   0.1150000    1.0080
   57        HA    1  MOL     H57    57   0.1150000    1.0080
   58        HA    1  MOL     H58    58   0.1150000    1.0080
   59       C3T    1  MOL     C59    59   0.2312000   12.0115
   60       C3T    1  MOL     C60    60   0.0997000   12.0115
   61       O3T    1  MOL     O61    61  -0.3524000   15.9994
   62        CT    1  MOL     C62    62   0.1565000   12.0115
   63        OS    1  MOL     O63    63  -0.2850000   15.9994
   64        CA    1  MOL     C64    64   0.0850000   12.0115
   65        CA    1  MOL     C65    65  -0.1150000   12.0115
   66        CA    1  MOL     C66    66  -0.1150000   12.0115
   67        CA    1  MOL     C67    67  -0.1150000   12.0115
   68        CA    1  MOL     C68    68  -0.1150000   12.0115
   69        CA    1  MOL     C69    69  -0.1150000   12.0115
   70        HC    1  MOL     H70    70   0.0600000    1.0080
   71        HC    1  MOL     H71    71   0.0600000    1.0080
   72        HC    1  MOL     H72    72   0.0300000    1.0080
   73        HC    1  MOL     H73    73   0.0300000    1.0080
   74        HA    1  MOL     H74    74   0.1150000    1.0080
   75        HA    1  MOL     H75    75   0.1150000    1.0080
   76        HA    1  MOL     H76    76   0.1150000    1.0080
   77        HA    1  MOL     H77    77   0.1150000    1.0080
   78       C3T    1  MOL     C78    78   0.2312000   12.0115
   79       C3T    1  MOL     C79    79   0.0997000   12.0115
   80       O3T    1  MOL     O80    80  -0.3524000   15.9994
   81        CT    1  MOL     C81    81   0.1565000   12.0115
   82        OS    1  MOL     O82    82  -0.2850000   15.9994
   83        CA    1  MOL     C83    83   0.0850000   12.0115
   84        CA    1  MOL     C84    84  -0.1150000   12.0115
   85        CA    1  MOL     C85    85  -0.1150000   12.0115
   86        CA    1  MOL     C86    86  -0.1150000   12.0115
   87        CA    1  MOL     C87    87  -0.1150000   12.0115
   88        CA    1  MOL     C88    88  -0.1150000   12.0115
   89        HC    1  MOL     H89    89   0.0600000    1.0080
   90        HC    1  MOL     H90    90   0.0600000    1.0080
   91        HC    1  MOL     H91    91   0.0300000    1.0080
   92        HC    1  MOL     H92    92   0.0300000    1.0080
   93        HA    1  MOL     H93    93   0.1150000    1.0080
   94        HA    1  MOL     H94    94   0.1150000    1.0080
   95        HA    1  MOL     H95    95   0.1150000    1.0080
   96        HA    1  MOL     H96    96   0.1150000    1.0080
   97       C3T    1  MOL     C97    97   0.2312000   12.0115
   98       C3T    1  MOL     C98    98   0.0997000   12.0115
   99       O3T    1  MOL     O99    99  -0.3524000   15.9994
  100        CT    1  MOL    C100   100   0.1565000   12.0115
  101        OS    1  MOL    O101   101  -0.2850000   15.9994
  102        CA    1  MOL    C102   102   0.0850000   12.0115
  103        CA    1  MOL    C103   103  -0.1150000   12.0115
  104        CA    1  MOL    C104   104  -0.1150000   12.0115
  105        CA    1  MOL    C105   105  -0.1150000   12.0115
  106        CA    1  MOL    C106   106  -0.1150000   12.0115
  107        CA    1  MOL    C107   107  -0.1150000   12.0115
  108        HC    1  MOL    H108   108   0.0600000    1.0080
  109        HC    1  MOL    H109   109   0.0600000    1.0080
  110        HC    1  MOL    H110   110   0.0300000    1.0080
  111        HC    1  MOL    H111   111   0.0300000    1.0080
  112        HA    1  MOL    H112   112   0.1150000    1.0080
  113        HA    1  MOL    H113   113   0.1150000    1.0080
  114        HA    1  MOL    H114   114   0.1150000    1.0080
  115        HA    1  MOL    H115   115   0.1150000    1.0080
  116       C3T    1  MOL    C116   116   0.2312000   12.0115
  117       C3T    1  MOL    C117   117   0.0997000   12.0115
  118       O3T    1  MOL    O118   118  -0.3524000   15.9994
  119        CT    1  MOL    C119   119   0.1565000   12.0115
  120        OS    1  MOL    O120   120  -0.2850000   15.9994
  121        CA    1  MOL    C121   121   0.0850000   12.0115
  122        CA    1  MOL    C122   122  -0.1150000   12.0115
  123        CA    1  MOL    C123   123  -0.1150000   12.0115
  124        CA    1  MOL    C124   124  -0.1150000   12.0115
  125        CA    1  MOL    C125   125  -0.1150000   12.0115
  126        CA    1  MOL    C126   126  -0.1150000   12.0115
  127        HC    1  MOL    H127   127   0.0600000    1.0080
  128        HC    1  MOL    H128   128   0.0600000    1.0080
  129        HC    1  MOL    H129   129   0.0300000    1.0080
  130        HC    1  MOL    H130   130   0.0300000    1.0080
  131        HA    1  MOL    H131   131   0.1150000    1.0080
  132        HA    1  MOL    H132   132   0.1150000    1.0080
  133        HA    1  MOL    H133   133   0.1150000    1.0080
  134        HA    1  MOL    H134   134   0.1150000    1.0080
  135       C3T    1  MOL    C135   135   0.2312000   12.0115
  136       C3T    1  MOL    C136   136   0.0997000   12.0115
  137       O3T    1  MOL    O137   137  -0.3524000   15.9994
  138        CT    1  MOL    C138   138   0.1565000   12.0115
  139        OS    1  MOL    O139   139  -0.2850000   15.9994
  140        CA    1  MOL    C140   140   0.0850000   12.0115
  141        CA    1  MOL    C141   141  -0.1150000   12.0115
  142        CA    1  MOL    C142   142  -0.1150000   12.0115
  143        CA    1  MOL    C143   143  -0.1150000   12.0115
  144        CA    1  MOL    C144   144  -0.1150000   12.0115
  145        CA    1  MOL    C145   145  -0.1150000   12.0115
  146        HC    1  MOL    H146   146   0.0600000    1.0080
  147        HC    1  MOL    H147   147   0.0600000    1.0080
  148        HC    1  MOL    H148   148   0.0300000    1.0080
  149        HC    1  MOL    H149   149   0.0300000    1.0080
  150        HA    1  MOL    H150   150   0.1150000    1.0080
  151        HA    1  MOL    H151   151   0.1150000    1.0080
  152        HA    1  MOL    H152   152   0.1150000    1.0080
  153        HA    1  MOL    H153   153   0.1150000    1.0080
  154       C3T    1  MOL    C154   154   0.2312000   12.0115
  155       C3T    1  MOL    C155   155   0.0997000   12.0115
  156       O3T    1  MOL    O156   156  -0.3524000   15.9994
  157        CT    1  MOL    C157   157   0.1565000   12.0115
  158        OS    1  MOL    O158   158  -0.2850000   15.9994
  159        CA    1  MOL    C159   159   0.0850000   12.0115
  160        CA    1  MOL    C160   160  -0.1150000   12.0115
  161        CA    1  MOL    C161   161  -0.1150000   12.0115
  162        CA    1  MOL    C162   162  -0.1150000   12.0115
  163        CA    1  MOL    C163   163  -0.1150000   12.0115
  164        CA    1  MOL    C164   164  -0.1150000   12.0115
  165        HC    1  MOL    H165   165   0.0600000    1.0080
  166        HC    1  MOL    H166   166   0.0600000    1.0080
  167        HC    1  MOL    H167   167   0.0300000    1.0080
  168        HC    1  MOL    H168   168   0.0300000    1.0080
  169        HA    1  MOL    H169   169   0.1150000    1.0080
  170        HA    1  MOL    H170   170   0.1150000    1.0080
  171        HA    1  MOL    H171   171   0.1150000    1.0080
  172        HA    1  MOL    H172   172   0.1150000    1.0080
  173       C3T    1  MOL    C173   173   0.2312000   12.0115
  174       C3T    1  MOL    C174   174   0.0997000   12.0115
  175       O3T    1  MOL    O175   175  -0.3524000   15.9994
  176        CT    1  MOL    C176   176   0.1565000   12.0115
  177        OS    1  MOL    O177   177  -0.2850000   15.9994
  178        CA    1  MOL    C178   178   0.0850000   12.0115
  179        CA    1  MOL    C179   179  -0.1150000   12.0115
  180        CA    1  MOL    C180   180  -0.1150000   12.0115
  181        CA    1  MOL    C181   181  -0.1150000   12.0115
  182        CA    1  MOL    C182   182  -0.1150000   12.0115
  183        CA    1  MOL    C183   183  -0.1150000   12.0115
  184        HC    1  MOL    H184   184   0.0600000    1.0080
  185        HC    1  MOL    H185   185   0.0600000    1.0080
  186        HC    1  MOL    H186   186   0.0300000    1.0080
  187        HC    1  MOL    H187   187   0.0300000    1.0080
  188        HA    1  MOL    H188   188   0.1150000    1.0080
  189        HA    1  MOL    H189   189   0.1150000    1.0080
  190        HA    1  MOL    H190   190   0.1150000    1.0080
  191        HA    1  MOL    H191   191   0.1150000    1.0080
  192       C3T    1  MOL    C192   192   0.2312000   12.0115
  193       C3T    1  MOL    C193   193   0.0997000   12.0115
  194       O3T    1  MOL    O194   194  -0.3524000   15.9994
  195        CT    1  MOL    C195   195   0.1565000   12.0115
  196        OS    1  MOL    O196   196  -0.2850000   15.9994
  197        CA    1  MOL    C197   197   0.0850000   12.0115
  198        CA    1  MOL    C198   198  -0.1150000   12.0115
  199        CA    1  MOL    C199   199  -0.1150000   12.0115
  200        CA    1  MOL    C200   200  -0.1150000   12.0115
  201        CA    1  MOL    C201   201  -0.1150000   12.0115
  202        CA    1  MOL    C202   202  -0.1150000   12.0115
  203        HC    1  MOL    H203   203   0.0600000    1.0080
  204        HC    1  MOL    H204   204   0.0600000    1.0080
  205        HC    1  MOL    H205   205   0.0300000    1.0080
  206        HC    1  MOL    H206   206   0.0300000    1.0080
  207        HA    1  MOL    H207   207   0.1150000    1.0080
  208        HA    1  MOL    H208   208   0.1150000    1.0080
  209        HA    1  MOL    H209   209   0.1150000    1.0080
  210        HA    1  MOL    H210   210   0.1150000    1.0080
  211       C3T    1  MOL    C211   211   0.2312000   12.0115
  212       C3T    1  MOL    C212   212   0.0997000   12.0115
  213       O3T    1  MOL    O213   213  -0.3524000   15.9994
  214        CT    1  MOL    C214   214   0.1565000   12.0115
  215        OS    1  MOL    O215   215  -0.2850000   15.9994
  216        CA    1  MOL    C216   216   0.0850000   12.0115
  217        CA    1  MOL    C217   217  -0.1150000   12.0115
  218        CA    1  MOL    C218   218  -0.1150000   12.0115
  219        CA    1  MOL    C219   219  -0.1150000   12.0115
  220        CA    1  MOL    C220   220  -0.1150000   12.0115
  221        CA    1  MOL    C221   221  -0.1150000   12.0115
  222        HC    1  MOL    H222   222   0.0600000    1.0080
  223        HC    1  MOL    H223   223   0.0600000    1.0080
  224        HC    1  MOL    H224   224   0.0300000    1.0080
  225        HC    1  MOL    H225   225   0.0300000    1.0080
  226        HA    1  MOL    H226   226   0.1150000    1.0080
  227        HA    1  MOL    H227   227   0.1150000    1.0080
  228        HA    1  MOL    H228   228   0.1150000    1.0080
  229        HA    1  MOL    H229   229   0.1150000    1.0080
  230       C3T    1  MOL    C230   230   0.2312000   12.0115
  231       C3T    1  MOL    C231   231   0.0997000   12.0115
  232       O3T    1  MOL    O232   232  -0.3524000   15.9994
  233        CT    1  MOL    C233   233   0.1565000   12.0115
  234        OS    1  MOL    O234   234  -0.2850000   15.9994
  235        CA    1  MOL    C235   235   0.0850000   12.0115
  236        CA    1  MOL    C236   236  -0.1150000   12.0115
  237        CA    1  MOL    C237   237  -0.1150000   12.0115
  238        CA    1  MOL    C238   238  -0.1150000   12.0115
  239        CA    1  MOL    C239   239  -0.1150000   12.0115
  240        CA    1  MOL    C240   240  -0.1150000   12.0115
  241        HC    1  MOL    H241   241   0.0600000    1.0080
  242        HC    1  MOL    H242   242   0.0600000    1.0080
  243        HC    1  MOL    H243   243   0.0300000    1.0080
  244        HC    1  MOL    H244   244   0.0300000    1.0080
  245        HA    1  MOL    H245   245   0.1150000    1.0080
  246        HA    1  MOL    H246   246   0.1150000    1.0080
  247        HA    1  MOL    H247   247   0.1150000    1.0080
  248        HA    1  MOL    H248   248   0.1150000    1.0080
  249       C3T    1  MOL    C249   249   0.2312000   12.0115
  250       C3T    1  MOL    C250   250   0.0997000   12.0115
  251       O3T    1  MOL    O251   251  -0.3524000   15.9994
  252        CT    1  MOL    C252   252   0.1565000   12.0115
  253        OS    1  MOL    O253   253  -0.2850000   15.9994
  254        CA    1  MOL    C254   254   0.0850000   12.0115
  255        CA    1  MOL    C255   255  -0.1150000   12.0115
  256        CA    1  MOL    C256   256  -0.1150000   12.0115
  257        CA    1  MOL    C257   257  -0.1150000   12.0115
  258        CA    1  MOL    C258   258  -0.1150000   12.0115
  259        CA    1  MOL    C259   259  -0.1150000   12.0115
  260        HC    1  MOL    H260   260   0.0600000    1.0080
  261        HC    1  MOL    H261   261   0.0600000    1.0080
  262        HC    1  MOL    H262   262   0.0300000    1.0080
  263        HC    1  MOL    H263   263   0.0300000    1.0080
  264        HA    1  MOL    H264   264   0.1150000    1.0080
  265        HA    1  MOL    H265   265   0.1150000    1.0080
  266        HA    1  MOL    H266   266   0.1150000    1.0080
  267        HA    1  MOL    H267   267   0.1150000    1.0080
  268       C3T    1  MOL    C268   268   0.2312000   12.0115
  269       C3T    1  MOL    C269   269   0.0997000   12.0115
  270       O3T    1  MOL    O270   270  -0.3524000   15.9994
  271        CT    1  MOL    C271   271   0.1565000   12.0115
  272        OS    1  MOL    O272   272  -0.2850000   15.9994
  273        CA    1  MOL    C273   273   0.0850000   12.0115
  274        CA    1  MOL    C274   274  -0.1150000   12.0115
  275        CA    1  MOL    C275   275  -0.1150000   12.0115
  276        CA    1  MOL    C276   276  -0.1150000   12.0115
  277        CA    1  MOL    C277   277  -0.1150000   12.0115
  278        CA    1  MOL    C278   278  -0.1150000   12.0115
  279        HC    1  MOL    H279   279   0.0600000    1.0080
  280        HC    1  MOL    H280   280   0.0600000    1.0080
  281        HC    1  MOL    H281   281   0.0300000    1.0080
  282        HC    1  MOL    H282   282   0.0300000    1.0080
  283        HA    1  MOL    H283   283   0.1150000    1.0080
  284        HA    1  MOL    H284   284   0.1150000    1.0080
  285        HA    1  MOL    H285   285   0.1150000    1.0080
  286        HA    1  MOL    H286   286   0.1150000    1.0080
  287       C3T    1  MOL    C287   287   0.2312000   12.0115
  288       C3T    1  MOL    C288   288   0.0997000   12.0115
  289       O3T    1  MOL    O289   289  -0.3524000   15.9994
  290        CT    1  MOL    C290   290   0.1565000   12.0115
  291        OS    1  MOL    O291   291  -0.2850000   15.9994
  292        CA    1  MOL    C292   292   0.0850000   12.0115
  293        CA    1  MOL    C293   293  -0.1150000   12.0115
  294        CA    1  MOL    C294   294  -0.1150000   12.0115
  295        CA    1  MOL    C295   295  -0.1150000   12.0115
  296        CA    1  MOL    C296   296  -0.1150000   12.0115
  297        CA    1  MOL    C297   297  -0.1150000   12.0115
  298        HC    1  MOL    H298   298   0.0600000    1.0080
  299        HC    1  MOL    H299   299   0.0600000    1.0080
  300        HC    1  MOL    H300   300   0.0300000    1.0080
  301        HC    1  MOL    H301   301   0.0300000    1.0080
  302        HA    1  MOL    H302   302   0.1150000    1.0080
  303        HA    1  MOL    H303   303   0.1150000    1.0080
  304        HA    1  MOL    H304   304   0.1150000    1.0080
  305        HA    1  MOL    H305   305   0.1150000    1.0080
  306       C3T    1  MOL    C306   306   0.2312000   12.0115
  307       C3T    1  MOL    C307   307   0.0997000   12.0115
  308       O3T    1  MOL    O308   308  -0.3524000   15.9994
  309        CT    1  MOL    C309   309   0.1565000   12.0115
  310        OS    1  MOL    O310   310  -0.2850000   15.9994
  311        CA    1  MOL    C311   311   0.0850000   12.0115
  312        CA    1  MOL    C312   312  -0.1150000   12.0115
  313        CA    1  MOL    C313   313  -0.1150000   12.0115
  314        CA    1  MOL    C314   314  -0.1150000   12.0115
  315        CA    1  MOL    C315   315  -0.1150000   12.0115
  316        CA    1  MOL    C316   316  -0.1150000   12.0115
  317        HC    1  MOL    H317   317   0.0600000    1.0080
  318        HC    1  MOL    H318   318   0.0600000    1.0080
  319        HC    1  MOL    H319   319   0.0300000    1.0080
  320        HC    1  MOL    H320   320   0.0300000    1.0080
  321        HA    1  MOL    H321   321   0.1150000    1.0080
  322        HA    1  MOL    H322   322   0.1150000    1.0080
  323        HA    1  MOL    H323   323   0.1150000    1.0080
  324        HA    1  MOL    H324   324   0.1150000    1.0080
  325       C3T    1  MOL    C325   325   0.2312000   12.0115
  326       C3T    1  MOL    C326   326   0.0997000   12.0115
  327       O3T    1  MOL    O327   327  -0.3524000   15.9994
  328        CT    1  MOL    C328   328   0.1565000   12.0115
  329        OS    1  MOL    O329   329  -0.2850000   15.9994
  330        CA    1  MOL    C330   330   0.0850000   12.0115
  331        CA    1  MOL    C331   331  -0.1150000   12.0115
  332        CA    1  MOL    C332   332  -0.1150000   12.0115
  333        CA    1  MOL    C333   333  -0.1150000   12.0115
  334        CA    1  MOL    C334   334  -0.1150000   12.0115
  335        CA    1  MOL    C335   335  -0.1150000   12.0115
  336        HC    1  MOL    H336   336   0.0600000    1.0080
  337        HC    1  MOL    H337   337   0.0600000    1.0080
  338        HC    1  MOL    H338   338   0.0300000    1.0080
  339        HC    1  MOL    H339   339   0.0300000    1.0080
  340        HA    1  MOL    H340   340   0.1150000    1.0080
  341        HA    1  MOL    H341   341   0.1150000    1.0080
  342        HA    1  MOL    H342   342   0.1150000    1.0080
  343        HA    1  MOL    H343   343   0.1150000    1.0080
  344       C3T    1  MOL    C344   344   0.2312000   12.0115
  345       C3T    1  MOL    C345   345   0.0997000   12.0115
  346       O3T    1  MOL    O346   346  -0.3524000   15.9994
  347        CT    1  MOL    C347   347   0.1565000   12.0115
  348        OS    1  MOL    O348   348  -0.2850000   15.9994
  349        CA    1  MOL    C349   349   0.0850000   12.0115
  350        CA    1  MOL    C350   350  -0.1150000   12.0115
  351        CA    1  MOL    C351   351  -0.1150000   12.0115
  352        CA    1  MOL    C352   352  -0.1150000   12.0115
  353        CA    1  MOL    C353   353  -0.1150000   12.0115
  354        CA    1  MOL    C354   354  -0.1150000   12.0115
  355        HC    1  MOL    H355   355   0.0600000    1.0080
  356        HC    1  MOL    H356   356   0.0600000    1.0080
  357        HC    1  MOL    H357   357   0.0300000    1.0080
  358        HC    1  MOL    H358   358   0.0300000    1.0080
  359        HA    1  MOL    H359   359   0.1150000    1.0080
  360        HA    1  MOL    H360   360   0.1150000    1.0080
  361        HA    1  MOL    H361   361   0.1150000    1.0080
  362        HA    1  MOL    H362   362   0.1150000    1.0080
  363       C3T    1  MOL    C363   363   0.2312000   12.0115
  364       C3T    1  MOL    C364   364   0.0997000   12.0115
  365       O3T    1  MOL    O365   365  -0.3524000   15.9994
  366        CT    1  MOL    C366   366   0.1565000   12.0115
  367        OS    1  MOL    O367   367  -0.2850000   15.9994
  368        CA    1  MOL    C368   368   0.0850000   12.0115
  369        CA    1  MOL    C369   369  -0.1150000   12.0115
  370        CA    1  MOL    C370   370  -0.1150000   12.0115
  371        CA    1  MOL    C371   371  -0.1150000   12.0115
  372        CA    1  MOL    C372   372  -0.1150000   12.0115
  373        CA    1  MOL    C373   373  -0.1150000   12.0115
  374        HC    1  MOL    H374   374   0.0600000    1.0080
  375        HC    1  MOL    H375   375   0.0600000    1.0080
  376        HC    1  MOL    H376   376   0.0300000    1.0080
  377        HC    1  MOL    H377   377   0.0300000    1.0080
  378        HA    1  MOL    H378   378   0.1150000    1.0080
  379        HA    1  MOL    H379   379   0.1150000    1.0080
  380        HA    1  MOL    H380   380   0.1150000    1.0080
  381        HA    1  MOL    H381   381   0.1150000    1.0080
  382        HA    1  MOL    H382   382   0.1150000    1.0080

[ bonds ]
      1      2   1      0.1509 217568.0000
      1      3   1      0.1432 280328.0000
      1     12   1      0.1088 284512.0000
      1     20   1      0.1088 284512.0000
      2      3   1      0.1432 280328.0000
      2      4   1      0.1510 230120.0000
      2     13   1      0.1088 284512.0000
      4      5   1      0.1410 267776.0000
      4     14   1      0.1090 284512.0000
      4     15   1      0.1090 284512.0000
      5      6   1      0.1364 376560.0000
      6      7   1      0.1400 392459.2000
      6     11   1      0.1400 392459.2000
      7      8   1      0.1400 392459.2000
      7     16   1      0.1080 307105.6000
      8      9   1      0.1400 392459.2000
      8     17   1      0.1080 307105.6000
      9     10   1      0.1400 392459.2000
      9     18   1      0.1080 307105.6000
     10     11   1      0.1400 392459.2000
     10     19   1      0.1080 307105.6000
     11     21   1      0.1491 238488.0000
     21     22   1      0.1509 217568.0000
     21     23   1      0.1432 280328.0000
     21     32   1      0.1088 284512.0000
     22     23   1      0.1432 280328.0000
     22     24   1      0.1510 230120.0000
     22     33   1      0.1088 284512.0000
     24     25   1      0.1410 267776.0000
     24     34   1      0.1090 284512.0000
     24     35   1      0.1090 284512.0000
     25     26   1      0.1364 376560.0000
     26     27   1      0.1400 392459.2000
     26     31   1      0.1400 392459.2000
     27     28   1      0.1400 392459.2000
     27     36   1      0.1080 307105.6000
     28     29   1      0.1400 392459.2000
     28     37   1      0.1080 307105.6000
     29     30   1      0.1400 392459.2000
     29     38   1      0.1080 307105.6000
     30     31   1      0.1400 392459.2000
     30     39   1      0.1080 307105.6000
     31     40   1      0.1491 238488.0000
     40     41   1      0.1509 217568.0000
     40     42   1      0.1432 280328.0000
     40     51   1      0.1088 284512.0000
     41     42   1      0.1432 280328.0000
     41     43   1      0.1510 230120.0000
     41     52   1      0.1088 284512.0000
     43     44   1      0.1410 267776.0000
     43     53   1      0.1090 284512.0000
     43     54   1      0.1090 284512.0000
     44     45   1      0.1364 376560.0000
     45     46   1      0.1400 392459.2000
     45     50   1      0.1400 392459.2000
     46     47   1      0.1400 392459.2000
     46     55   1      0.1080 307105.6000
     47     48   1      0.1400 392459.2000
     47     56   1      0.1080 307105.6000
     48     49   1      0.1400 392459.2000
     48     57   1      0.1080 307105.6000
     49     50   1      0.1400 392459.2000
     49     58   1      0.1080 307105.6000
     50     59   1      0.1491 238488.0000
     59     60   1      0.1509 217568.0000
     59     61   1      0.1432 280328.0000
     59     70   1      0.1088 284512.0000
     60     61   1      0.1432 280328.0000
     60     62   1      0.1510 230120.0000
     60     71   1      0.1088 284512.0000
     62     63   1      0.1410 267776.0000
     62     72   1      0.1090 284512.0000
     62     73   1      0.1090 284512.0000
     63     64   1      0.1364 376560.0000
     64     65   1      0.1400 392459.2000
     64     69   1      0.1400 392459.2000
     65     66   1      0.1400 392459.2000
     65     74   1      0.1080 307105.6000
     66     67   1      0.1400 392459.2000
     66     75   1      0.1080 307105.6000
     67     68   1      0.1400 392459.2000
     67     76   1      0.1080 307105.6000
     68     69   1      0.1400 392459.2000
     68     77   1      0.1080 307105.6000
     69     78   1      0.1491 238488.0000
     78     79   1      0.1509 217568.0000
     78     80   1      0.1432 280328.0000
     78     89   1      0.1088 284512.0000
     79     80   1      0.1432 280328.0000
     79     81   1      0.1510 230120.0000
     79     90   1      0.1088 284512.0000
     81     82   1      0.1410 267776.0000
     81     91   1      0.1090 284512.0000
     81     92   1      0.1090 284512.0000
     82     83   1      0.1364 376560.0000
     83     84   1      0.1400 392459.2000
     83     88   1      0.1400 392459.2000
     84     85   1      0.1400 392459.2000
     84     93   1      0.1080 307105.6000
     85     86   1      0.1400 392459.2000
     85     94   1      0.1080 307105.6000
     86     87   1      0.1400 392459.2000
     86     95   1      0.1080 307105.6000
     87     88   1      0.1400 392459.2000
     87     96   1      0.1080 307105.6000
     88     97   1      0.1491 238488.0000
     97     98   1      0.1509 217568.0000
     97     99   1      0.1432 280328.0000
     97    108   1      0.1088 284512.0000
     98     99   1      0.1432 280328.0000
     98    100   1      0.1510 230120.0000
     98    109   1      0.1088 284512.0000
    100    101   1      0.1410 267776.0000
    100    110   1      0.1090 284512.0000
    100    111   1      0.1090 284512.0000
    101    102   1      0.1364 376560.0000
    102    103   1      0.1400 392459.2000
    102    107   1      0.1400 392459.2000
    103    104   1      0.1400 392459.2000
    103    112   1      0.1080 307105.6000
    104    105   1      0.1400 392459.2000
    104    113   1      0.1080 307105.6000
    105    106   1      0.1400 392459.2000
    105    114   1      0.1080 307105.6000
    106    107   1      0.1400 392459.2000
    106    115   1      0.1080 307105.6000
    107    116   1      0.1491 238488.0000
    116    117   1      0.1509 217568.0000
    116    118   1      0.1432 280328.0000
    116    127   1      0.1088 284512.0000
    117    118   1      0.1432 280328.0000
    117    119   1      0.1510 230120.0000
    117    128   1      0.1088 284512.0000
    119    120   1      0.1410 267776.0000
    119    129   1      0.1090 284512.0000
    119    130   1      0.1090 284512.0000
    120    121   1      0.1364 376560.0000
    121    122   1      0.1400 392459.2000
    121    126   1      0.1400 392459.2000
    122    123   1      0.1400 392459.2000
    122    131   1      0.1080 307105.6000
    123    124   1      0.1400 392459.2000
    123    132   1      0.1080 307105.6000
    124    125   1      0.1400 392459.2000
    124    133   1      0.1080 307105.6000
    125    126   1      0.1400 392459.2000
    125    134   1      0.1080 307105.6000
    126    135   1      0.1491 238488.0000
    135    136   1      0.1509 217568.0000
    135    137   1      0.1432 280328.0000
    135    146   1      0.1088 284512.0000
    136    137   1      0.1432 280328.0000
    136    138   1      0.1510 230120.0000
    136    147   1      0.1088 284512.0000
    138    139   1      0.1410 267776.0000
    138    148   1      0.1090 284512.0000
    138    149   1      0.1090 284512.0000
    139    140   1      0.1364 376560.0000
    140    141   1      0.1400 392459.2000
    140    145   1      0.1400 392459.2000
    141    142   1      0.1400 392459.2000
    141    150   1      0.1080 307105.6000
    142    143   1      0.1400 392459.2000
    142    151   1      0.1080 307105.6000
    143    144   1      0.1400 392459.2000
    143    152   1      0.1080 307105.6000
    144    145   1      0.1400 392459.2000
    144    153   1      0.1080 307105.6000
    145    154   1      0.1491 238488.0000
    154    155   1      0.1509 217568.0000
    154    156   1      0.1432 280328.0000
    154    165   1      0.1088 284512.0000
    155    156   1      0.1432 280328.0000
    155    157   1      0.1510 230120.0000
    155    166   1      0.1088 284512.0000
    157    158   1      0.1410 267776.0000
    157    167   1      0.1090 284512.0000
    157    168   1      0.1090 284512.0000
    158    159   1      0.1364 376560.0000
    159    160   1      0.1400 392459.2000
    159    164   1      0.1400 392459.2000
    160    161   1      0.1400 392459.2000
    160    169   1      0.1080 307105.6000
    161    162   1      0.1400 392459.2000
    161    170   1      0.1080 307105.6000
    162    163   1      0.1400 392459.2000
    162    171   1      0.1080 307105.6000
    163    164   1      0.1400 392459.2000
    163    172   1      0.1080 307105.6000
    164    173   1      0.1491 238488.0000
    173    174   1      0.1509 217568.0000
    173    175   1      0.1432 280328.0000
    173    184   1      0.1088 284512.0000
    174    175   1      0.1432 280328.0000
    174    176   1      0.1510 230120.0000
    174    185   1      0.1088 284512.0000
    176    177   1      0.1410 267776.0000
    176    186   1      0.1090 284512.0000
    176    187   1      0.1090 284512.0000
    177    178   1      0.1364 376560.0000
    178    179   1      0.1400 392459.2000
    178    183   1      0.1400 392459.2000
    179    180   1      0.1400 392459.2000
    179    188   1      0.1080 307105.6000
    180    181   1      0.1400 392459.2000
    180    189   1      0.1080 307105.6000
    181    182   1      0.1400 392459.2000
    181    190   1      0.1080 307105.6000
    182    183   1      0.1400 392459.2000
    182    191   1      0.1080 307105.6000
    183    192   1      0.1491 238488.0000
    192    193   1      0.1509 217568.0000
    192    194   1      0.1432 280328.0000
    192    203   1      0.1088 284512.0000
    193    194   1      0.1432 280328.0000
    193    195   1      0.1510 230120.0000
    193    204   1      0.1088 284512.0000
    195    196   1      0.1410 267776.0000
    195    205   1      0.1090 284512.0000
    195    206   1      0.1090 284512.0000
    196    197   1      0.1364 376560.0000
    197    198   1      0.1400 392459.2000
    197    202   1      0.1400 392459.2000
    198    199   1      0.1400 392459.2000
    198    207   1      0.1080 307105.6000
    199    200   1      0.1400 392459.2000
    199    208   1      0.1080 307105.6000
    200    201   1      0.1400 392459.2000
    200    209   1      0.1080 307105.6000
    201    202   1      0.1400 392459.2000
    201    210   1      0.1080 307105.6000
    202    211   1      0.1491 238488.0000
    211    212   1      0.1509 217568.0000
    211    213   1      0.1432 280328.0000
    211    222   1      0.1088 284512.0000
    212    213   1      0.1432 280328.0000
    212    214   1      0.1510 230120.0000
    212    223   1      0.1088 284512.0000
    214    215   1      0.1410 267776.0000
    214    224   1      0.1090 284512.0000
    214    225   1      0.1090 284512.0000
    215    216   1      0.1364 376560.0000
    216    217   1      0.1400 392459.2000
    216    221   1      0.1400 392459.2000
    217    218   1      0.1400 392459.2000
    217    226   1      0.1080 307105.6000
    218    219   1      0.1400 392459.2000
    218    227   1      0.1080 307105.6000
    219    220   1      0.1400 392459.2000
    219    228   1      0.1080 307105.6000
    220    221   1      0.1400 392459.2000
    220    229   1      0.1080 307105.6000
    221    230   1      0.1491 238488.0000
    230    231   1      0.1509 217568.0000
    230    232   1      0.1432 280328.0000
    230    241   1      0.1088 284512.0000
    231    232   1      0.1432 280328.0000
    231    233   1      0.1510 230120.0000
    231    242   1      0.1088 284512.0000
    233    234   1      0.1410 267776.0000
    233    243   1      0.1090 284512.0000
    233    244   1      0.1090 284512.0000
    234    235   1      0.1364 376560.0000
    235    236   1      0.1400 392459.2000
    235    240   1      0.1400 392459.2000
    236    237   1      0.1400 392459.2000
    236    245   1      0.1080 307105.6000
    237    238   1      0.1400 392459.2000
    237    246   1      0.1080 307105.6000
    238    239   1      0.1400 392459.2000
    238    247   1      0.1080 307105.6000
    239    240   1      0.1400 392459.2000
    239    248   1      0.1080 307105.6000
    240    249   1      0.1491 238488.0000
    249    250   1      0.1509 217568.0000
    249    251   1      0.1432 280328.0000
    249    260   1      0.1088 284512.0000
    250    251   1      0.1432 280328.0000
    250    252   1      0.1510 230120.0000
    250    261   1      0.1088 284512.0000
    252    253   1      0.1410 267776.0000
    252    262   1      0.1090 284512.0000
    252    263   1      0.1090 284512.0000
    253    254   1      0.1364 376560.0000
    254    255   1      0.1400 392459.2000
    254    259   1      0.1400 392459.2000
    255    256   1      0.1400 392459.2000
    255    264   1      0.1080 307105.6000
    256    257   1      0.1400 392459.2000
    256    265   1      0.1080 307105.6000
    257    258   1      0.1400 392459.2000
    257    266   1      0.1080 307105.6000
    258    259   1      0.1400 392459.2000
    258    267   1      0.1080 307105.6000
    259    268   1      0.1491 238488.0000
    268    269   1      0.1509 217568.0000
    268    270   1      0.1432 280328.0000
    268    279   1      0.1088 284512.0000
    269    270   1      0.1432 280328.0000
    269    271   1      0.1510 230120.0000
    269    280   1      0.1088 284512.0000
    271    272   1      0.1410 267776.0000
    271    281   1      0.1090 284512.0000
    271    282   1      0.1090 284512.0000
    272    273   1      0.1364 376560.0000
    273    274   1      0.1400 392459.2000
    273    278   1      0.1400 392459.2000
    274    275   1      0.1400 392459.2000
    274    283   1      0.1080 307105.6000
    275    276   1      0.1400 392459.2000
    275    284   1      0.1080 307105.6000
    276    277   1      0.1400 392459.2000
    276    285   1      0.1080 307105.6000
    277    278   1      0.1400 392459.2000
    277    286   1      0.1080 307105.6000
    278    287   1      0.1491 238488.0000
    287    288   1      0.1509 217568.0000
    287    289   1      0.1432 280328.0000
    287    298   1      0.1088 284512.0000
    288    289   1      0.1432 280328.0000
    288    290   1      0.1510 230120.0000
    288    299   1      0.1088 284512.0000
    290    291   1      0.1410 267776.0000
    290    300   1      0.1090 284512.0000
    290    301   1      0.1090 284512.0000
    291    292   1      0.1364 376560.0000
    292    293   1      0.1400 392459.2000
    292    297   1      0.1400 392459.2000
    293    294   1      0.1400 392459.2000
    293    302   1      0.1080 307105.6000
    294    295   1      0.1400 392459.2000
    294    303   1      0.1080 307105.6000
    295    296   1      0.1400 392459.2000
    295    304   1      0.1080 307105.6000
    296    297   1      0.1400 392459.2000
    296    305   1      0.1080 307105.6000
    297    306   1      0.1491 238488.0000
    306    307   1      0.1509 217568.0000
    306    308   1      0.1432 280328.0000
    306    317   1      0.1088 284512.0000
    307    308   1      0.1432 280328.0000
    307    309   1      0.1510 230120.0000
    307    318   1      0.1088 284512.0000
    309    310   1      0.1410 267776.0000
    309    319   1      0.1090 284512.0000
    309    320   1      0.1090 284512.0000
    310    311   1      0.1364 376560.0000
    311    312   1      0.1400 392459.2000
    311    316   1      0.1400 392459.2000
    312    313   1      0.1400 392459.2000
    312    321   1      0.1080 307105.6000
    313    314   1      0.1400 392459.2000
    313    322   1      0.1080 307105.6000
    314    315   1      0.1400 392459.2000
    314    323   1      0.1080 307105.6000
    315    316   1      0.1400 392459.2000
    315    324   1      0.1080 307105.6000
    316    325   1      0.1491 238488.0000
    325    326   1      0.1509 217568.0000
    325    327   1      0.1432 280328.0000
    325    336   1      0.1088 284512.0000
    326    327   1      0.1432 280328.0000
    326    328   1      0.1510 230120.0000
    326    337   1      0.1088 284512.0000
    328    329   1      0.1410 267776.0000
    328    338   1      0.1090 284512.0000
    328    339   1      0.1090 284512.0000
    329    330   1      0.1364 376560.0000
    330    331   1      0.1400 392459.2000
    330    335   1      0.1400 392459.2000
    331    332   1      0.1400 392459.2000
    331    340   1      0.1080 307105.6000
    332    333   1      0.1400 392459.2000
    332    341   1      0.1080 307105.6000
    333    334   1      0.1400 392459.2000
    333    342   1      0.1080 307105.6000
    334    335   1      0.1400 392459.2000
    334    343   1      0.1080 307105.6000
    335    344   1      0.1491 238488.0000
    344    345   1      0.1509 217568.0000
    344    346   1      0.1432 280328.0000
    344    355   1      0.1088 284512.0000
    345    346   1      0.1432 280328.0000
    345    347   1      0.1510 230120.0000
    345    356   1      0.1088 284512.0000
    347    348   1      0.1410 267776.0000
    347    357   1      0.1090 284512.0000
    347    358   1      0.1090 284512.0000
    348    349   1      0.1364 376560.0000
    349    350   1      0.1400 392459.2000
    349    354   1      0.1400 392459.2000
    350    351   1      0.1400 392459.2000
    350    359   1      0.1080 307105.6000
    351    352   1      0.1400 392459.2000
    351    360   1      0.1080 307105.6000
    352    353   1      0.1400 392459.2000
    352    361   1      0.1080 307105.6000
    353    354   1      0.1400 392459.2000
    353    362   1      0.1080 307105.6000
    354    363   1      0.1491 238488.0000
    363    364   1      0.1509 217568.0000
    363    365   1      0.1432 280328.0000
    363    374   1      0.1088 284512.0000
    364    365   1      0.1432 280328.0000
    364    366   1      0.1510 230120.0000
    364    375   1      0.1088 284512.0000
    366    367   1      0.1410 267776.0000
    366    376   1      0.1090 284512.0000
    366    377   1      0.1090 284512.0000
    367    368   1      0.1364 376560.0000
    368    369   1      0.1400 392459.2000
    368    373   1      0.1400 392459.2000
    369    370   1      0.1400 392459.2000
    369    378   1      0.1080 307105.6000
    370    371   1      0.1400 392459.2000
    370    379   1      0.1080 307105.6000
    371    372   1      0.1400 392459.2000
    371    380   1      0.1080 307105.6000
    372    373   1      0.1400 392459.2000
    372    381   1      0.1080 307105.6000
    373    382   1      0.1080 307105.6000

[ pairs ]
; ai   aj   funct   fudge_QQ  charge_i   charge_j   c6    c12
     12      4   2   0.50000     0.0600000    0.1565000   2.494471e-04  1.671101e-07
     12     13   2   0.50000     0.0600000    0.0600000   6.128906e-05  1.496315e-08
     20      4   2   0.50000     0.0600000    0.1565000   2.494471e-04  1.671101e-07
     20     13   2   0.50000     0.0600000    0.0600000   6.128906e-05  1.496315e-08
      1      5   2   0.50000     0.0562000   -0.2850000   8.411158e-04  8.795366e-07
      1     14   2   0.50000     0.0562000    0.0300000   2.494471e-04  1.671101e-07
      1     15   2   0.50000     0.0562000    0.0300000   2.494471e-04  1.671101e-07
      3      5   2   0.50000    -0.3524000   -0.2850000   6.968474e-04  4.145011e-07
      3     14   2   0.50000    -0.3524000    0.0300000   2.066619e-04  7.875431e-08
      3     15   2   0.50000    -0.3524000    0.0300000   2.066619e-04  7.875431e-08
     13      5   2   0.50000     0.0600000   -0.2850000   2.066619e-04  7.875431e-08
     13     14   2   0.50000     0.0600000    0.0300000   6.128906e-05  1.496315e-08
     13     15   2   0.50000     0.0600000    0.0300000   6.128906e-05  1.496315e-08
      2      6   2   0.50000     0.0997000    0.0850000   1.091018e-03  2.092768e-06
     14      6   2   0.50000     0.0300000    0.0850000   2.680627e-04  1.873879e-07
     15      6   2   0.50000     0.0300000    0.0850000   2.680627e-04  1.873879e-07
      4      7   2   0.50000     0.1565000   -0.1150000   1.091018e-03  2.092768e-06
      4     11   2   0.50000     0.1565000   -0.1150000   1.091018e-03  2.092768e-06
      5      8   2   0.50000    -0.2850000   -0.1150000   9.038862e-04  9.862632e-07
      5     16   2   0.50000    -0.2850000    0.1150000   1.874504e-04  6.479276e-08
     11      8   2   0.50000    -0.1150000   -0.1150000   1.172438e-03  2.346713e-06
     11     16   2   0.50000    -0.1150000    0.1150000   2.431434e-04  1.541678e-07
      5     10   2   0.50000    -0.2850000   -0.1150000   9.038862e-04  9.862632e-07
      5     21   2   0.50000    -0.2850000    0.2312000   8.411158e-04  8.795366e-07
      7     10   2   0.50000    -0.1150000   -0.1150000   1.172438e-03  2.346713e-06
      7     21   2   0.50000    -0.1150000    0.2312000   1.091018e-03  2.092768e-06
      6      9   2   0.50000     0.0850000   -0.1150000   1.172438e-03  2.346713e-06
      6     17   2   0.50000     0.0850000    0.1150000   2.431434e-04  1.541678e-07
     16      9   2   0.50000     0.1150000   -0.1150000   2.431434e-04  1.541678e-07
     16     17   2   0.50000     0.1150000    0.1150000   5.042375e-05  1.012808e-08
      7     18   2   0.50000    -0.1150000    0.1150000   2.431434e-04  1.541678e-07
     17     10   2   0.50000     0.1150000   -0.1150000   2.431434e-04  1.541678e-07
     17     18   2   0.50000     0.1150000    0.1150000   5.042375e-05  1.012808e-08
      8     19   2   0.50000    -0.1150000    0.1150000   2.431434e-04  1.541678e-07
     18     11   2   0.50000     0.1150000   -0.1150000   2.431434e-04  1.541678e-07
     18     19   2   0.50000     0.1150000    0.1150000   5.042375e-05  1.012808e-08
      9     21   2   0.50000    -0.1150000    0.2312000   1.091018e-03  2.092768e-06
     19      6   2   0.50000     0.1150000    0.0850000   2.431434e-04  1.541678e-07
     19     21   2   0.50000     0.1150000    0.2312000   2.262583e-04  1.374848e-07
      6     22   2   0.50000     0.0850000    0.0997000   1.091018e-03  2.092768e-06
      6     23   2   0.50000     0.0850000   -0.3524000   9.038862e-04  9.862632e-07
      6     32   2   0.50000     0.0850000    0.0600000   2.680627e-04  1.873879e-07
     10     22   2   0.50000    -0.1150000    0.0997000   1.091018e-03  2.092768e-06
     10     23   2   0.50000    -0.1150000   -0.3524000   9.038862e-04  9.862632e-07
     10     32   2   0.50000    -0.1150000    0.0600000   2.680627e-04  1.873879e-07
     11     24   2   0.50000    -0.1150000    0.1565000   1.091018e-03  2.092768e-06
     11     33   2   0.50000    -0.1150000    0.0600000   2.680627e-04  1.873879e-07
     32     24   2   0.50000     0.0600000    0.1565000   2.494471e-04  1.671101e-07
     32     33   2   0.50000     0.0600000    0.0600000   6.128906e-05  1.496315e-08
     21     25   2   0.50000     0.2312000   -0.2850000   8.411158e-04  8.795366e-07
     21     34   2   0.50000     0.2312000    0.0300000   2.494471e-04  1.671101e-07
     21     35   2   0.50000     0.2312000    0.0300000   2.494471e-04  1.671101e-07
     23     25   2   0.50000    -0.3524000   -0.2850000   6.968474e-04  4.145011e-07
     23     34   2   0.50000    -0.3524000    0.0300000   2.066619e-04  7.875431e-08
     23     35   2   0.50000    -0.3524000    0.0300000   2.066619e-04  7.875431e-08
     33     25   2   0.50000     0.0600000   -0.2850000   2.066619e-04  7.875431e-08
     33     34   2   0.50000     0.0600000    0.0300000   6.128906e-05  1.496315e-08
     33     35   2   0.50000     0.0600000    0.0300000   6.128906e-05  1.496315e-08
     22     26   2   0.50000     0.0997000    0.0850000   1.091018e-03  2.092768e-06
     34     26   2   0.50000     0.0300000    0.0850000   2.680627e-04  1.873879e-07
     35     26   2   0.50000     0.0300000    0.0850000   2.680627e-04  1.873879e-07
     24     27   2   0.50000     0.1565000   -0.1150000   1.091018e-03  2.092768e-06
     24     31   2   0.50000     0.1565000   -0.1150000   1.091018e-03  2.092768e-06
     25     28   2   0.50000    -0.2850000   -0.1150000   9.038862e-04  9.862632e-07
     25     36   2   0.50000    -0.2850000    0.1150000   1.874504e-04  6.479276e-08
     31     28   2   0.50000    -0.1150000   -0.1150000   1.172438e-03  2.346713e-06
     31     36   2   0.50000    -0.1150000    0.1150000   2.431434e-04  1.541678e-07
     25     30   2   0.50000    -0.2850000   -0.1150000   9.038862e-04  9.862632e-07
     25     40   2   0.50000    -0.2850000    0.2312000   8.411158e-04  8.795366e-07
     27     30   2   0.50000    -0.1150000   -0.1150000   1.172438e-03  2.346713e-06
     27     40   2   0.50000    -0.1150000    0.2312000   1.091018e-03  2.092768e-06
     26     29   2   0.50000     0.0850000   -0.1150000   1.172438e-03  2.346713e-06
     26     37   2   0.50000     0.0850000    0.1150000   2.431434e-04  1.541678e-07
     36     29   2   0.50000     0.1150000   -0.1150000   2.431434e-04  1.541678e-07
     36     37   2   0.50000     0.1150000    0.1150000   5.042375e-05  1.012808e-08
     27     38   2   0.50000    -0.1150000    0.1150000   2.431434e-04  1.541678e-07
     37     30   2   0.50000     0.1150000   -0.1150000   2.431434e-04  1.541678e-07
     37     38   2   0.50000     0.1150000    0.1150000   5.042375e-05  1.012808e-08
     28     39   2   0.50000    -0.1150000    0.1150000   2.431434e-04  1.541678e-07
     38     31   2   0.50000     0.1150000   -0.1150000   2.431434e-04  1.541678e-07
     38     39   2   0.50000     0.1150000    0.1150000   5.042375e-05  1.012808e-08
     29     40   2   0.50000    -0.1150000    0.2312000   1.091018e-03  2.092768e-06
     39     26   2   0.50000     0.1150000    0.0850000   2.431434e-04  1.541678e-07
     39     40   2   0.50000     0.1150000    0.2312000   2.262583e-04  1.374848e-07
     26     41   2   0.50000     0.0850000    0.0997000   1.091018e-03  2.092768e-06
     26     42   2   0.50000     0.0850000   -0.3524000   9.038862e-04  9.862632e-07
     26     51   2   0.50000     0.0850000    0.0600000   2.680627e-04  1.873879e-07
     30     41   2   0.50000    -0.1150000    0.0997000   1.091018e-03  2.092768e-06
     30     42   2   0.50000    -0.1150000   -0.3524000   9.038862e-04  9.862632e-07
     30     51   2   0.50000    -0.1150000    0.0600000   2.680627e-04  1.873879e-07
     31     43   2   0.50000    -0.1150000    0.1565000   1.091018e-03  2.092768e-06
     31     52   2   0.50000    -0.1150000    0.0600000   2.680627e-04  1.873879e-07
     51     43   2   0.50000     0.0600000    0.1565000   2.494471e-04  1.671101e-07
     51     52   2   0.50000     0.0600000    0.0600000   6.128906e-05  1.496315e-08
     40     44   2   0.50000     0.2312000   -0.2850000   8.411158e-04  8.795366e-07
     40     53   2   0.50000     0.2312000    0.0300000   2.494471e-04  1.671101e-07
     40     54   2   0.50000     0.2312000    0.0300000   2.494471e-04  1.671101e-07
     42     44   2   0.50000    -0.3524000   -0.2850000   6.968474e-04  4.145011e-07
     42     53   2   0.50000    -0.3524000    0.0300000   2.066619e-04  7.875431e-08
     42     54   2   0.50000    -0.3524000    0.0300000   2.066619e-04  7.875431e-08
     52     44   2   0.50000     0.0600000   -0.2850000   2.066619e-04  7.875431e-08
     52     53   2   0.50000     0.0600000    0.0300000   6.128906e-05  1.496315e-08
     52     54   2   0.50000     0.0600000    0.0300000   6.128906e-05  1.496315e-08
     41     45   2   0.50000     0.0997000    0.0850000   1.091018e-03  2.092768e-06
     53     45   2   0.50000     0.0300000    0.0850000   2.680627e-04  1.873879e-07
     54     45   2   0.50000     0.0300000    0.0850000   2.680627e-04  1.873879e-07
     43     46   2   0.50000     0.1565000   -0.1150000   1.091018e-03  2.092768e-06
     43     50   2   0.50000     0.1565000   -0.1150000   1.091018e-03  2.092768e-06
     44     47   2   0.50000    -0.2850000   -0.1150000   9.038862e-04  9.862632e-07
     44     55   2   0.50000    -0.2850000    0.1150000   1.874504e-04  6.479276e-08
     50     47   2   0.50000    -0.1150000   -0.1150000   1.172438e-03  2.346713e-06
     50     55   2   0.50000    -0.1150000    0.1150000   2.431434e-04  1.541678e-07
     44     49   2   0.50000    -0.2850000   -0.1150000   9.038862e-04  9.862632e-07
     44     59   2   0.50000    -0.2850000    0.2312000   8.411158e-04  8.795366e-07
     46     49   2   0.50000    -0.1150000   -0.1150000   1.172438e-03  2.346713e-06
     46     59   2   0.50000    -0.1150000    0.2312000   1.091018e-03  2.092768e-06
     45     48   2   0.50000     0.0850000   -0.1150000   1.172438e-03  2.346713e-06
     45     56   2   0.50000     0.0850000    0.1150000   2.431434e-04  1.541678e-07
     55     48   2   0.50000     0.1150000   -0.1150000   2.431434e-04  1.541678e-07
     55     56   2   0.50000     0.1150000    0.1150000   5.042375e-05  1.012808e-08
     46     57   2   0.50000    -0.1150000    0.1150000   2.431434e-04  1.541678e-07
     56     49   2   0.50000     0.1150000   -0.1150000   2.431434e-04  1.541678e-07
     56     57   2   0.50000     0.1150000    0.1150000   5.042375e-05  1.012808e-08
     47     58   2   0.50000    -0.1150000    0.1150000   2.431434e-04  1.541678e-07
     57     50   2   0.50000     0.1150000   -0.1150000   2.431434e-04  1.541678e-07
     57     58   2   0.50000     0.1150000    0.1150000   5.042375e-05  1.012808e-08
     48     59   2   0.50000    -0.1150000    0.2312000   1.091018e-03  2.092768e-06
     58     45   2   0.50000     0.1150000    0.0850000   2.431434e-04  1.541678e-07
     58     59   2   0.50000     0.1150000    0.2312000   2.262583e-04  1.374848e-07
     45     60   2   0.50000     0.0850000    0.0997000   1.091018e-03  2.092768e-06
     45     61   2   0.50000     0.0850000   -0.3524000   9.038862e-04  9.862632e-07
     45     70   2   0.50000     0.0850000    0.0600000   2.680627e-04  1.873879e-07
     49     60   2   0.50000    -0.1150000    0.0997000   1.091018e-03  2.092768e-06
     49     61   2   0.50000    -0.1150000   -0.3524000   9.038862e-04  9.862632e-07
     49     70   2   0.50000    -0.1150000    0.0600000   2.680627e-04  1.873879e-07
     50     62   2   0.50000    -0.1150000    0.1565000   1.091018e-03  2.092768e-06
     50     71   2   0.50000    -0.1150000    0.0600000   2.680627e-04  1.873879e-07
     70     62   2   0.50000     0.0600000    0.1565000   2.494471e-04  1.671101e-07
     70     71   2   0.50000     0.0600000    0.0600000   6.128906e-05  1.496315e-08
     59     63   2   0.50000     0.2312000   -0.2850000   8.411158e-04  8.795366e-07
     59     72   2   0.50000     0.2312000    0.0300000   2.494471e-04  1.671101e-07
     59     73   2   0.50000     0.2312000    0.0300000   2.494471e-04  1.671101e-07
     61     63   2   0.50000    -0.3524000   -0.2850000   6.968474e-04  4.145011e-07
     61     72   2   0.50000    -0.3524000    0.0300000   2.066619e-04  7.875431e-08
     61     73   2   0.50000    -0.3524000    0.0300000   2.066619e-04  7.875431e-08
     71     63   2   0.50000     0.0600000   -0.2850000   2.066619e-04  7.875431e-08
     71     72   2   0.50000     0.0600000    0.0300000   6.128906e-05  1.496315e-08
     71     73   2   0.50000     0.0600000    0.0300000   6.128906e-05  1.496315e-08
     60     64   2   0.50000     0.0997000    0.0850000   1.091018e-03  2.092768e-06
     72     64   2   0.50000     0.0300000    0.0850000   2.680627e-04  1.873879e-07
     73     64   2   0.50000     0.0300000    0.0850000   2.680627e-04  1.873879e-07
     62     65   2   0.50000     0.1565000   -0.1150000   1.091018e-03  2.092768e-06
     62     69   2   0.50000     0.1565000   -0.1150000   1.091018e-03  2.092768e-06
     63     66   2   0.50000    -0.2850000   -0.1150000   9.038862e-04  9.862632e-07
     63     74   2   0.50000    -0.2850000    0.1150000   1.874504e-04  6.479276e-08
     69     66   2   0.50000    -0.1150000   -0.1150000   1.172438e-03  2.346713e-06
     69     74   2   0.50000    -0.1150000    0.1150000   2.431434e-04  1.541678e-07
     63     68   2   0.50000    -0.2850000   -0.1150000   9.038862e-04  9.862632e-07
     63     78   2   0.50000    -0.2850000    0.2312000   8.411158e-04  8.795366e-07
     65     68   2   0.50000    -0.1150000   -0.1150000   1.172438e-03  2.346713e-06
     65     78   2   0.50000    -0.1150000    0.2312000   1.091018e-03  2.092768e-06
     64     67   2   0.50000     0.0850000   -0.1150000   1.172438e-03  2.346713e-06
     64     75   2   0.50000     0.0850000    0.1150000   2.431434e-04  1.541678e-07
     74     67   2   0.50000     0.1150000   -0.1150000   2.431434e-04  1.541678e-07
     74     75   2   0.50000     0.1150000    0.1150000   5.042375e-05  1.012808e-08
     65     76   2   0.50000    -0.1150000    0.1150000   2.431434e-04  1.541678e-07
     75     68   2   0.50000     0.1150000   -0.1150000   2.431434e-04  1.541678e-07
     75     76   2   0.50000     0.1150000    0.1150000   5.042375e-05  1.012808e-08
     66     77   2   0.50000    -0.1150000    0.1150000   2.431434e-04  1.541678e-07
     76     69   2   0.50000     0.1150000   -0.1150000   2.431434e-04  1.541678e-07
     76     77   2   0.50000     0.1150000    0.1150000   5.042375e-05  1.012808e-08
     67     78   2   0.50000    -0.1150000    0.2312000   1.091018e-03  2.092768e-06
     77     64   2   0.50000     0.1150000    0.0850000   2.431434e-04  1.541678e-07
     77     78   2   0.50000     0.1150000    0.2312000   2.262583e-04  1.374848e-07
     64     79   2   0.50000     0.0850000    0.0997000   1.091018e-03  2.092768e-06
     64     80   2   0.50000     0.0850000   -0.3524000   9.038862e-04  9.862632e-07
     64     89   2   0.50000     0.0850000    0.0600000   2.680627e-04  1.873879e-07
     68     79   2   0.50000    -0.1150000    0.0997000   1.091018e-03  2.092768e-06
     68     80   2   0.50000    -0.1150000   -0.3524000   9.038862e-04  9.862632e-07
     68     89   2   0.50000    -0.1150000    0.0600000   2.680627e-04  1.873879e-07
     69     81   2   0.50000    -0.1150000    0.1565000   1.091018e-03  2.092768e-06
     69     90   2   0.50000    -0.1150000    0.0600000   2.680627e-04  1.873879e-07
     89     81   2   0.50000     0.0600000    0.1565000   2.494471e-04  1.671101e-07
     89     90   2   0.50000     0.0600000    0.0600000   6.128906e-05  1.496315e-08
     78     82   2   0.50000     0.2312000   -0.2850000   8.411158e-04  8.795366e-07
     78     91   2   0.50000     0.2312000    0.0300000   2.494471e-04  1.671101e-07
     78     92   2   0.50000     0.2312000    0.0300000   2.494471e-04  1.671101e-07
     80     82   2   0.50000    -0.3524000   -0.2850000   6.968474e-04  4.145011e-07
     80     91   2   0.50000    -0.3524000    0.0300000   2.066619e-04  7.875431e-08
     80     92   2   0.50000    -0.3524000    0.0300000   2.066619e-04  7.875431e-08
     90     82   2   0.50000     0.0600000   -0.2850000   2.066619e-04  7.875431e-08
     90     91   2   0.50000     0.0600000    0.0300000   6.128906e-05  1.496315e-08
     90     92   2   0.50000     0.0600000    0.0300000   6.128906e-05  1.496315e-08
     79     83   2   0.50000     0.0997000    0.0850000   1.091018e-03  2.092768e-06
     91     83   2   0.50000     0.0300000    0.0850000   2.680627e-04  1.873879e-07
     92     83   2   0.50000     0.0300000    0.0850000   2.680627e-04  1.873879e-07
     81     84   2   0.50000     0.1565000   -0.1150000   1.091018e-03  2.092768e-06
     81     88   2   0.50000     0.1565000   -0.1150000   1.091018e-03  2.092768e-06
     82     85   2   0.50000    -0.2850000   -0.1150000   9.038862e-04  9.862632e-07
     82     93   2   0.50000    -0.2850000    0.1150000   1.874504e-04  6.479276e-08
     88     85   2   0.50000    -0.1150000   -0.1150000   1.172438e-03  2.346713e-06
     88     93   2   0.50000    -0.1150000    0.1150000   2.431434e-04  1.541678e-07
     82     87   2   0.50000    -0.2850000   -0.1150000   9.038862e-04  9.862632e-07
     82     97   2   0.50000    -0.2850000    0.2312000   8.411158e-04  8.795366e-07
     84     87   2   0.50000    -0.1150000   -0.1150000   1.172438e-03  2.346713e-06
     84     97   2   0.50000    -0.1150000    0.2312000   1.091018e-03  2.092768e-06
     83     86   2   0.50000     0.0850000   -0.1150000   1.172438e-03  2.346713e-06
     83     94   2   0.50000     0.0850000    0.1150000   2.431434e-04  1.541678e-07
     93     86   2   0.50000     0.1150000   -0.1150000   2.431434e-04  1.541678e-07
     93     94   2   0.50000     0.1150000    0.1150000   5.042375e-05  1.012808e-08
     84     95   2   0.50000    -0.1150000    0.1150000   2.431434e-04  1.541678e-07
     94     87   2   0.50000     0.1150000   -0.1150000   2.431434e-04  1.541678e-07
     94     95   2   0.50000     0.1150000    0.1150000   5.042375e-05  1.012808e-08
     85     96   2   0.50000    -0.1150000    0.1150000   2.431434e-04  1.541678e-07
     95     88   2   0.50000     0.1150000   -0.1150000   2.431434e-04  1.541678e-07
     95     96   2   0.50000     0.1150000    0.1150000   5.042375e-05  1.012808e-08
     86     97   2   0.50000    -0.1150000    0.2312000   1.091018e-03  2.092768e-06
     96     83   2   0.50000     0.1150000    0.0850000   2.431434e-04  1.541678e-07
     96     97   2   0.50000     0.1150000    0.2312000   2.262583e-04  1.374848e-07
     83     98   2   0.50000     0.0850000    0.0997000   1.091018e-03  2.092768e-06
     83     99   2   0.50000     0.0850000   -0.3524000   9.038862e-04  9.862632e-07
     83    108   2   0.50000     0.0850000    0.0600000   2.680627e-04  1.873879e-07
     87     98   2   0.50000    -0.1150000    0.0997000   1.091018e-03  2.092768e-06
     87     99   2   0.50000    -0.1150000   -0.3524000   9.038862e-04  9.862632e-07
     87    108   2   0.50000    -0.1150000    0.0600000   2.680627e-04  1.873879e-07
     88    100   2   0.50000    -0.1150000    0.1565000   1.091018e-03  2.092768e-06
     88    109   2   0.50000    -0.1150000    0.0600000   2.680627e-04  1.873879e-07
    108    100   2   0.50000     0.0600000    0.1565000   2.494471e-04  1.671101e-07
    108    109   2   0.50000     0.0600000    0.0600000   6.128906e-05  1.496315e-08
     97    101   2   0.50000     0.2312000   -0.2850000   8.411158e-04  8.795366e-07
     97    110   2   0.50000     0.2312000    0.0300000   2.494471e-04  1.671101e-07
     97    111   2   0.50000     0.2312000    0.0300000   2.494471e-04  1.671101e-07
     99    101   2   0.50000    -0.3524000   -0.2850000   6.968474e-04  4.145011e-07
     99    110   2   0.50000    -0.3524000    0.0300000   2.066619e-04  7.875431e-08
     99    111   2   0.50000    -0.3524000    0.0300000   2.066619e-04  7.875431e-08
    109    101   2   0.50000     0.0600000   -0.2850000   2.066619e-04  7.875431e-08
    109    110   2   0.50000     0.0600000    0.0300000   6.128906e-05  1.496315e-08
    109    111   2   0.50000     0.0600000    0.0300000   6.128906e-05  1.496315e-08
     98    102   2   0.50000     0.0997000    0.0850000   1.091018e-03  2.092768e-06
    110    102   2   0.50000     0.0300000    0.0850000   2.680627e-04  1.873879e-07
    111    102   2   0.50000     0.0300000    0.0850000   2.680627e-04  1.873879e-07
    100    103   2   0.50000     0.1565000   -0.1150000   1.091018e-03  2.092768e-06
    100    107   2   0.50000     0.1565000   -0.1150000   1.091018e-03  2.092768e-06
    101    104   2   0.50000    -0.2850000   -0.1150000   9.038862e-04  9.862632e-07
    101    112   2   0.50000    -0.2850000    0.1150000   1.874504e-04  6.479276e-08
    107    104   2   0.50000    -0.1150000   -0.1150000   1.172438e-03  2.346713e-06
    107    112   2   0.50000    -0.1150000    0.1150000   2.431434e-04  1.541678e-07
    101    106   2   0.50000    -0.2850000   -0.1150000   9.038862e-04  9.862632e-07
    101    116   2   0.50000    -0.2850000    0.2312000   8.411158e-04  8.795366e-07
    103    106   2   0.50000    -0.1150000   -0.1150000   1.172438e-03  2.346713e-06
    103    116   2   0.50000    -0.1150000    0.2312000   1.091018e-03  2.092768e-06
    102    105   2   0.50000     0.0850000   -0.1150000   1.172438e-03  2.346713e-06
    102    113   2   0.50000     0.0850000    0.1150000   2.431434e-04  1.541678e-07
    112    105   2   0.50000     0.1150000   -0.1150000   2.431434e-04  1.541678e-07
    112    113   2   0.50000     0.1150000    0.1150000   5.042375e-05  1.012808e-08
    103    114   2   0.50000    -0.1150000    0.1150000   2.431434e-04  1.541678e-07
    113    106   2   0.50000     0.1150000   -0.1150000   2.431434e-04  1.541678e-07
    113    114   2   0.50000     0.1150000    0.1150000   5.042375e-05  1.012808e-08
    104    115   2   0.50000    -0.1150000    0.1150000   2.431434e-04  1.541678e-07
    114    107   2   0.50000     0.1150000   -0.1150000   2.431434e-04  1.541678e-07
    114    115   2   0.50000     0.1150000    0.1150000   5.042375e-05  1.012808e-08
    105    116   2   0.50000    -0.1150000    0.2312000   1.091018e-03  2.092768e-06
    115    102   2   0.50000     0.1150000    0.0850000   2.431434e-04  1.541678e-07
    115    116   2   0.50000     0.1150000    0.2312000   2.262583e-04  1.374848e-07
    102    117   2   0.50000     0.0850000    0.0997000   1.091018e-03  2.092768e-06
    102    118   2   0.50000     0.0850000   -0.3524000   9.038862e-04  9.862632e-07
    102    127   2   0.50000     0.0850000    0.0600000   2.680627e-04  1.873879e-07
    106    117   2   0.50000    -0.1150000    0.0997000   1.091018e-03  2.092768e-06
    106    118   2   0.50000    -0.1150000   -0.3524000   9.038862e-04  9.862632e-07
    106    127   2   0.50000    -0.1150000    0.0600000   2.680627e-04  1.873879e-07
    107    119   2   0.50000    -0.1150000    0.1565000   1.091018e-03  2.092768e-06
    107    128   2   0.50000    -0.1150000    0.0600000   2.680627e-04  1.873879e-07
    127    119   2   0.50000     0.0600000    0.1565000   2.494471e-04  1.671101e-07
    127    128   2   0.50000     0.0600000    0.0600000   6.128906e-05  1.496315e-08
    116    120   2   0.50000     0.2312000   -0.2850000   8.411158e-04  8.795366e-07
    116    129   2   0.50000     0.2312000    0.0300000   2.494471e-04  1.671101e-07
    116    130   2   0.50000     0.2312000    0.0300000   2.494471e-04  1.671101e-07
    118    120   2   0.50000    -0.3524000   -0.2850000   6.968474e-04  4.145011e-07
    118    129   2   0.50000    -0.3524000    0.0300000   2.066619e-04  7.875431e-08
    118    130   2   0.50000    -0.3524000    0.0300000   2.066619e-04  7.875431e-08
    128    120   2   0.50000     0.0600000   -0.2850000   2.066619e-04  7.875431e-08
    128    129   2   0.50000     0.0600000    0.0300000   6.128906e-05  1.496315e-08
    128    130   2   0.50000     0.0600000    0.0300000   6.128906e-05  1.496315e-08
    117    121   2   0.50000     0.0997000    0.0850000   1.091018e-03  2.092768e-06
    129    121   2   0.50000     0.0300000    0.0850000   2.680627e-04  1.873879e-07
    130    121   2   0.50000     0.0300000    0.0850000   2.680627e-04  1.873879e-07
    119    122   2   0.50000     0.1565000   -0.1150000   1.091018e-03  2.092768e-06
    119    126   2   0.50000     0.1565000   -0.1150000   1.091018e-03  2.092768e-06
    120    123   2   0.50000    -0.2850000   -0.1150000   9.038862e-04  9.862632e-07
    120    131   2   0.50000    -0.2850000    0.1150000   1.874504e-04  6.479276e-08
    126    123   2   0.50000    -0.1150000   -0.1150000   1.172438e-03  2.346713e-06
    126    131   2   0.50000    -0.1150000    0.1150000   2.431434e-04  1.541678e-07
    120    125   2   0.50000    -0.2850000   -0.1150000   9.038862e-04  9.862632e-07
    120    135   2   0.50000    -0.2850000    0.2312000   8.411158e-04  8.795366e-07
    122    125   2   0.50000    -0.1150000   -0.1150000   1.172438e-03  2.346713e-06
    122    135   2   0.50000    -0.1150000    0.2312000   1.091018e-03  2.092768e-06
    121    124   2   0.50000     0.0850000   -0.1150000   1.172438e-03  2.346713e-06
    121    132   2   0.50000     0.0850000    0.1150000   2.431434e-04  1.541678e-07
    131    124   2   0.50000     0.1150000   -0.1150000   2.431434e-04  1.541678e-07
    131    132   2   0.50000     0.1150000    0.1150000   5.042375e-05  1.012808e-08
    122    133   2   0.50000    -0.1150000    0.1150000   2.431434e-04  1.541678e-07
    132    125   2   0.50000     0.1150000   -0.1150000   2.431434e-04  1.541678e-07
    132    133   2   0.50000     0.1150000    0.1150000   5.042375e-05  1.012808e-08
    123    134   2   0.50000    -0.1150000    0.1150000   2.431434e-04  1.541678e-07
    133    126   2   0.50000     0.1150000   -0.1150000   2.431434e-04  1.541678e-07
    133    134   2   0.50000     0.1150000    0.1150000   5.042375e-05  1.012808e-08
    124    135   2   0.50000    -0.1150000    0.2312000   1.091018e-03  2.092768e-06
    134    121   2   0.50000     0.1150000    0.0850000   2.431434e-04  1.541678e-07
    134    135   2   0.50000     0.1150000    0.2312000   2.262583e-04  1.374848e-07
    121    136   2   0.50000     0.0850000    0.0997000   1.091018e-03  2.092768e-06
    121    137   2   0.50000     0.0850000   -0.3524000   9.038862e-04  9.862632e-07
    121    146   2   0.50000     0.0850000    0.0600000   2.680627e-04  1.873879e-07
    125    136   2   0.50000    -0.1150000    0.0997000   1.091018e-03  2.092768e-06
    125    137   2   0.50000    -0.1150000   -0.3524000   9.038862e-04  9.862632e-07
    125    146   2   0.50000    -0.1150000    0.0600000   2.680627e-04  1.873879e-07
    126    138   2   0.50000    -0.1150000    0.1565000   1.091018e-03  2.092768e-06
    126    147   2   0.50000    -0.1150000    0.0600000   2.680627e-04  1.873879e-07
    146    138   2   0.50000     0.0600000    0.1565000   2.494471e-04  1.671101e-07
    146    147   2   0.50000     0.0600000    0.0600000   6.128906e-05  1.496315e-08
    135    139   2   0.50000     0.2312000   -0.2850000   8.411158e-04  8.795366e-07
    135    148   2   0.50000     0.2312000    0.0300000   2.494471e-04  1.671101e-07
    135    149   2   0.50000     0.2312000    0.0300000   2.494471e-04  1.671101e-07
    137    139   2   0.50000    -0.3524000   -0.2850000   6.968474e-04  4.145011e-07
    137    148   2   0.50000    -0.3524000    0.0300000   2.066619e-04  7.875431e-08
    137    149   2   0.50000    -0.3524000    0.0300000   2.066619e-04  7.875431e-08
    147    139   2   0.50000     0.0600000   -0.2850000   2.066619e-04  7.875431e-08
    147    148   2   0.50000     0.0600000    0.0300000   6.128906e-05  1.496315e-08
    147    149   2   0.50000     0.0600000    0.0300000   6.128906e-05  1.496315e-08
    136    140   2   0.50000     0.0997000    0.0850000   1.091018e-03  2.092768e-06
    148    140   2   0.50000     0.0300000    0.0850000   2.680627e-04  1.873879e-07
    149    140   2   0.50000     0.0300000    0.0850000   2.680627e-04  1.873879e-07
    138    141   2   0.50000     0.1565000   -0.1150000   1.091018e-03  2.092768e-06
    138    145   2   0.50000     0.1565000   -0.1150000   1.091018e-03  2.092768e-06
    139    142   2   0.50000    -0.2850000   -0.1150000   9.038862e-04  9.862632e-07
    139    150   2   0.50000    -0.2850000    0.1150000   1.874504e-04  6.479276e-08
    145    142   2   0.50000    -0.1150000   -0.1150000   1.172438e-03  2.346713e-06
    145    150   2   0.50000    -0.1150000    0.1150000   2.431434e-04  1.541678e-07
    139    144   2   0.50000    -0.2850000   -0.1150000   9.038862e-04  9.862632e-07
    139    154   2   0.50000    -0.2850000    0.2312000   8.411158e-04  8.795366e-07
    141    144   2   0.50000    -0.1150000   -0.1150000   1.172438e-03  2.346713e-06
    141    154   2   0.50000    -0.1150000    0.2312000   1.091018e-03  2.092768e-06
    140    143   2   0.50000     0.0850000   -0.1150000   1.172438e-03  2.346713e-06
    140    151   2   0.50000     0.0850000    0.1150000   2.431434e-04  1.541678e-07
    150    143   2   0.50000     0.1150000   -0.1150000   2.431434e-04  1.541678e-07
    150    151   2   0.50000     0.1150000    0.1150000   5.042375e-05  1.012808e-08
    141    152   2   0.50000    -0.1150000    0.1150000   2.431434e-04  1.541678e-07
    151    144   2   0.50000     0.1150000   -0.1150000   2.431434e-04  1.541678e-07
    151    152   2   0.50000     0.1150000    0.1150000   5.042375e-05  1.012808e-08
    142    153   2   0.50000    -0.1150000    0.1150000   2.431434e-04  1.541678e-07
    152    145   2   0.50000     0.1150000   -0.1150000   2.431434e-04  1.541678e-07
    152    153   2   0.50000     0.1150000    0.1150000   5.042375e-05  1.012808e-08
    143    154   2   0.50000    -0.1150000    0.2312000   1.091018e-03  2.092768e-06
    153    140   2   0.50000     0.1150000    0.0850000   2.431434e-04  1.541678e-07
    153    154   2   0.50000     0.1150000    0.2312000   2.262583e-04  1.374848e-07
    140    155   2   0.50000     0.0850000    0.0997000   1.091018e-03  2.092768e-06
    140    156   2   0.50000     0.0850000   -0.3524000   9.038862e-04  9.862632e-07
    140    165   2   0.50000     0.0850000    0.0600000   2.680627e-04  1.873879e-07
    144    155   2   0.50000    -0.1150000    0.0997000   1.091018e-03  2.092768e-06
    144    156   2   0.50000    -0.1150000   -0.3524000   9.038862e-04  9.862632e-07
    144    165   2   0.50000    -0.1150000    0.0600000   2.680627e-04  1.873879e-07
    145    157   2   0.50000    -0.1150000    0.1565000   1.091018e-03  2.092768e-06
    145    166   2   0.50000    -0.1150000    0.0600000   2.680627e-04  1.873879e-07
    165    157   2   0.50000     0.0600000    0.1565000   2.494471e-04  1.671101e-07
    165    166   2   0.50000     0.0600000    0.0600000   6.128906e-05  1.496315e-08
    154    158   2   0.50000     0.2312000   -0.2850000   8.411158e-04  8.795366e-07
    154    167   2   0.50000     0.2312000    0.0300000   2.494471e-04  1.671101e-07
    154    168   2   0.50000     0.2312000    0.0300000   2.494471e-04  1.671101e-07
    156    158   2   0.50000    -0.3524000   -0.2850000   6.968474e-04  4.145011e-07
    156    167   2   0.50000    -0.3524000    0.0300000   2.066619e-04  7.875431e-08
    156    168   2   0.50000    -0.3524000    0.0300000   2.066619e-04  7.875431e-08
    166    158   2   0.50000     0.0600000   -0.2850000   2.066619e-04  7.875431e-08
    166    167   2   0.50000     0.0600000    0.0300000   6.128906e-05  1.496315e-08
    166    168   2   0.50000     0.0600000    0.0300000   6.128906e-05  1.496315e-08
    155    159   2   0.50000     0.0997000    0.0850000   1.091018e-03  2.092768e-06
    167    159   2   0.50000     0.0300000    0.0850000   2.680627e-04  1.873879e-07
    168    159   2   0.50000     0.0300000    0.0850000   2.680627e-04  1.873879e-07
    157    160   2   0.50000     0.1565000   -0.1150000   1.091018e-03  2.092768e-06
    157    164   2   0.50000     0.1565000   -0.1150000   1.091018e-03  2.092768e-06
    158    161   2   0.50000    -0.2850000   -0.1150000   9.038862e-04  9.862632e-07
    158    169   2   0.50000    -0.2850000    0.1150000   1.874504e-04  6.479276e-08
    164    161   2   0.50000    -0.1150000   -0.1150000   1.172438e-03  2.346713e-06
    164    169   2   0.50000    -0.1150000    0.1150000   2.431434e-04  1.541678e-07
    158    163   2   0.50000    -0.2850000   -0.1150000   9.038862e-04  9.862632e-07
    158    173   2   0.50000    -0.2850000    0.2312000   8.411158e-04  8.795366e-07
    160    163   2   0.50000    -0.1150000   -0.1150000   1.172438e-03  2.346713e-06
    160    173   2   0.50000    -0.1150000    0.2312000   1.091018e-03  2.092768e-06
    159    162   2   0.50000     0.0850000   -0.1150000   1.172438e-03  2.346713e-06
    159    170   2   0.50000     0.0850000    0.1150000   2.431434e-04  1.541678e-07
    169    162   2   0.50000     0.1150000   -0.1150000   2.431434e-04  1.541678e-07
    169    170   2   0.50000     0.1150000    0.1150000   5.042375e-05  1.012808e-08
    160    171   2   0.50000    -0.1150000    0.1150000   2.431434e-04  1.541678e-07
    170    163   2   0.50000     0.1150000   -0.1150000   2.431434e-04  1.541678e-07
    170    171   2   0.50000     0.1150000    0.1150000   5.042375e-05  1.012808e-08
    161    172   2   0.50000    -0.1150000    0.1150000   2.431434e-04  1.541678e-07
    171    164   2   0.50000     0.1150000   -0.1150000   2.431434e-04  1.541678e-07
    171    172   2   0.50000     0.1150000    0.1150000   5.042375e-05  1.012808e-08
    162    173   2   0.50000    -0.1150000    0.2312000   1.091018e-03  2.092768e-06
    172    159   2   0.50000     0.1150000    0.0850000   2.431434e-04  1.541678e-07
    172    173   2   0.50000     0.1150000    0.2312000   2.262583e-04  1.374848e-07
    159    174   2   0.50000     0.0850000    0.0997000   1.091018e-03  2.092768e-06
    159    175   2   0.50000     0.0850000   -0.3524000   9.038862e-04  9.862632e-07
    159    184   2   0.50000     0.0850000    0.0600000   2.680627e-04  1.873879e-07
    163    174   2   0.50000    -0.1150000    0.0997000   1.091018e-03  2.092768e-06
    163    175   2   0.50000    -0.1150000   -0.3524000   9.038862e-04  9.862632e-07
    163    184   2   0.50000    -0.1150000    0.0600000   2.680627e-04  1.873879e-07
    164    176   2   0.50000    -0.1150000    0.1565000   1.091018e-03  2.092768e-06
    164    185   2   0.50000    -0.1150000    0.0600000   2.680627e-04  1.873879e-07
    184    176   2   0.50000     0.0600000    0.1565000   2.494471e-04  1.671101e-07
    184    185   2   0.50000     0.0600000    0.0600000   6.128906e-05  1.496315e-08
    173    177   2   0.50000     0.2312000   -0.2850000   8.411158e-04  8.795366e-07
    173    186   2   0.50000     0.2312000    0.0300000   2.494471e-04  1.671101e-07
    173    187   2   0.50000     0.2312000    0.0300000   2.494471e-04  1.671101e-07
    175    177   2   0.50000    -0.3524000   -0.2850000   6.968474e-04  4.145011e-07
    175    186   2   0.50000    -0.3524000    0.0300000   2.066619e-04  7.875431e-08
    175    187   2   0.50000    -0.3524000    0.0300000   2.066619e-04  7.875431e-08
    185    177   2   0.50000     0.0600000   -0.2850000   2.066619e-04  7.875431e-08
    185    186   2   0.50000     0.0600000    0.0300000   6.128906e-05  1.496315e-08
    185    187   2   0.50000     0.0600000    0.0300000   6.128906e-05  1.496315e-08
    174    178   2   0.50000     0.0997000    0.0850000   1.091018e-03  2.092768e-06
    186    178   2   0.50000     0.0300000    0.0850000   2.680627e-04  1.873879e-07
    187    178   2   0.50000     0.0300000    0.0850000   2.680627e-04  1.873879e-07
    176    179   2   0.50000     0.1565000   -0.1150000   1.091018e-03  2.092768e-06
    176    183   2   0.50000     0.1565000   -0.1150000   1.091018e-03  2.092768e-06
    177    180   2   0.50000    -0.2850000   -0.1150000   9.038862e-04  9.862632e-07
    177    188   2   0.50000    -0.2850000    0.1150000   1.874504e-04  6.479276e-08
    183    180   2   0.50000    -0.1150000   -0.1150000   1.172438e-03  2.346713e-06
    183    188   2   0.50000    -0.1150000    0.1150000   2.431434e-04  1.541678e-07
    177    182   2   0.50000    -0.2850000   -0.1150000   9.038862e-04  9.862632e-07
    177    192   2   0.50000    -0.2850000    0.2312000   8.411158e-04  8.795366e-07
    179    182   2   0.50000    -0.1150000   -0.1150000   1.172438e-03  2.346713e-06
    179    192   2   0.50000    -0.1150000    0.2312000   1.091018e-03  2.092768e-06
    178    181   2   0.50000     0.0850000   -0.1150000   1.172438e-03  2.346713e-06
    178    189   2   0.50000     0.0850000    0.1150000   2.431434e-04  1.541678e-07
    188    181   2   0.50000     0.1150000   -0.1150000   2.431434e-04  1.541678e-07
    188    189   2   0.50000     0.1150000    0.1150000   5.042375e-05  1.012808e-08
    179    190   2   0.50000    -0.1150000    0.1150000   2.431434e-04  1.541678e-07
    189    182   2   0.50000     0.1150000   -0.1150000   2.431434e-04  1.541678e-07
    189    190   2   0.50000     0.1150000    0.1150000   5.042375e-05  1.012808e-08
    180    191   2   0.50000    -0.1150000    0.1150000   2.431434e-04  1.541678e-07
    190    183   2   0.50000     0.1150000   -0.1150000   2.431434e-04  1.541678e-07
    190    191   2   0.50000     0.1150000    0.1150000   5.042375e-05  1.012808e-08
    181    192   2   0.50000    -0.1150000    0.2312000   1.091018e-03  2.092768e-06
    191    178   2   0.50000     0.1150000    0.0850000   2.431434e-04  1.541678e-07
    191    192   2   0.50000     0.1150000    0.2312000   2.262583e-04  1.374848e-07
    178    193   2   0.50000     0.0850000    0.0997000   1.091018e-03  2.092768e-06
    178    194   2   0.50000     0.0850000   -0.3524000   9.038862e-04  9.862632e-07
    178    203   2   0.50000     0.0850000    0.0600000   2.680627e-04  1.873879e-07
    182    193   2   0.50000    -0.1150000    0.0997000   1.091018e-03  2.092768e-06
    182    194   2   0.50000    -0.1150000   -0.3524000   9.038862e-04  9.862632e-07
    182    203   2   0.50000    -0.1150000    0.0600000   2.680627e-04  1.873879e-07
    183    195   2   0.50000    -0.1150000    0.1565000   1.091018e-03  2.092768e-06
    183    204   2   0.50000    -0.1150000    0.0600000   2.680627e-04  1.873879e-07
    203    195   2   0.50000     0.0600000    0.1565000   2.494471e-04  1.671101e-07
    203    204   2   0.50000     0.0600000    0.0600000   6.128906e-05  1.496315e-08
    192    196   2   0.50000     0.2312000   -0.2850000   8.411158e-04  8.795366e-07
    192    205   2   0.50000     0.2312000    0.0300000   2.494471e-04  1.671101e-07
    192    206   2   0.50000     0.2312000    0.0300000   2.494471e-04  1.671101e-07
    194    196   2   0.50000    -0.3524000   -0.2850000   6.968474e-04  4.145011e-07
    194    205   2   0.50000    -0.3524000    0.0300000   2.066619e-04  7.875431e-08
    194    206   2   0.50000    -0.3524000    0.0300000   2.066619e-04  7.875431e-08
    204    196   2   0.50000     0.0600000   -0.2850000   2.066619e-04  7.875431e-08
    204    205   2   0.50000     0.0600000    0.0300000   6.128906e-05  1.496315e-08
    204    206   2   0.50000     0.0600000    0.0300000   6.128906e-05  1.496315e-08
    193    197   2   0.50000     0.0997000    0.0850000   1.091018e-03  2.092768e-06
    205    197   2   0.50000     0.0300000    0.0850000   2.680627e-04  1.873879e-07
    206    197   2   0.50000     0.0300000    0.0850000   2.680627e-04  1.873879e-07
    195    198   2   0.50000     0.1565000   -0.1150000   1.091018e-03  2.092768e-06
    195    202   2   0.50000     0.1565000   -0.1150000   1.091018e-03  2.092768e-06
    196    199   2   0.50000    -0.2850000   -0.1150000   9.038862e-04  9.862632e-07
    196    207   2   0.50000    -0.2850000    0.1150000   1.874504e-04  6.479276e-08
    202    199   2   0.50000    -0.1150000   -0.1150000   1.172438e-03  2.346713e-06
    202    207   2   0.50000    -0.1150000    0.1150000   2.431434e-04  1.541678e-07
    196    201   2   0.50000    -0.2850000   -0.1150000   9.038862e-04  9.862632e-07
    196    211   2   0.50000    -0.2850000    0.2312000   8.411158e-04  8.795366e-07
    198    201   2   0.50000    -0.1150000   -0.1150000   1.172438e-03  2.346713e-06
    198    211   2   0.50000    -0.1150000    0.2312000   1.091018e-03  2.092768e-06
    197    200   2   0.50000     0.0850000   -0.1150000   1.172438e-03  2.346713e-06
    197    208   2   0.50000     0.0850000    0.1150000   2.431434e-04  1.541678e-07
    207    200   2   0.50000     0.1150000   -0.1150000   2.431434e-04  1.541678e-07
    207    208   2   0.50000     0.1150000    0.1150000   5.042375e-05  1.012808e-08
    198    209   2   0.50000    -0.1150000    0.1150000   2.431434e-04  1.541678e-07
    208    201   2   0.50000     0.1150000   -0.1150000   2.431434e-04  1.541678e-07
    208    209   2   0.50000     0.1150000    0.1150000   5.042375e-05  1.012808e-08
    199    210   2   0.50000    -0.1150000    0.1150000   2.431434e-04  1.541678e-07
    209    202   2   0.50000     0.1150000   -0.1150000   2.431434e-04  1.541678e-07
    209    210   2   0.50000     0.1150000    0.1150000   5.042375e-05  1.012808e-08
    200    211   2   0.50000    -0.1150000    0.2312000   1.091018e-03  2.092768e-06
    210    197   2   0.50000     0.1150000    0.0850000   2.431434e-04  1.541678e-07
    210    211   2   0.50000     0.1150000    0.2312000   2.262583e-04  1.374848e-07
    197    212   2   0.50000     0.0850000    0.0997000   1.091018e-03  2.092768e-06
    197    213   2   0.50000     0.0850000   -0.3524000   9.038862e-04  9.862632e-07
    197    222   2   0.50000     0.0850000    0.0600000   2.680627e-04  1.873879e-07
    201    212   2   0.50000    -0.1150000    0.0997000   1.091018e-03  2.092768e-06
    201    213   2   0.50000    -0.1150000   -0.3524000   9.038862e-04  9.862632e-07
    201    222   2   0.50000    -0.1150000    0.0600000   2.680627e-04  1.873879e-07
    202    214   2   0.50000    -0.1150000    0.1565000   1.091018e-03  2.092768e-06
    202    223   2   0.50000    -0.1150000    0.0600000   2.680627e-04  1.873879e-07
    222    214   2   0.50000     0.0600000    0.1565000   2.494471e-04  1.671101e-07
    222    223   2   0.50000     0.0600000    0.0600000   6.128906e-05  1.496315e-08
    211    215   2   0.50000     0.2312000   -0.2850000   8.411158e-04  8.795366e-07
    211    224   2   0.50000     0.2312000    0.0300000   2.494471e-04  1.671101e-07
    211    225   2   0.50000     0.2312000    0.0300000   2.494471e-04  1.671101e-07
    213    215   2   0.50000    -0.3524000   -0.2850000   6.968474e-04  4.145011e-07
    213    224   2   0.50000    -0.3524000    0.0300000   2.066619e-04  7.875431e-08
    213    225   2   0.50000    -0.3524000    0.0300000   2.066619e-04  7.875431e-08
    223    215   2   0.50000     0.0600000   -0.2850000   2.066619e-04  7.875431e-08
    223    224   2   0.50000     0.0600000    0.0300000   6.128906e-05  1.496315e-08
    223    225   2   0.50000     0.0600000    0.0300000   6.128906e-05  1.496315e-08
    212    216   2   0.50000     0.0997000    0.0850000   1.091018e-03  2.092768e-06
    224    216   2   0.50000     0.0300000    0.0850000   2.680627e-04  1.873879e-07
    225    216   2   0.50000     0.0300000    0.0850000   2.680627e-04  1.873879e-07
    214    217   2   0.50000     0.1565000   -0.1150000   1.091018e-03  2.092768e-06
    214    221   2   0.50000     0.1565000   -0.1150000   1.091018e-03  2.092768e-06
    215    218   2   0.50000    -0.2850000   -0.1150000   9.038862e-04  9.862632e-07
    215    226   2   0.50000    -0.2850000    0.1150000   1.874504e-04  6.479276e-08
    221    218   2   0.50000    -0.1150000   -0.1150000   1.172438e-03  2.346713e-06
    221    226   2   0.50000    -0.1150000    0.1150000   2.431434e-04  1.541678e-07
    215    220   2   0.50000    -0.2850000   -0.1150000   9.038862e-04  9.862632e-07
    215    230   2   0.50000    -0.2850000    0.2312000   8.411158e-04  8.795366e-07
    217    220   2   0.50000    -0.1150000   -0.1150000   1.172438e-03  2.346713e-06
    217    230   2   0.50000    -0.1150000    0.2312000   1.091018e-03  2.092768e-06
    216    219   2   0.50000     0.0850000   -0.1150000   1.172438e-03  2.346713e-06
    216    227   2   0.50000     0.0850000    0.1150000   2.431434e-04  1.541678e-07
    226    219   2   0.50000     0.1150000   -0.1150000   2.431434e-04  1.541678e-07
    226    227   2   0.50000     0.1150000    0.1150000   5.042375e-05  1.012808e-08
    217    228   2   0.50000    -0.1150000    0.1150000   2.431434e-04  1.541678e-07
    227    220   2   0.50000     0.1150000   -0.1150000   2.431434e-04  1.541678e-07
    227    228   2   0.50000     0.1150000    0.1150000   5.042375e-05  1.012808e-08
    218    229   2   0.50000    -0.1150000    0.1150000   2.431434e-04  1.541678e-07
    228    221   2   0.50000     0.1150000   -0.1150000   2.431434e-04  1.541678e-07
    228    229   2   0.50000     0.1150000    0.1150000   5.042375e-05  1.012808e-08
    219    230   2   0.50000    -0.1150000    0.2312000   1.091018e-03  2.092768e-06
    229    216   2   0.50000     0.1150000    0.0850000   2.431434e-04  1.541678e-07
    229    230   2   0.50000     0.1150000    0.2312000   2.262583e-04  1.374848e-07
    216    231   2   0.50000     0.0850000    0.0997000   1.091018e-03  2.092768e-06
    216    232   2   0.50000     0.0850000   -0.3524000   9.038862e-04  9.862632e-07
    216    241   2   0.50000     0.0850000    0.0600000   2.680627e-04  1.873879e-07
    220    231   2   0.50000    -0.1150000    0.0997000   1.091018e-03  2.092768e-06
    220    232   2   0.50000    -0.1150000   -0.3524000   9.038862e-04  9.862632e-07
    220    241   2   0.50000    -0.1150000    0.0600000   2.680627e-04  1.873879e-07
    221    233   2   0.50000    -0.1150000    0.1565000   1.091018e-03  2.092768e-06
    221    242   2   0.50000    -0.1150000    0.0600000   2.680627e-04  1.873879e-07
    241    233   2   0.50000     0.0600000    0.1565000   2.494471e-04  1.671101e-07
    241    242   2   0.50000     0.0600000    0.0600000   6.128906e-05  1.496315e-08
    230    234   2   0.50000     0.2312000   -0.2850000   8.411158e-04  8.795366e-07
    230    243   2   0.50000     0.2312000    0.0300000   2.494471e-04  1.671101e-07
    230    244   2   0.50000     0.2312000    0.0300000   2.494471e-04  1.671101e-07
    232    234   2   0.50000    -0.3524000   -0.2850000   6.968474e-04  4.145011e-07
    232    243   2   0.50000    -0.3524000    0.0300000   2.066619e-04  7.875431e-08
    232    244   2   0.50000    -0.3524000    0.0300000   2.066619e-04  7.875431e-08
    242    234   2   0.50000     0.0600000   -0.2850000   2.066619e-04  7.875431e-08
    242    243   2   0.50000     0.0600000    0.0300000   6.128906e-05  1.496315e-08
    242    244   2   0.50000     0.0600000    0.0300000   6.128906e-05  1.496315e-08
    231    235   2   0.50000     0.0997000    0.0850000   1.091018e-03  2.092768e-06
    243    235   2   0.50000     0.0300000    0.0850000   2.680627e-04  1.873879e-07
    244    235   2   0.50000     0.0300000    0.0850000   2.680627e-04  1.873879e-07
    233    236   2   0.50000     0.1565000   -0.1150000   1.091018e-03  2.092768e-06
    233    240   2   0.50000     0.1565000   -0.1150000   1.091018e-03  2.092768e-06
    234    237   2   0.50000    -0.2850000   -0.1150000   9.038862e-04  9.862632e-07
    234    245   2   0.50000    -0.2850000    0.1150000   1.874504e-04  6.479276e-08
    240    237   2   0.50000    -0.1150000   -0.1150000   1.172438e-03  2.346713e-06
    240    245   2   0.50000    -0.1150000    0.1150000   2.431434e-04  1.541678e-07
    234    239   2   0.50000    -0.2850000   -0.1150000   9.038862e-04  9.862632e-07
    234    249   2   0.50000    -0.2850000    0.2312000   8.411158e-04  8.795366e-07
    236    239   2   0.50000    -0.1150000   -0.1150000   1.172438e-03  2.346713e-06
    236    249   2   0.50000    -0.1150000    0.2312000   1.091018e-03  2.092768e-06
    235    238   2   0.50000     0.0850000   -0.1150000   1.172438e-03  2.346713e-06
    235    246   2   0.50000     0.0850000    0.1150000   2.431434e-04  1.541678e-07
    245    238   2   0.50000     0.1150000   -0.1150000   2.431434e-04  1.541678e-07
    245    246   2   0.50000     0.1150000    0.1150000   5.042375e-05  1.012808e-08
    236    247   2   0.50000    -0.1150000    0.1150000   2.431434e-04  1.541678e-07
    246    239   2   0.50000     0.1150000   -0.1150000   2.431434e-04  1.541678e-07
    246    247   2   0.50000     0.1150000    0.1150000   5.042375e-05  1.012808e-08
    237    248   2   0.50000    -0.1150000    0.1150000   2.431434e-04  1.541678e-07
    247    240   2   0.50000     0.1150000   -0.1150000   2.431434e-04  1.541678e-07
    247    248   2   0.50000     0.1150000    0.1150000   5.042375e-05  1.012808e-08
    238    249   2   0.50000    -0.1150000    0.2312000   1.091018e-03  2.092768e-06
    248    235   2   0.50000     0.1150000    0.0850000   2.431434e-04  1.541678e-07
    248    249   2   0.50000     0.1150000    0.2312000   2.262583e-04  1.374848e-07
    235    250   2   0.50000     0.0850000    0.0997000   1.091018e-03  2.092768e-06
    235    251   2   0.50000     0.0850000   -0.3524000   9.038862e-04  9.862632e-07
    235    260   2   0.50000     0.0850000    0.0600000   2.680627e-04  1.873879e-07
    239    250   2   0.50000    -0.1150000    0.0997000   1.091018e-03  2.092768e-06
    239    251   2   0.50000    -0.1150000   -0.3524000   9.038862e-04  9.862632e-07
    239    260   2   0.50000    -0.1150000    0.0600000   2.680627e-04  1.873879e-07
    240    252   2   0.50000    -0.1150000    0.1565000   1.091018e-03  2.092768e-06
    240    261   2   0.50000    -0.1150000    0.0600000   2.680627e-04  1.873879e-07
    260    252   2   0.50000     0.0600000    0.1565000   2.494471e-04  1.671101e-07
    260    261   2   0.50000     0.0600000    0.0600000   6.128906e-05  1.496315e-08
    249    253   2   0.50000     0.2312000   -0.2850000   8.411158e-04  8.795366e-07
    249    262   2   0.50000     0.2312000    0.0300000   2.494471e-04  1.671101e-07
    249    263   2   0.50000     0.2312000    0.0300000   2.494471e-04  1.671101e-07
    251    253   2   0.50000    -0.3524000   -0.2850000   6.968474e-04  4.145011e-07
    251    262   2   0.50000    -0.3524000    0.0300000   2.066619e-04  7.875431e-08
    251    263   2   0.50000    -0.3524000    0.0300000   2.066619e-04  7.875431e-08
    261    253   2   0.50000     0.0600000   -0.2850000   2.066619e-04  7.875431e-08
    261    262   2   0.50000     0.0600000    0.0300000   6.128906e-05  1.496315e-08
    261    263   2   0.50000     0.0600000    0.0300000   6.128906e-05  1.496315e-08
    250    254   2   0.50000     0.0997000    0.0850000   1.091018e-03  2.092768e-06
    262    254   2   0.50000     0.0300000    0.0850000   2.680627e-04  1.873879e-07
    263    254   2   0.50000     0.0300000    0.0850000   2.680627e-04  1.873879e-07
    252    255   2   0.50000     0.1565000   -0.1150000   1.091018e-03  2.092768e-06
    252    259   2   0.50000     0.1565000   -0.1150000   1.091018e-03  2.092768e-06
    253    256   2   0.50000    -0.2850000   -0.1150000   9.038862e-04  9.862632e-07
    253    264   2   0.50000    -0.2850000    0.1150000   1.874504e-04  6.479276e-08
    259    256   2   0.50000    -0.1150000   -0.1150000   1.172438e-03  2.346713e-06
    259    264   2   0.50000    -0.1150000    0.1150000   2.431434e-04  1.541678e-07
    253    258   2   0.50000    -0.2850000   -0.1150000   9.038862e-04  9.862632e-07
    253    268   2   0.50000    -0.2850000    0.2312000   8.411158e-04  8.795366e-07
    255    258   2   0.50000    -0.1150000   -0.1150000   1.172438e-03  2.346713e-06
    255    268   2   0.50000    -0.1150000    0.2312000   1.091018e-03  2.092768e-06
    254    257   2   0.50000     0.0850000   -0.1150000   1.172438e-03  2.346713e-06
    254    265   2   0.50000     0.0850000    0.1150000   2.431434e-04  1.541678e-07
    264    257   2   0.50000     0.1150000   -0.1150000   2.431434e-04  1.541678e-07
    264    265   2   0.50000     0.1150000    0.1150000   5.042375e-05  1.012808e-08
    255    266   2   0.50000    -0.1150000    0.1150000   2.431434e-04  1.541678e-07
    265    258   2   0.50000     0.1150000   -0.1150000   2.431434e-04  1.541678e-07
    265    266   2   0.50000     0.1150000    0.1150000   5.042375e-05  1.012808e-08
    256    267   2   0.50000    -0.1150000    0.1150000   2.431434e-04  1.541678e-07
    266    259   2   0.50000     0.1150000   -0.1150000   2.431434e-04  1.541678e-07
    266    267   2   0.50000     0.1150000    0.1150000   5.042375e-05  1.012808e-08
    257    268   2   0.50000    -0.1150000    0.2312000   1.091018e-03  2.092768e-06
    267    254   2   0.50000     0.1150000    0.0850000   2.431434e-04  1.541678e-07
    267    268   2   0.50000     0.1150000    0.2312000   2.262583e-04  1.374848e-07
    254    269   2   0.50000     0.0850000    0.0997000   1.091018e-03  2.092768e-06
    254    270   2   0.50000     0.0850000   -0.3524000   9.038862e-04  9.862632e-07
    254    279   2   0.50000     0.0850000    0.0600000   2.680627e-04  1.873879e-07
    258    269   2   0.50000    -0.1150000    0.0997000   1.091018e-03  2.092768e-06
    258    270   2   0.50000    -0.1150000   -0.3524000   9.038862e-04  9.862632e-07
    258    279   2   0.50000    -0.1150000    0.0600000   2.680627e-04  1.873879e-07
    259    271   2   0.50000    -0.1150000    0.1565000   1.091018e-03  2.092768e-06
    259    280   2   0.50000    -0.1150000    0.0600000   2.680627e-04  1.873879e-07
    279    271   2   0.50000     0.0600000    0.1565000   2.494471e-04  1.671101e-07
    279    280   2   0.50000     0.0600000    0.0600000   6.128906e-05  1.496315e-08
    268    272   2   0.50000     0.2312000   -0.2850000   8.411158e-04  8.795366e-07
    268    281   2   0.50000     0.2312000    0.0300000   2.494471e-04  1.671101e-07
    268    282   2   0.50000     0.2312000    0.0300000   2.494471e-04  1.671101e-07
    270    272   2   0.50000    -0.3524000   -0.2850000   6.968474e-04  4.145011e-07
    270    281   2   0.50000    -0.3524000    0.0300000   2.066619e-04  7.875431e-08
    270    282   2   0.50000    -0.3524000    0.0300000   2.066619e-04  7.875431e-08
    280    272   2   0.50000     0.0600000   -0.2850000   2.066619e-04  7.875431e-08
    280    281   2   0.50000     0.0600000    0.0300000   6.128906e-05  1.496315e-08
    280    282   2   0.50000     0.0600000    0.0300000   6.128906e-05  1.496315e-08
    269    273   2   0.50000     0.0997000    0.0850000   1.091018e-03  2.092768e-06
    281    273   2   0.50000     0.0300000    0.0850000   2.680627e-04  1.873879e-07
    282    273   2   0.50000     0.0300000    0.0850000   2.680627e-04  1.873879e-07
    271    274   2   0.50000     0.1565000   -0.1150000   1.091018e-03  2.092768e-06
    271    278   2   0.50000     0.1565000   -0.1150000   1.091018e-03  2.092768e-06
    272    275   2   0.50000    -0.2850000   -0.1150000   9.038862e-04  9.862632e-07
    272    283   2   0.50000    -0.2850000    0.1150000   1.874504e-04  6.479276e-08
    278    275   2   0.50000    -0.1150000   -0.1150000   1.172438e-03  2.346713e-06
    278    283   2   0.50000    -0.1150000    0.1150000   2.431434e-04  1.541678e-07
    272    277   2   0.50000    -0.2850000   -0.1150000   9.038862e-04  9.862632e-07
    272    287   2   0.50000    -0.2850000    0.2312000   8.411158e-04  8.795366e-07
    274    277   2   0.50000    -0.1150000   -0.1150000   1.172438e-03  2.346713e-06
    274    287   2   0.50000    -0.1150000    0.2312000   1.091018e-03  2.092768e-06
    273    276   2   0.50000     0.0850000   -0.1150000   1.172438e-03  2.346713e-06
    273    284   2   0.50000     0.0850000    0.1150000   2.431434e-04  1.541678e-07
    283    276   2   0.50000     0.1150000   -0.1150000   2.431434e-04  1.541678e-07
    283    284   2   0.50000     0.1150000    0.1150000   5.042375e-05  1.012808e-08
    274    285   2   0.50000    -0.1150000    0.1150000   2.431434e-04  1.541678e-07
    284    277   2   0.50000     0.1150000   -0.1150000   2.431434e-04  1.541678e-07
    284    285   2   0.50000     0.1150000    0.1150000   5.042375e-05  1.012808e-08
    275    286   2   0.50000    -0.1150000    0.1150000   2.431434e-04  1.541678e-07
    285    278   2   0.50000     0.1150000   -0.1150000   2.431434e-04  1.541678e-07
    285    286   2   0.50000     0.1150000    0.1150000   5.042375e-05  1.012808e-08
    276    287   2   0.50000    -0.1150000    0.2312000   1.091018e-03  2.092768e-06
    286    273   2   0.50000     0.1150000    0.0850000   2.431434e-04  1.541678e-07
    286    287   2   0.50000     0.1150000    0.2312000   2.262583e-04  1.374848e-07
    273    288   2   0.50000     0.0850000    0.0997000   1.091018e-03  2.092768e-06
    273    289   2   0.50000     0.0850000   -0.3524000   9.038862e-04  9.862632e-07
    273    298   2   0.50000     0.0850000    0.0600000   2.680627e-04  1.873879e-07
    277    288   2   0.50000    -0.1150000    0.0997000   1.091018e-03  2.092768e-06
    277    289   2   0.50000    -0.1150000   -0.3524000   9.038862e-04  9.862632e-07
    277    298   2   0.50000    -0.1150000    0.0600000   2.680627e-04  1.873879e-07
    278    290   2   0.50000    -0.1150000    0.1565000   1.091018e-03  2.092768e-06
    278    299   2   0.50000    -0.1150000    0.0600000   2.680627e-04  1.873879e-07
    298    290   2   0.50000     0.0600000    0.1565000   2.494471e-04  1.671101e-07
    298    299   2   0.50000     0.0600000    0.0600000   6.128906e-05  1.496315e-08
    287    291   2   0.50000     0.2312000   -0.2850000   8.411158e-04  8.795366e-07
    287    300   2   0.50000     0.2312000    0.0300000   2.494471e-04  1.671101e-07
    287    301   2   0.50000     0.2312000    0.0300000   2.494471e-04  1.671101e-07
    289    291   2   0.50000    -0.3524000   -0.2850000   6.968474e-04  4.145011e-07
    289    300   2   0.50000    -0.3524000    0.0300000   2.066619e-04  7.875431e-08
    289    301   2   0.50000    -0.3524000    0.0300000   2.066619e-04  7.875431e-08
    299    291   2   0.50000     0.0600000   -0.2850000   2.066619e-04  7.875431e-08
    299    300   2   0.50000     0.0600000    0.0300000   6.128906e-05  1.496315e-08
    299    301   2   0.50000     0.0600000    0.0300000   6.128906e-05  1.496315e-08
    288    292   2   0.50000     0.0997000    0.0850000   1.091018e-03  2.092768e-06
    300    292   2   0.50000     0.0300000    0.0850000   2.680627e-04  1.873879e-07
    301    292   2   0.50000     0.0300000    0.0850000   2.680627e-04  1.873879e-07
    290    293   2   0.50000     0.1565000   -0.1150000   1.091018e-03  2.092768e-06
    290    297   2   0.50000     0.1565000   -0.1150000   1.091018e-03  2.092768e-06
    291    294   2   0.50000    -0.2850000   -0.1150000   9.038862e-04  9.862632e-07
    291    302   2   0.50000    -0.2850000    0.1150000   1.874504e-04  6.479276e-08
    297    294   2   0.50000    -0.1150000   -0.1150000   1.172438e-03  2.346713e-06
    297    302   2   0.50000    -0.1150000    0.1150000   2.431434e-04  1.541678e-07
    291    296   2   0.50000    -0.2850000   -0.1150000   9.038862e-04  9.862632e-07
    291    306   2   0.50000    -0.2850000    0.2312000   8.411158e-04  8.795366e-07
    293    296   2   0.50000    -0.1150000   -0.1150000   1.172438e-03  2.346713e-06
    293    306   2   0.50000    -0.1150000    0.2312000   1.091018e-03  2.092768e-06
    292    295   2   0.50000     0.0850000   -0.1150000   1.172438e-03  2.346713e-06
    292    303   2   0.50000     0.0850000    0.1150000   2.431434e-04  1.541678e-07
    302    295   2   0.50000     0.1150000   -0.1150000   2.431434e-04  1.541678e-07
    302    303   2   0.50000     0.1150000    0.1150000   5.042375e-05  1.012808e-08
    293    304   2   0.50000    -0.1150000    0.1150000   2.431434e-04  1.541678e-07
    303    296   2   0.50000     0.1150000   -0.1150000   2.431434e-04  1.541678e-07
    303    304   2   0.50000     0.1150000    0.1150000   5.042375e-05  1.012808e-08
    294    305   2   0.50000    -0.1150000    0.1150000   2.431434e-04  1.541678e-07
    304    297   2   0.50000     0.1150000   -0.1150000   2.431434e-04  1.541678e-07
    304    305   2   0.50000     0.1150000    0.1150000   5.042375e-05  1.012808e-08
    295    306   2   0.50000    -0.1150000    0.2312000   1.091018e-03  2.092768e-06
    305    292   2   0.50000     0.1150000    0.0850000   2.431434e-04  1.541678e-07
    305    306   2   0.50000     0.1150000    0.2312000   2.262583e-04  1.374848e-07
    292    307   2   0.50000     0.0850000    0.0997000   1.091018e-03  2.092768e-06
    292    308   2   0.50000     0.0850000   -0.3524000   9.038862e-04  9.862632e-07
    292    317   2   0.50000     0.0850000    0.0600000   2.680627e-04  1.873879e-07
    296    307   2   0.50000    -0.1150000    0.0997000   1.091018e-03  2.092768e-06
    296    308   2   0.50000    -0.1150000   -0.3524000   9.038862e-04  9.862632e-07
    296    317   2   0.50000    -0.1150000    0.0600000   2.680627e-04  1.873879e-07
    297    309   2   0.50000    -0.1150000    0.1565000   1.091018e-03  2.092768e-06
    297    318   2   0.50000    -0.1150000    0.0600000   2.680627e-04  1.873879e-07
    317    309   2   0.50000     0.0600000    0.1565000   2.494471e-04  1.671101e-07
    317    318   2   0.50000     0.0600000    0.0600000   6.128906e-05  1.496315e-08
    306    310   2   0.50000     0.2312000   -0.2850000   8.411158e-04  8.795366e-07
    306    319   2   0.50000     0.2312000    0.0300000   2.494471e-04  1.671101e-07
    306    320   2   0.50000     0.2312000    0.0300000   2.494471e-04  1.671101e-07
    308    310   2   0.50000    -0.3524000   -0.2850000   6.968474e-04  4.145011e-07
    308    319   2   0.50000    -0.3524000    0.0300000   2.066619e-04  7.875431e-08
    308    320   2   0.50000    -0.3524000    0.0300000   2.066619e-04  7.875431e-08
    318    310   2   0.50000     0.0600000   -0.2850000   2.066619e-04  7.875431e-08
    318    319   2   0.50000     0.0600000    0.0300000   6.128906e-05  1.496315e-08
    318    320   2   0.50000     0.0600000    0.0300000   6.128906e-05  1.496315e-08
    307    311   2   0.50000     0.0997000    0.0850000   1.091018e-03  2.092768e-06
    319    311   2   0.50000     0.0300000    0.0850000   2.680627e-04  1.873879e-07
    320    311   2   0.50000     0.0300000    0.0850000   2.680627e-04  1.873879e-07
    309    312   2   0.50000     0.1565000   -0.1150000   1.091018e-03  2.092768e-06
    309    316   2   0.50000     0.1565000   -0.1150000   1.091018e-03  2.092768e-06
    310    313   2   0.50000    -0.2850000   -0.1150000   9.038862e-04  9.862632e-07
    310    321   2   0.50000    -0.2850000    0.1150000   1.874504e-04  6.479276e-08
    316    313   2   0.50000    -0.1150000   -0.1150000   1.172438e-03  2.346713e-06
    316    321   2   0.50000    -0.1150000    0.1150000   2.431434e-04  1.541678e-07
    310    315   2   0.50000    -0.2850000   -0.1150000   9.038862e-04  9.862632e-07
    310    325   2   0.50000    -0.2850000    0.2312000   8.411158e-04  8.795366e-07
    312    315   2   0.50000    -0.1150000   -0.1150000   1.172438e-03  2.346713e-06
    312    325   2   0.50000    -0.1150000    0.2312000   1.091018e-03  2.092768e-06
    311    314   2   0.50000     0.0850000   -0.1150000   1.172438e-03  2.346713e-06
    311    322   2   0.50000     0.0850000    0.1150000   2.431434e-04  1.541678e-07
    321    314   2   0.50000     0.1150000   -0.1150000   2.431434e-04  1.541678e-07
    321    322   2   0.50000     0.1150000    0.1150000   5.042375e-05  1.012808e-08
    312    323   2   0.50000    -0.1150000    0.1150000   2.431434e-04  1.541678e-07
    322    315   2   0.50000     0.1150000   -0.1150000   2.431434e-04  1.541678e-07
    322    323   2   0.50000     0.1150000    0.1150000   5.042375e-05  1.012808e-08
    313    324   2   0.50000    -0.1150000    0.1150000   2.431434e-04  1.541678e-07
    323    316   2   0.50000     0.1150000   -0.1150000   2.431434e-04  1.541678e-07
    323    324   2   0.50000     0.1150000    0.1150000   5.042375e-05  1.012808e-08
    314    325   2   0.50000    -0.1150000    0.2312000   1.091018e-03  2.092768e-06
    324    311   2   0.50000     0.1150000    0.0850000   2.431434e-04  1.541678e-07
    324    325   2   0.50000     0.1150000    0.2312000   2.262583e-04  1.374848e-07
    311    326   2   0.50000     0.0850000    0.0997000   1.091018e-03  2.092768e-06
    311    327   2   0.50000     0.0850000   -0.3524000   9.038862e-04  9.862632e-07
    311    336   2   0.50000     0.0850000    0.0600000   2.680627e-04  1.873879e-07
    315    326   2   0.50000    -0.1150000    0.0997000   1.091018e-03  2.092768e-06
    315    327   2   0.50000    -0.1150000   -0.3524000   9.038862e-04  9.862632e-07
    315    336   2   0.50000    -0.1150000    0.0600000   2.680627e-04  1.873879e-07
    316    328   2   0.50000    -0.1150000    0.1565000   1.091018e-03  2.092768e-06
    316    337   2   0.50000    -0.1150000    0.0600000   2.680627e-04  1.873879e-07
    336    328   2   0.50000     0.0600000    0.1565000   2.494471e-04  1.671101e-07
    336    337   2   0.50000     0.0600000    0.0600000   6.128906e-05  1.496315e-08
    325    329   2   0.50000     0.2312000   -0.2850000   8.411158e-04  8.795366e-07
    325    338   2   0.50000     0.2312000    0.0300000   2.494471e-04  1.671101e-07
    325    339   2   0.50000     0.2312000    0.0300000   2.494471e-04  1.671101e-07
    327    329   2   0.50000    -0.3524000   -0.2850000   6.968474e-04  4.145011e-07
    327    338   2   0.50000    -0.3524000    0.0300000   2.066619e-04  7.875431e-08
    327    339   2   0.50000    -0.3524000    0.0300000   2.066619e-04  7.875431e-08
    337    329   2   0.50000     0.0600000   -0.2850000   2.066619e-04  7.875431e-08
    337    338   2   0.50000     0.0600000    0.0300000   6.128906e-05  1.496315e-08
    337    339   2   0.50000     0.0600000    0.0300000   6.128906e-05  1.496315e-08
    326    330   2   0.50000     0.0997000    0.0850000   1.091018e-03  2.092768e-06
    338    330   2   0.50000     0.0300000    0.0850000   2.680627e-04  1.873879e-07
    339    330   2   0.50000     0.0300000    0.0850000   2.680627e-04  1.873879e-07
    328    331   2   0.50000     0.1565000   -0.1150000   1.091018e-03  2.092768e-06
    328    335   2   0.50000     0.1565000   -0.1150000   1.091018e-03  2.092768e-06
    329    332   2   0.50000    -0.2850000   -0.1150000   9.038862e-04  9.862632e-07
    329    340   2   0.50000    -0.2850000    0.1150000   1.874504e-04  6.479276e-08
    335    332   2   0.50000    -0.1150000   -0.1150000   1.172438e-03  2.346713e-06
    335    340   2   0.50000    -0.1150000    0.1150000   2.431434e-04  1.541678e-07
    329    334   2   0.50000    -0.2850000   -0.1150000   9.038862e-04  9.862632e-07
    329    344   2   0.50000    -0.2850000    0.2312000   8.411158e-04  8.795366e-07
    331    334   2   0.50000    -0.1150000   -0.1150000   1.172438e-03  2.346713e-06
    331    344   2   0.50000    -0.1150000    0.2312000   1.091018e-03  2.092768e-06
    330    333   2   0.50000     0.0850000   -0.1150000   1.172438e-03  2.346713e-06
    330    341   2   0.50000     0.0850000    0.1150000   2.431434e-04  1.541678e-07
    340    333   2   0.50000     0.1150000   -0.1150000   2.431434e-04  1.541678e-07
    340    341   2   0.50000     0.1150000    0.1150000   5.042375e-05  1.012808e-08
    331    342   2   0.50000    -0.1150000    0.1150000   2.431434e-04  1.541678e-07
    341    334   2   0.50000     0.1150000   -0.1150000   2.431434e-04  1.541678e-07
    341    342   2   0.50000     0.1150000    0.1150000   5.042375e-05  1.012808e-08
    332    343   2   0.50000    -0.1150000    0.1150000   2.431434e-04  1.541678e-07
    342    335   2   0.50000     0.1150000   -0.1150000   2.431434e-04  1.541678e-07
    342    343   2   0.50000     0.1150000    0.1150000   5.042375e-05  1.012808e-08
    333    344   2   0.50000    -0.1150000    0.2312000   1.091018e-03  2.092768e-06
    343    330   2   0.50000     0.1150000    0.0850000   2.431434e-04  1.541678e-07
    343    344   2   0.50000     0.1150000    0.2312000   2.262583e-04  1.374848e-07
    330    345   2   0.50000     0.0850000    0.0997000   1.091018e-03  2.092768e-06
    330    346   2   0.50000     0.0850000   -0.3524000   9.038862e-04  9.862632e-07
    330    355   2   0.50000     0.0850000    0.0600000   2.680627e-04  1.873879e-07
    334    345   2   0.50000    -0.1150000    0.0997000   1.091018e-03  2.092768e-06
    334    346   2   0.50000    -0.1150000   -0.3524000   9.038862e-04  9.862632e-07
    334    355   2   0.50000    -0.1150000    0.0600000   2.680627e-04  1.873879e-07
    335    347   2   0.50000    -0.1150000    0.1565000   1.091018e-03  2.092768e-06
    335    356   2   0.50000    -0.1150000    0.0600000   2.680627e-04  1.873879e-07
    355    347   2   0.50000     0.0600000    0.1565000   2.494471e-04  1.671101e-07
    355    356   2   0.50000     0.0600000    0.0600000   6.128906e-05  1.496315e-08
    344    348   2   0.50000     0.2312000   -0.2850000   8.411158e-04  8.795366e-07
    344    357   2   0.50000     0.2312000    0.0300000   2.494471e-04  1.671101e-07
    344    358   2   0.50000     0.2312000    0.0300000   2.494471e-04  1.671101e-07
    346    348   2   0.50000    -0.3524000   -0.2850000   6.968474e-04  4.145011e-07
    346    357   2   0.50000    -0.3524000    0.0300000   2.066619e-04  7.875431e-08
    346    358   2   0.50000    -0.3524000    0.0300000   2.066619e-04  7.875431e-08
    356    348   2   0.50000     0.0600000   -0.2850000   2.066619e-04  7.875431e-08
    356    357   2   0.50000     0.0600000    0.0300000   6.128906e-05  1.496315e-08
    356    358   2   0.50000     0.0600000    0.0300000   6.128906e-05  1.496315e-08
    345    349   2   0.50000     0.0997000    0.0850000   1.091018e-03  2.092768e-06
    357    349   2   0.50000     0.0300000    0.0850000   2.680627e-04  1.873879e-07
    358    349   2   0.50000     0.0300000    0.0850000   2.680627e-04  1.873879e-07
    347    350   2   0.50000     0.1565000   -0.1150000   1.091018e-03  2.092768e-06
    347    354   2   0.50000     0.1565000   -0.1150000   1.091018e-03  2.092768e-06
    348    351   2   0.50000    -0.2850000   -0.1150000   9.038862e-04  9.862632e-07
    348    359   2   0.50000    -0.2850000    0.1150000   1.874504e-04  6.479276e-08
    354    351   2   0.50000    -0.1150000   -0.1150000   1.172438e-03  2.346713e-06
    354    359   2   0.50000    -0.1150000    0.1150000   2.431434e-04  1.541678e-07
    348    353   2   0.50000    -0.2850000   -0.1150000   9.038862e-04  9.862632e-07
    348    363   2   0.50000    -0.2850000    0.2312000   8.411158e-04  8.795366e-07
    350    353   2   0.50000    -0.1150000   -0.1150000   1.172438e-03  2.346713e-06
    350    363   2   0.50000    -0.1150000    0.2312000   1.091018e-03  2.092768e-06
    349    352   2   0.50000     0.0850000   -0.1150000   1.172438e-03  2.346713e-06
    349    360   2   0.50000     0.0850000    0.1150000   2.431434e-04  1.541678e-07
    359    352   2   0.50000     0.1150000   -0.1150000   2.431434e-04  1.541678e-07
    359    360   2   0.50000     0.1150000    0.1150000   5.042375e-05  1.012808e-08
    350    361   2   0.50000    -0.1150000    0.1150000   2.431434e-04  1.541678e-07
    360    353   2   0.50000     0.1150000   -0.1150000   2.431434e-04  1.541678e-07
    360    361   2   0.50000     0.1150000    0.1150000   5.042375e-05  1.012808e-08
    351    362   2   0.50000    -0.1150000    0.1150000   2.431434e-04  1.541678e-07
    361    354   2   0.50000     0.1150000   -0.1150000   2.431434e-04  1.541678e-07
    361    362   2   0.50000     0.1150000    0.1150000   5.042375e-05  1.012808e-08
    352    363   2   0.50000    -0.1150000    0.2312000   1.091018e-03  2.092768e-06
    362    349   2   0.50000     0.1150000    0.0850000   2.431434e-04  1.541678e-07
    362    363   2   0.50000     0.1150000    0.2312000   2.262583e-04  1.374848e-07
    349    364   2   0.50000     0.0850000    0.0997000   1.091018e-03  2.092768e-06
    349    365   2   0.50000     0.0850000   -0.3524000   9.038862e-04  9.862632e-07
    349    374   2   0.50000     0.0850000    0.0600000   2.680627e-04  1.873879e-07
    353    364   2   0.50000    -0.1150000    0.0997000   1.091018e-03  2.092768e-06
    353    365   2   0.50000    -0.1150000   -0.3524000   9.038862e-04  9.862632e-07
    353    374   2   0.50000    -0.1150000    0.0600000   2.680627e-04  1.873879e-07
    354    366   2   0.50000    -0.1150000    0.1565000   1.091018e-03  2.092768e-06
    354    375   2   0.50000    -0.1150000    0.0600000   2.680627e-04  1.873879e-07
    374    366   2   0.50000     0.0600000    0.1565000   2.494471e-04  1.671101e-07
    374    375   2   0.50000     0.0600000    0.0600000   6.128906e-05  1.496315e-08
    363    367   2   0.50000     0.2312000   -0.2850000   8.411158e-04  8.795366e-07
    363    376   2   0.50000     0.2312000    0.0300000   2.494471e-04  1.671101e-07
    363    377   2   0.50000     0.2312000    0.0300000   2.494471e-04  1.671101e-07
    365    367   2   0.50000    -0.3524000   -0.2850000   6.968474e-04  4.145011e-07
    365    376   2   0.50000    -0.3524000    0.0300000   2.066619e-04  7.875431e-08
    365    377   2   0.50000    -0.3524000    0.0300000   2.066619e-04  7.875431e-08
    375    367   2   0.50000     0.0600000   -0.2850000   2.066619e-04  7.875431e-08
    375    376   2   0.50000     0.0600000    0.0300000   6.128906e-05  1.496315e-08
    375    377   2   0.50000     0.0600000    0.0300000   6.128906e-05  1.496315e-08
    364    368   2   0.50000     0.0997000    0.0850000   1.091018e-03  2.092768e-06
    376    368   2   0.50000     0.0300000    0.0850000   2.680627e-04  1.873879e-07
    377    368   2   0.50000     0.0300000    0.0850000   2.680627e-04  1.873879e-07
    366    369   2   0.50000     0.1565000   -0.1150000   1.091018e-03  2.092768e-06
    366    373   2   0.50000     0.1565000   -0.1150000   1.091018e-03  2.092768e-06
    367    370   2   0.50000    -0.2850000   -0.1150000   9.038862e-04  9.862632e-07
    367    378   2   0.50000    -0.2850000    0.1150000   1.874504e-04  6.479276e-08
    373    370   2   0.50000    -0.1150000   -0.1150000   1.172438e-03  2.346713e-06
    373    378   2   0.50000    -0.1150000    0.1150000   2.431434e-04  1.541678e-07
    367    372   2   0.50000    -0.2850000   -0.1150000   9.038862e-04  9.862632e-07
    367    382   2   0.50000    -0.2850000    0.1150000   1.874504e-04  6.479276e-08
    369    372   2   0.50000    -0.1150000   -0.1150000   1.172438e-03  2.346713e-06
    369    382   2   0.50000    -0.1150000    0.1150000   2.431434e-04  1.541678e-07
    368    371   2   0.50000     0.0850000   -0.1150000   1.172438e-03  2.346713e-06
    368    379   2   0.50000     0.0850000    0.1150000   2.431434e-04  1.541678e-07
    378    371   2   0.50000     0.1150000   -0.1150000   2.431434e-04  1.541678e-07
    378    379   2   0.50000     0.1150000    0.1150000   5.042375e-05  1.012808e-08
    369    380   2   0.50000    -0.1150000    0.1150000   2.431434e-04  1.541678e-07
    379    372   2   0.50000     0.1150000   -0.1150000   2.431434e-04  1.541678e-07
    379    380   2   0.50000     0.1150000    0.1150000   5.042375e-05  1.012808e-08
    370    381   2   0.50000    -0.1150000    0.1150000   2.431434e-04  1.541678e-07
    380    373   2   0.50000     0.1150000   -0.1150000   2.431434e-04  1.541678e-07
    380    381   2   0.50000     0.1150000    0.1150000   5.042375e-05  1.012808e-08
    371    382   2   0.50000    -0.1150000    0.1150000   2.431434e-04  1.541678e-07
    381    368   2   0.50000     0.1150000    0.0850000   2.431434e-04  1.541678e-07
    381    382   2   0.50000     0.1150000    0.1150000   5.042375e-05  1.012808e-08

[ angles ]
; ai  aj  ak
      2      1      3   1     60.4310    125.5200
      2      1     12   1    117.2000    313.8000
      2      1     20   1    117.2000    313.8000
      3      1     12   1    114.2770    418.4000
      3      1     20   1    114.2770    418.4000
     12      1     20   1    114.3000    292.8800
      1      2      3   1     60.4310    125.5200
      1      2      4   1    120.9400    502.0800
      1      2     13   1    117.2000    313.8000
      3      2      4   1    116.4710    669.4400
      3      2     13   1    114.2770    418.4000
      4      2     13   1    115.0450    334.7200
      1      3      2   1     59.1490    125.5200
      2      4      5   1    109.5000    418.4000
      2      4     14   1    109.3840    376.5600
      2      4     15   1    109.3840    376.5600
      5      4     14   1    109.5000    292.8800
      5      4     15   1    109.5000    292.8800
     14      4     15   1    107.8000    276.1440
      4      5      6   1    111.0000    627.6000
      5      6      7   1    120.0000    585.7600
      5      6     11   1    120.0000    585.7600
      7      6     11   1    120.0000    527.1840
      6      7      8   1    120.0000    527.1840
      6      7     16   1    120.0000    292.8800
      8      7     16   1    120.0000    292.8800
      7      8      9   1    120.0000    527.1840
      7      8     17   1    120.0000    292.8800
      9      8     17   1    120.0000    292.8800
      8      9     10   1    120.0000    527.1840
      8      9     18   1    120.0000    292.8800
     10      9     18   1    120.0000    292.8800
      9     10     11   1    120.0000    527.1840
      9     10     19   1    120.0000    292.8800
     11     10     19   1    120.0000    292.8800
      6     11     10   1    120.0000    527.1840
      6     11     21   1    121.7600    502.0800
     10     11     21   1    121.7600    502.0800
     11     21     22   1    119.8800    543.9200
     11     21     23   1    111.8570    711.2800
     11     21     32   1    109.5000    292.8800
     22     21     23   1     60.4310    125.5200
     22     21     32   1    117.2000    313.8000
     23     21     32   1    114.2770    418.4000
     21     22     23   1     60.4310    125.5200
     21     22     24   1    120.9400    502.0800
     21     22     33   1    117.2000    313.8000
     23     22     24   1    116.4710    669.4400
     23     22     33   1    114.2770    418.4000
     24     22     33   1    115.0450    334.7200
     21     23     22   1     59.1490    125.5200
     22     24     25   1    109.5000    418.4000
     22     24     34   1    109.3840    376.5600
     22     24     35   1    109.3840    376.5600
     25     24     34   1    109.5000    292.8800
     25     24     35   1    109.5000    292.8800
     34     24     35   1    107.8000    276.1440
     24     25     26   1    111.0000    627.6000
     25     26     27   1    120.0000    585.7600
     25     26     31   1    120.0000    585.7600
     27     26     31   1    120.0000    527.1840
     26     27     28   1    120.0000    527.1840
     26     27     36   1    120.0000    292.8800
     28     27     36   1    120.0000    292.8800
     27     28     29   1    120.0000    527.1840
     27     28     37   1    120.0000    292.8800
     29     28     37   1    120.0000    292.8800
     28     29     30   1    120.0000    527.1840
     28     29     38   1    120.0000    292.8800
     30     29     38   1    120.0000    292.8800
     29     30     31   1    120.0000    527.1840
     29     30     39   1    120.0000    292.8800
     31     30     39   1    120.0000    292.8800
     26     31     30   1    120.0000    527.1840
     26     31     40   1    121.7600    502.0800
     30     31     40   1    121.7600    502.0800
     31     40     41   1    119.8800    543.9200
     31     40     42   1    111.8570    711.2800
     31     40     51   1    109.5000    292.8800
     41     40     42   1     60.4310    125.5200
     41     40     51   1    117.2000    313.8000
     42     40     51   1    114.2770    418.4000
     40     41     42   1     60.4310    125.5200
     40     41     43   1    120.9400    502.0800
     40     41     52   1    117.2000    313.8000
     42     41     43   1    116.4710    669.4400
     42     41     52   1    114.2770    418.4000
     43     41     52   1    115.0450    334.7200
     40     42     41   1     59.1490    125.5200
     41     43     44   1    109.5000    418.4000
     41     43     53   1    109.3840    376.5600
     41     43     54   1    109.3840    376.5600
     44     43     53   1    109.5000    292.8800
     44     43     54   1    109.5000    292.8800
     53     43     54   1    107.8000    276.1440
     43     44     45   1    111.0000    627.6000
     44     45     46   1    120.0000    585.7600
     44     45     50   1    120.0000    585.7600
     46     45     50   1    120.0000    527.1840
     45     46     47   1    120.0000    527.1840
     45     46     55   1    120.0000    292.8800
     47     46     55   1    120.0000    292.8800
     46     47     48   1    120.0000    527.1840
     46     47     56   1    120.0000    292.8800
     48     47     56   1    120.0000    292.8800
     47     48     49   1    120.0000    527.1840
     47     48     57   1    120.0000    292.8800
     49     48     57   1    120.0000    292.8800
     48     49     50   1    120.0000    527.1840
     48     49     58   1    120.0000    292.8800
     50     49     58   1    120.0000    292.8800
     45     50     49   1    120.0000    527.1840
     45     50     59   1    121.7600    502.0800
     49     50     59   1    121.7600    502.0800
     50     59     60   1    119.8800    543.9200
     50     59     61   1    111.8570    711.2800
     50     59     70   1    109.5000    292.8800
     60     59     61   1     60.4310    125.5200
     60     59     70   1    117.2000    313.8000
     61     59     70   1    114.2770    418.4000
     59     60     61   1     60.4310    125.5200
     59     60     62   1    120.9400    502.0800
     59     60     71   1    117.2000    313.8000
     61     60     62   1    116.4710    669.4400
     61     60     71   1    114.2770    418.4000
     62     60     71   1    115.0450    334.7200
     59     61     60   1     59.1490    125.5200
     60     62     63   1    109.5000    418.4000
     60     62     72   1    109.3840    376.5600
     60     62     73   1    109.3840    376.5600
     63     62     72   1    109.5000    292.8800
     63     62     73   1    109.5000    292.8800
     72     62     73   1    107.8000    276.1440
     62     63     64   1    111.0000    627.6000
     63     64     65   1    120.0000    585.7600
     63     64     69   1    120.0000    585.7600
     65     64     69   1    120.0000    527.1840
     64     65     66   1    120.0000    527.1840
     64     65     74   1    120.0000    292.8800
     66     65     74   1    120.0000    292.8800
     65     66     67   1    120.0000    527.1840
     65     66     75   1    120.0000    292.8800
     67     66     75   1    120.0000    292.8800
     66     67     68   1    120.0000    527.1840
     66     67     76   1    120.0000    292.8800
     68     67     76   1    120.0000    292.8800
     67     68     69   1    120.0000    527.1840
     67     68     77   1    120.0000    292.8800
     69     68     77   1    120.0000    292.8800
     64     69     68   1    120.0000    527.1840
     64     69     78   1    121.7600    502.0800
     68     69     78   1    121.7600    502.0800
     69     78     79   1    119.8800    543.9200
     69     78     80   1    111.8570    711.2800
     69     78     89   1    109.5000    292.8800
     79     78     80   1     60.4310    125.5200
     79     78     89   1    117.2000    313.8000
     80     78     89   1    114.2770    418.4000
     78     79     80   1     60.4310    125.5200
     78     79     81   1    120.9400    502.0800
     78     79     90   1    117.2000    313.8000
     80     79     81   1    116.4710    669.4400
     80     79     90   1    114.2770    418.4000
     81     79     90   1    115.0450    334.7200
     78     80     79   1     59.1490    125.5200
     79     81     82   1    109.5000    418.4000
     79     81     91   1    109.3840    376.5600
     79     81     92   1    109.3840    376.5600
     82     81     91   1    109.5000    292.8800
     82     81     92   1    109.5000    292.8800
     91     81     92   1    107.8000    276.1440
     81     82     83   1    111.0000    627.6000
     82     83     84   1    120.0000    585.7600
     82     83     88   1    120.0000    585.7600
     84     83     88   1    120.0000    527.1840
     83     84     85   1    120.0000    527.1840
     83     84     93   1    120.0000    292.8800
     85     84     93   1    120.0000    292.8800
     84     85     86   1    120.0000    527.1840
     84     85     94   1    120.0000    292.8800
     86     85     94   1    120.0000    292.8800
     85     86     87   1    120.0000    527.1840
     85     86     95   1    120.0000    292.8800
     87     86     95   1    120.0000    292.8800
     86     87     88   1    120.0000    527.1840
     86     87     96   1    120.0000    292.8800
     88     87     96   1    120.0000    292.8800
     83     88     87   1    120.0000    527.1840
     83     88     97   1    121.7600    502.0800
     87     88     97   1    121.7600    502.0800
     88     97     98   1    119.8800    543.9200
     88     97     99   1    111.8570    711.2800
     88     97    108   1    109.5000    292.8800
     98     97     99   1     60.4310    125.5200
     98     97    108   1    117.2000    313.8000
     99     97    108   1    114.2770    418.4000
     97     98     99   1     60.4310    125.5200
     97     98    100   1    120.9400    502.0800
     97     98    109   1    117.2000    313.8000
     99     98    100   1    116.4710    669.4400
     99     98    109   1    114.2770    418.4000
    100     98    109   1    115.0450    334.7200
     97     99     98   1     59.1490    125.5200
     98    100    101   1    109.5000    418.4000
     98    100    110   1    109.3840    376.5600
     98    100    111   1    109.3840    376.5600
    101    100    110   1    109.5000    292.8800
    101    100    111   1    109.5000    292.8800
    110    100    111   1    107.8000    276.1440
    100    101    102   1    111.0000    627.6000
    101    102    103   1    120.0000    585.7600
    101    102    107   1    120.0000    585.7600
    103    102    107   1    120.0000    527.1840
    102    103    104   1    120.0000    527.1840
    102    103    112   1    120.0000    292.8800
    104    103    112   1    120.0000    292.8800
    103    104    105   1    120.0000    527.1840
    103    104    113   1    120.0000    292.8800
    105    104    113   1    120.0000    292.8800
    104    105    106   1    120.0000    527.1840
    104    105    114   1    120.0000    292.8800
    106    105    114   1    120.0000    292.8800
    105    106    107   1    120.0000    527.1840
    105    106    115   1    120.0000    292.8800
    107    106    115   1    120.0000    292.8800
    102    107    106   1    120.0000    527.1840
    102    107    116   1    121.7600    502.0800
    106    107    116   1    121.7600    502.0800
    107    116    117   1    119.8800    543.9200
    107    116    118   1    111.8570    711.2800
    107    116    127   1    109.5000    292.8800
    117    116    118   1     60.4310    125.5200
    117    116    127   1    117.2000    313.8000
    118    116    127   1    114.2770    418.4000
    116    117    118   1     60.4310    125.5200
    116    117    119   1    120.9400    502.0800
    116    117    128   1    117.2000    313.8000
    118    117    119   1    116.4710    669.4400
    118    117    128   1    114.2770    418.4000
    119    117    128   1    115.0450    334.7200
    116    118    117   1     59.1490    125.5200
    117    119    120   1    109.5000    418.4000
    117    119    129   1    109.3840    376.5600
    117    119    130   1    109.3840    376.5600
    120    119    129   1    109.5000    292.8800
    120    119    130   1    109.5000    292.8800
    129    119    130   1    107.8000    276.1440
    119    120    121   1    111.0000    627.6000
    120    121    122   1    120.0000    585.7600
    120    121    126   1    120.0000    585.7600
    122    121    126   1    120.0000    527.1840
    121    122    123   1    120.0000    527.1840
    121    122    131   1    120.0000    292.8800
    123    122    131   1    120.0000    292.8800
    122    123    124   1    120.0000    527.1840
    122    123    132   1    120.0000    292.8800
    124    123    132   1    120.0000    292.8800
    123    124    125   1    120.0000    527.1840
    123    124    133   1    120.0000    292.8800
    125    124    133   1    120.0000    292.8800
    124    125    126   1    120.0000    527.1840
    124    125    134   1    120.0000    292.8800
    126    125    134   1    120.0000    292.8800
    121    126    125   1    120.0000    527.1840
    121    126    135   1    121.7600    502.0800
    125    126    135   1    121.7600    502.0800
    126    135    136   1    119.8800    543.9200
    126    135    137   1    111.8570    711.2800
    126    135    146   1    109.5000    292.8800
    136    135    137   1     60.4310    125.5200
    136    135    146   1    117.2000    313.8000
    137    135    146   1    114.2770    418.4000
    135    136    137   1     60.4310    125.5200
    135    136    138   1    120.9400    502.0800
    135    136    147   1    117.2000    313.8000
    137    136    138   1    116.4710    669.4400
    137    136    147   1    114.2770    418.4000
    138    136    147   1    115.0450    334.7200
    135    137    136   1     59.1490    125.5200
    136    138    139   1    109.5000    418.4000
    136    138    148   1    109.3840    376.5600
    136    138    149   1    109.3840    376.5600
    139    138    148   1    109.5000    292.8800
    139    138    149   1    109.5000    292.8800
    148    138    149   1    107.8000    276.1440
    138    139    140   1    111.0000    627.6000
    139    140    141   1    120.0000    585.7600
    139    140    145   1    120.0000    585.7600
    141    140    145   1    120.0000    527.1840
    140    141    142   1    120.0000    527.1840
    140    141    150   1    120.0000    292.8800
    142    141    150   1    120.0000    292.8800
    141    142    143   1    120.0000    527.1840
    141    142    151   1    120.0000    292.8800
    143    142    151   1    120.0000    292.8800
    142    143    144   1    120.0000    527.1840
    142    143    152   1    120.0000    292.8800
    144    143    152   1    120.0000    292.8800
    143    144    145   1    120.0000    527.1840
    143    144    153   1    120.0000    292.8800
    145    144    153   1    120.0000    292.8800
    140    145    144   1    120.0000    527.1840
    140    145    154   1    121.7600    502.0800
    144    145    154   1    121.7600    502.0800
    145    154    155   1    119.8800    543.9200
    145    154    156   1    111.8570    711.2800
    145    154    165   1    109.5000    292.8800
    155    154    156   1     60.4310    125.5200
    155    154    165   1    117.2000    313.8000
    156    154    165   1    114.2770    418.4000
    154    155    156   1     60.4310    125.5200
    154    155    157   1    120.9400    502.0800
    154    155    166   1    117.2000    313.8000
    156    155    157   1    116.4710    669.4400
    156    155    166   1    114.2770    418.4000
    157    155    166   1    115.0450    334.7200
    154    156    155   1     59.1490    125.5200
    155    157    158   1    109.5000    418.4000
    155    157    167   1    109.3840    376.5600
    155    157    168   1    109.3840    376.5600
    158    157    167   1    109.5000    292.8800
    158    157    168   1    109.5000    292.8800
    167    157    168   1    107.8000    276.1440
    157    158    159   1    111.0000    627.6000
    158    159    160   1    120.0000    585.7600
    158    159    164   1    120.0000    585.7600
    160    159    164   1    120.0000    527.1840
    159    160    161   1    120.0000    527.1840
    159    160    169   1    120.0000    292.8800
    161    160    169   1    120.0000    292.8800
    160    161    162   1    120.0000    527.1840
    160    161    170   1    120.0000    292.8800
    162    161    170   1    120.0000    292.8800
    161    162    163   1    120.0000    527.1840
    161    162    171   1    120.0000    292.8800
    163    162    171   1    120.0000    292.8800
    162    163    164   1    120.0000    527.1840
    162    163    172   1    120.0000    292.8800
    164    163    172   1    120.0000    292.8800
    159    164    163   1    120.0000    527.1840
    159    164    173   1    121.7600    502.0800
    163    164    173   1    121.7600    502.0800
    164    173    174   1    119.8800    543.9200
    164    173    175   1    111.8570    711.2800
    164    173    184   1    109.5000    292.8800
    174    173    175   1     60.4310    125.5200
    174    173    184   1    117.2000    313.8000
    175    173    184   1    114.2770    418.4000
    173    174    175   1     60.4310    125.5200
    173    174    176   1    120.9400    502.0800
    173    174    185   1    117.2000    313.8000
    175    174    176   1    116.4710    669.4400
    175    174    185   1    114.2770    418.4000
    176    174    185   1    115.0450    334.7200
    173    175    174   1     59.1490    125.5200
    174    176    177   1    109.5000    418.4000
    174    176    186   1    109.3840    376.5600
    174    176    187   1    109.3840    376.5600
    177    176    186   1    109.5000    292.8800
    177    176    187   1    109.5000    292.8800
    186    176    187   1    107.8000    276.1440
    176    177    178   1    111.0000    627.6000
    177    178    179   1    120.0000    585.7600
    177    178    183   1    120.0000    585.7600
    179    178    183   1    120.0000    527.1840
    178    179    180   1    120.0000    527.1840
    178    179    188   1    120.0000    292.8800
    180    179    188   1    120.0000    292.8800
    179    180    181   1    120.0000    527.1840
    179    180    189   1    120.0000    292.8800
    181    180    189   1    120.0000    292.8800
    180    181    182   1    120.0000    527.1840
    180    181    190   1    120.0000    292.8800
    182    181    190   1    120.0000    292.8800
    181    182    183   1    120.0000    527.1840
    181    182    191   1    120.0000    292.8800
    183    182    191   1    120.0000    292.8800
    178    183    182   1    120.0000    527.1840
    178    183    192   1    121.7600    502.0800
    182    183    192   1    121.7600    502.0800
    183    192    193   1    119.8800    543.9200
    183    192    194   1    111.8570    711.2800
    183    192    203   1    109.5000    292.8800
    193    192    194   1     60.4310    125.5200
    193    192    203   1    117.2000    313.8000
    194    192    203   1    114.2770    418.4000
    192    193    194   1     60.4310    125.5200
    192    193    195   1    120.9400    502.0800
    192    193    204   1    117.2000    313.8000
    194    193    195   1    116.4710    669.4400
    194    193    204   1    114.2770    418.4000
    195    193    204   1    115.0450    334.7200
    192    194    193   1     59.1490    125.5200
    193    195    196   1    109.5000    418.4000
    193    195    205   1    109.3840    376.5600
    193    195    206   1    109.3840    376.5600
    196    195    205   1    109.5000    292.8800
    196    195    206   1    109.5000    292.8800
    205    195    206   1    107.8000    276.1440
    195    196    197   1    111.0000    627.6000
    196    197    198   1    120.0000    585.7600
    196    197    202   1    120.0000    585.7600
    198    197    202   1    120.0000    527.1840
    197    198    199   1    120.0000    527.1840
    197    198    207   1    120.0000    292.8800
    199    198    207   1    120.0000    292.8800
    198    199    200   1    120.0000    527.1840
    198    199    208   1    120.0000    292.8800
    200    199    208   1    120.0000    292.8800
    199    200    201   1    120.0000    527.1840
    199    200    209   1    120.0000    292.8800
    201    200    209   1    120.0000    292.8800
    200    201    202   1    120.0000    527.1840
    200    201    210   1    120.0000    292.8800
    202    201    210   1    120.0000    292.8800
    197    202    201   1    120.0000    527.1840
    197    202    211   1    121.7600    502.0800
    201    202    211   1    121.7600    502.0800
    202    211    212   1    119.8800    543.9200
    202    211    213   1    111.8570    711.2800
    202    211    222   1    109.5000    292.8800
    212    211    213   1     60.4310    125.5200
    212    211    222   1    117.2000    313.8000
    213    211    222   1    114.2770    418.4000
    211    212    213   1     60.4310    125.5200
    211    212    214   1    120.9400    502.0800
    211    212    223   1    117.2000    313.8000
    213    212    214   1    116.4710    669.4400
    213    212    223   1    114.2770    418.4000
    214    212    223   1    115.0450    334.7200
    211    213    212   1     59.1490    125.5200
    212    214    215   1    109.5000    418.4000
    212    214    224   1    109.3840    376.5600
    212    214    225   1    109.3840    376.5600
    215    214    224   1    109.5000    292.8800
    215    214    225   1    109.5000    292.8800
    224    214    225   1    107.8000    276.1440
    214    215    216   1    111.0000    627.6000
    215    216    217   1    120.0000    585.7600
    215    216    221   1    120.0000    585.7600
    217    216    221   1    120.0000    527.1840
    216    217    218   1    120.0000    527.1840
    216    217    226   1    120.0000    292.8800
    218    217    226   1    120.0000    292.8800
    217    218    219   1    120.0000    527.1840
    217    218    227   1    120.0000    292.8800
    219    218    227   1    120.0000    292.8800
    218    219    220   1    120.0000    527.1840
    218    219    228   1    120.0000    292.8800
    220    219    228   1    120.0000    292.8800
    219    220    221   1    120.0000    527.1840
    219    220    229   1    120.0000    292.8800
    221    220    229   1    120.0000    292.8800
    216    221    220   1    120.0000    527.1840
    216    221    230   1    121.7600    502.0800
    220    221    230   1    121.7600    502.0800
    221    230    231   1    119.8800    543.9200
    221    230    232   1    111.8570    711.2800
    221    230    241   1    109.5000    292.8800
    231    230    232   1     60.4310    125.5200
    231    230    241   1    117.2000    313.8000
    232    230    241   1    114.2770    418.4000
    230    231    232   1     60.4310    125.5200
    230    231    233   1    120.9400    502.0800
    230    231    242   1    117.2000    313.8000
    232    231    233   1    116.4710    669.4400
    232    231    242   1    114.2770    418.4000
    233    231    242   1    115.0450    334.7200
    230    232    231   1     59.1490    125.5200
    231    233    234   1    109.5000    418.4000
    231    233    243   1    109.3840    376.5600
    231    233    244   1    109.3840    376.5600
    234    233    243   1    109.5000    292.8800
    234    233    244   1    109.5000    292.8800
    243    233    244   1    107.8000    276.1440
    233    234    235   1    111.0000    627.6000
    234    235    236   1    120.0000    585.7600
    234    235    240   1    120.0000    585.7600
    236    235    240   1    120.0000    527.1840
    235    236    237   1    120.0000    527.1840
    235    236    245   1    120.0000    292.8800
    237    236    245   1    120.0000    292.8800
    236    237    238   1    120.0000    527.1840
    236    237    246   1    120.0000    292.8800
    238    237    246   1    120.0000    292.8800
    237    238    239   1    120.0000    527.1840
    237    238    247   1    120.0000    292.8800
    239    238    247   1    120.0000    292.8800
    238    239    240   1    120.0000    527.1840
    238    239    248   1    120.0000    292.8800
    240    239    248   1    120.0000    292.8800
    235    240    239   1    120.0000    527.1840
    235    240    249   1    121.7600    502.0800
    239    240    249   1    121.7600    502.0800
    240    249    250   1    119.8800    543.9200
    240    249    251   1    111.8570    711.2800
    240    249    260   1    109.5000    292.8800
    250    249    251   1     60.4310    125.5200
    250    249    260   1    117.2000    313.8000
    251    249    260   1    114.2770    418.4000
    249    250    251   1     60.4310    125.5200
    249    250    252   1    120.9400    502.0800
    249    250    261   1    117.2000    313.8000
    251    250    252   1    116.4710    669.4400
    251    250    261   1    114.2770    418.4000
    252    250    261   1    115.0450    334.7200
    249    251    250   1     59.1490    125.5200
    250    252    253   1    109.5000    418.4000
    250    252    262   1    109.3840    376.5600
    250    252    263   1    109.3840    376.5600
    253    252    262   1    109.5000    292.8800
    253    252    263   1    109.5000    292.8800
    262    252    263   1    107.8000    276.1440
    252    253    254   1    111.0000    627.6000
    253    254    255   1    120.0000    585.7600
    253    254    259   1    120.0000    585.7600
    255    254    259   1    120.0000    527.1840
    254    255    256   1    120.0000    527.1840
    254    255    264   1    120.0000    292.8800
    256    255    264   1    120.0000    292.8800
    255    256    257   1    120.0000    527.1840
    255    256    265   1    120.0000    292.8800
    257    256    265   1    120.0000    292.8800
    256    257    258   1    120.0000    527.1840
    256    257    266   1    120.0000    292.8800
    258    257    266   1    120.0000    292.8800
    257    258    259   1    120.0000    527.1840
    257    258    267   1    120.0000    292.8800
    259    258    267   1    120.0000    292.8800
    254    259    258   1    120.0000    527.1840
    254    259    268   1    121.7600    502.0800
    258    259    268   1    121.7600    502.0800
    259    268    269   1    119.8800    543.9200
    259    268    270   1    111.8570    711.2800
    259    268    279   1    109.5000    292.8800
    269    268    270   1     60.4310    125.5200
    269    268    279   1    117.2000    313.8000
    270    268    279   1    114.2770    418.4000
    268    269    270   1     60.4310    125.5200
    268    269    271   1    120.9400    502.0800
    268    269    280   1    117.2000    313.8000
    270    269    271   1    116.4710    669.4400
    270    269    280   1    114.2770    418.4000
    271    269    280   1    115.0450    334.7200
    268    270    269   1     59.1490    125.5200
    269    271    272   1    109.5000    418.4000
    269    271    281   1    109.3840    376.5600
    269    271    282   1    109.3840    376.5600
    272    271    281   1    109.5000    292.8800
    272    271    282   1    109.5000    292.8800
    281    271    282   1    107.8000    276.1440
    271    272    273   1    111.0000    627.6000
    272    273    274   1    120.0000    585.7600
    272    273    278   1    120.0000    585.7600
    274    273    278   1    120.0000    527.1840
    273    274    275   1    120.0000    527.1840
    273    274    283   1    120.0000    292.8800
    275    274    283   1    120.0000    292.8800
    274    275    276   1    120.0000    527.1840
    274    275    284   1    120.0000    292.8800
    276    275    284   1    120.0000    292.8800
    275    276    277   1    120.0000    527.1840
    275    276    285   1    120.0000    292.8800
    277    276    285   1    120.0000    292.8800
    276    277    278   1    120.0000    527.1840
    276    277    286   1    120.0000    292.8800
    278    277    286   1    120.0000    292.8800
    273    278    277   1    120.0000    527.1840
    273    278    287   1    121.7600    502.0800
    277    278    287   1    121.7600    502.0800
    278    287    288   1    119.8800    543.9200
    278    287    289   1    111.8570    711.2800
    278    287    298   1    109.5000    292.8800
    288    287    289   1     60.4310    125.5200
    288    287    298   1    117.2000    313.8000
    289    287    298   1    114.2770    418.4000
    287    288    289   1     60.4310    125.5200
    287    288    290   1    120.9400    502.0800
    287    288    299   1    117.2000    313.8000
    289    288    290   1    116.4710    669.4400
    289    288    299   1    114.2770    418.4000
    290    288    299   1    115.0450    334.7200
    287    289    288   1     59.1490    125.5200
    288    290    291   1    109.5000    418.4000
    288    290    300   1    109.3840    376.5600
    288    290    301   1    109.3840    376.5600
    291    290    300   1    109.5000    292.8800
    291    290    301   1    109.5000    292.8800
    300    290    301   1    107.8000    276.1440
    290    291    292   1    111.0000    627.6000
    291    292    293   1    120.0000    585.7600
    291    292    297   1    120.0000    585.7600
    293    292    297   1    120.0000    527.1840
    292    293    294   1    120.0000    527.1840
    292    293    302   1    120.0000    292.8800
    294    293    302   1    120.0000    292.8800
    293    294    295   1    120.0000    527.1840
    293    294    303   1    120.0000    292.8800
    295    294    303   1    120.0000    292.8800
    294    295    296   1    120.0000    527.1840
    294    295    304   1    120.0000    292.8800
    296    295    304   1    120.0000    292.8800
    295    296    297   1    120.0000    527.1840
    295    296    305   1    120.0000    292.8800
    297    296    305   1    120.0000    292.8800
    292    297    296   1    120.0000    527.1840
    292    297    306   1    121.7600    502.0800
    296    297    306   1    121.7600    502.0800
    297    306    307   1    119.8800    543.9200
    297    306    308   1    111.8570    711.2800
    297    306    317   1    109.5000    292.8800
    307    306    308   1     60.4310    125.5200
    307    306    317   1    117.2000    313.8000
    308    306    317   1    114.2770    418.4000
    306    307    308   1     60.4310    125.5200
    306    307    309   1    120.9400    502.0800
    306    307    318   1    117.2000    313.8000
    308    307    309   1    116.4710    669.4400
    308    307    318   1    114.2770    418.4000
    309    307    318   1    115.0450    334.7200
    306    308    307   1     59.1490    125.5200
    307    309    310   1    109.5000    418.4000
    307    309    319   1    109.3840    376.5600
    307    309    320   1    109.3840    376.5600
    310    309    319   1    109.5000    292.8800
    310    309    320   1    109.5000    292.8800
    319    309    320   1    107.8000    276.1440
    309    310    311   1    111.0000    627.6000
    310    311    312   1    120.0000    585.7600
    310    311    316   1    120.0000    585.7600
    312    311    316   1    120.0000    527.1840
    311    312    313   1    120.0000    527.1840
    311    312    321   1    120.0000    292.8800
    313    312    321   1    120.0000    292.8800
    312    313    314   1    120.0000    527.1840
    312    313    322   1    120.0000    292.8800
    314    313    322   1    120.0000    292.8800
    313    314    315   1    120.0000    527.1840
    313    314    323   1    120.0000    292.8800
    315    314    323   1    120.0000    292.8800
    314    315    316   1    120.0000    527.1840
    314    315    324   1    120.0000    292.8800
    316    315    324   1    120.0000    292.8800
    311    316    315   1    120.0000    527.1840
    311    316    325   1    121.7600    502.0800
    315    316    325   1    121.7600    502.0800
    316    325    326   1    119.8800    543.9200
    316    325    327   1    111.8570    711.2800
    316    325    336   1    109.5000    292.8800
    326    325    327   1     60.4310    125.5200
    326    325    336   1    117.2000    313.8000
    327    325    336   1    114.2770    418.4000
    325    326    327   1     60.4310    125.5200
    325    326    328   1    120.9400    502.0800
    325    326    337   1    117.2000    313.8000
    327    326    328   1    116.4710    669.4400
    327    326    337   1    114.2770    418.4000
    328    326    337   1    115.0450    334.7200
    325    327    326   1     59.1490    125.5200
    326    328    329   1    109.5000    418.4000
    326    328    338   1    109.3840    376.5600
    326    328    339   1    109.3840    376.5600
    329    328    338   1    109.5000    292.8800
    329    328    339   1    109.5000    292.8800
    338    328    339   1    107.8000    276.1440
    328    329    330   1    111.0000    627.6000
    329    330    331   1    120.0000    585.7600
    329    330    335   1    120.0000    585.7600
    331    330    335   1    120.0000    527.1840
    330    331    332   1    120.0000    527.1840
    330    331    340   1    120.0000    292.8800
    332    331    340   1    120.0000    292.8800
    331    332    333   1    120.0000    527.1840
    331    332    341   1    120.0000    292.8800
    333    332    341   1    120.0000    292.8800
    332    333    334   1    120.0000    527.1840
    332    333    342   1    120.0000    292.8800
    334    333    342   1    120.0000    292.8800
    333    334    335   1    120.0000    527.1840
    333    334    343   1    120.0000    292.8800
    335    334    343   1    120.0000    292.8800
    330    335    334   1    120.0000    527.1840
    330    335    344   1    121.7600    502.0800
    334    335    344   1    121.7600    502.0800
    335    344    345   1    119.8800    543.9200
    335    344    346   1    111.8570    711.2800
    335    344    355   1    109.5000    292.8800
    345    344    346   1     60.4310    125.5200
    345    344    355   1    117.2000    313.8000
    346    344    355   1    114.2770    418.4000
    344    345    346   1     60.4310    125.5200
    344    345    347   1    120.9400    502.0800
    344    345    356   1    117.2000    313.8000
    346    345    347   1    116.4710    669.4400
    346    345    356   1    114.2770    418.4000
    347    345    356   1    115.0450    334.7200
    344    346    345   1     59.1490    125.5200
    345    347    348   1    109.5000    418.4000
    345    347    357   1    109.3840    376.5600
    345    347    358   1    109.3840    376.5600
    348    347    357   1    109.5000    292.8800
    348    347    358   1    109.5000    292.8800
    357    347    358   1    107.8000    276.1440
    347    348    349   1    111.0000    627.6000
    348    349    350   1    120.0000    585.7600
    348    349    354   1    120.0000    585.7600
    350    349    354   1    120.0000    527.1840
    349    350    351   1    120.0000    527.1840
    349    350    359   1    120.0000    292.8800
    351    350    359   1    120.0000    292.8800
    350    351    352   1    120.0000    527.1840
    350    351    360   1    120.0000    292.8800
    352    351    360   1    120.0000    292.8800
    351    352    353   1    120.0000    527.1840
    351    352    361   1    120.0000    292.8800
    353    352    361   1    120.0000    292.8800
    352    353    354   1    120.0000    527.1840
    352    353    362   1    120.0000    292.8800
    354    353    362   1    120.0000    292.8800
    349    354    353   1    120.0000    527.1840
    349    354    363   1    121.7600    502.0800
    353    354    363   1    121.7600    502.0800
    354    363    364   1    119.8800    543.9200
    354    363    365   1    111.8570    711.2800
    354    363    374   1    109.5000    292.8800
    364    363    365   1     60.4310    125.5200
    364    363    374   1    117.2000    313.8000
    365    363    374   1    114.2770    418.4000
    363    364    365   1     60.4310    125.5200
    363    364    366   1    120.9400    502.0800
    363    364    375   1    117.2000    313.8000
    365    364    366   1    116.4710    669.4400
    365    364    375   1    114.2770    418.4000
    366    364    375   1    115.0450    334.7200
    363    365    364   1     59.1490    125.5200
    364    366    367   1    109.5000    418.4000
    364    366    376   1    109.3840    376.5600
    364    366    377   1    109.3840    376.5600
    367    366    376   1    109.5000    292.8800
    367    366    377   1    109.5000    292.8800
    376    366    377   1    107.8000    276.1440
    366    367    368   1    111.0000    627.6000
    367    368    369   1    120.0000    585.7600
    367    368    373   1    120.0000    585.7600
    369    368    373   1    120.0000    527.1840
    368    369    370   1    120.0000    527.1840
    368    369    378   1    120.0000    292.8800
    370    369    378   1    120.0000    292.8800
    369    370    371   1    120.0000    527.1840
    369    370    379   1    120.0000    292.8800
    371    370    379   1    120.0000    292.8800
    370    371    372   1    120.0000    527.1840
    370    371    380   1    120.0000    292.8800
    372    371    380   1    120.0000    292.8800
    371    372    373   1    120.0000    527.1840
    371    372    381   1    120.0000    292.8800
    373    372    381   1    120.0000    292.8800
    368    373    372   1    120.0000    527.1840
    368    373    382   1    120.0000    292.8800
    372    373    382   1    120.0000    292.8800

[ dihedrals ]
; Proper dihedrals
      3      1      2      4   5     0.21338    -0.21757    10.07507  0.0
      3      1      2     13   5     0.00000     0.00000     1.95811  0.0
     12      1      2      3   5     0.00000     0.00000     1.95811  0.0
     12      1      2      4   5     0.00000     0.00000     1.25520  0.0
     12      1      2     13   5     0.00000     0.00000     1.25520  0.0
     20      1      2      3   5     0.00000     0.00000     1.95811  0.0
     20      1      2      4   5     0.00000     0.00000     1.25520  0.0
     20      1      2     13   5     0.00000     0.00000     1.25520  0.0
     12      1      3      2   5     0.00000     0.00000     3.07942  0.0
     20      1      3      2   5     0.00000     0.00000     3.07942  0.0
      4      2      3      1   5     0.52300    -0.09205     2.34722  0.0
     13      2      3      1   5     0.00000     0.00000     3.07942  0.0
      1      2      4      5   5    -2.24262     5.78647    -4.07940  0.0
      1      2      4     14   5     0.00000     0.00000     1.25520  0.0
      1      2      4     15   5     0.00000     0.00000     1.25520  0.0
      3      2      4      5   5     9.36379    -9.73617    -2.85767  0.0
      3      2      4     14   5     0.00000     0.00000     1.95811  0.0
      3      2      4     15   5     0.00000     0.00000     1.95811  0.0
     13      2      4      5   5     0.00000     0.00000     1.95811  0.0
     13      2      4     14   5     0.00000     0.00000     1.25520  0.0
     13      2      4     15   5     0.00000     0.00000     1.25520  0.0
      2      4      5      6   5    -2.74889    -2.99574     2.84094  0.0
     14      4      5      6   5     0.00000     0.00000     0.67362  0.0
     15      4      5      6   5     0.00000     0.00000     0.67362  0.0
      4      5      6      7   5     0.00000    16.38454     0.00000  0.0
      4      5      6     11   5     0.00000    16.38454     0.00000  0.0
      5      6      7      8   5     0.00000    30.33400     0.00000  0.0
      5      6      7     16   5     0.00000    30.33400     0.00000  0.0
     11      6      7      8   5     0.00000    30.33400     0.00000  0.0
     11      6      7     16   5     0.00000    30.33400     0.00000  0.0
      5      6     11     10   5     0.00000    30.33400     0.00000  0.0
      5      6     11     21   5     0.00000    30.33400     0.00000  0.0
      7      6     11     10   5     0.00000    30.33400     0.00000  0.0
      7      6     11     21   5     0.00000    30.33400     0.00000  0.0
      6      7      8      9   5     0.00000    30.33400     0.00000  0.0
      6      7      8     17   5     0.00000    30.33400     0.00000  0.0
     16      7      8      9   5     0.00000    30.33400     0.00000  0.0
     16      7      8     17   5     0.00000    30.33400     0.00000  0.0
      7      8      9     10   5     0.00000    30.33400     0.00000  0.0
      7      8      9     18   5     0.00000    30.33400     0.00000  0.0
     17      8      9     10   5     0.00000    30.33400     0.00000  0.0
     17      8      9     18   5     0.00000    30.33400     0.00000  0.0
      8      9     10     11   5     0.00000    30.33400     0.00000  0.0
      8      9     10     19   5     0.00000    30.33400     0.00000  0.0
     18      9     10     11   5     0.00000    30.33400     0.00000  0.0
     18      9     10     19   5     0.00000    30.33400     0.00000  0.0
      9     10     11      6   5     0.00000    30.33400     0.00000  0.0
      9     10     11     21   5     0.00000    30.33400     0.00000  0.0
     19     10     11      6   5     0.00000    30.33400     0.00000  0.0
     19     10     11     21   5     0.00000    30.33400     0.00000  0.0
      6     11     21     22   5     0.00000     0.34727     0.00000  0.0
      6     11     21     23   5     5.39736     1.23846     1.72799  0.0
      6     11     21     32   5     0.00000     0.00000     0.00000  0.0
     10     11     21     22   5     0.00000     0.34727     0.00000  0.0
     10     11     21     23   5     5.39736     1.23846     1.72799  0.0
     10     11     21     32   5     0.00000     0.00000     0.00000  0.0
     11     21     22     23   5    -5.38481    -0.35146     1.65686  0.0
     11     21     22     24   5    -0.30962     3.11290    -3.95806  0.0
     11     21     22     33   5     0.00000     0.00000     3.61498  0.0
     23     21     22     24   5     0.21338    -0.21757    10.07507  0.0
     23     21     22     33   5     0.00000     0.00000     1.95811  0.0
     32     21     22     23   5     0.00000     0.00000     1.95811  0.0
     32     21     22     24   5     0.00000     0.00000     1.25520  0.0
     32     21     22     33   5     0.00000     0.00000     1.25520  0.0
     11     21     23     22   5     0.00000     0.00000     3.13800  0.0
     32     21     23     22   5     0.00000     0.00000     3.07942  0.0
     24     22     23     21   5     0.52300    -0.09205     2.34722  0.0
     33     22     23     21   5     0.00000     0.00000     3.07942  0.0
     21     22     24     25   5    -2.24262     5.78647    -4.07940  0.0
     21     22     24     34   5     0.00000     0.00000     1.25520  0.0
     21     22     24     35   5     0.00000     0.00000     1.25520  0.0
     23     22     24     25   5     9.36379    -9.73617    -2.85767  0.0
     23     22     24     34   5     0.00000     0.00000     1.95811  0.0
     23     22     24     35   5     0.00000     0.00000     1.95811  0.0
     33     22     24     25   5     0.00000     0.00000     1.95811  0.0
     33     22     24     34   5     0.00000     0.00000     1.25520  0.0
     33     22     24     35   5     0.00000     0.00000     1.25520  0.0
     22     24     25     26   5    -2.74889    -2.99574     2.84094  0.0
     34     24     25     26   5     0.00000     0.00000     0.67362  0.0
     35     24     25     26   5     0.00000     0.00000     0.67362  0.0
     24     25     26     27   5     0.00000    16.38454     0.00000  0.0
     24     25     26     31   5     0.00000    16.38454     0.00000  0.0
     25     26     27     28   5     0.00000    30.33400     0.00000  0.0
     25     26     27     36   5     0.00000    30.33400     0.00000  0.0
     31     26     27     28   5     0.00000    30.33400     0.00000  0.0
     31     26     27     36   5     0.00000    30.33400     0.00000  0.0
     25     26     31     30   5     0.00000    30.33400     0.00000  0.0
     25     26     31     40   5     0.00000    30.33400     0.00000  0.0
     27     26     31     30   5     0.00000    30.33400     0.00000  0.0
     27     26     31     40   5     0.00000    30.33400     0.00000  0.0
     26     27     28     29   5     0.00000    30.33400     0.00000  0.0
     26     27     28     37   5     0.00000    30.33400     0.00000  0.0
     36     27     28     29   5     0.00000    30.33400     0.00000  0.0
     36     27     28     37   5     0.00000    30.33400     0.00000  0.0
     27     28     29     30   5     0.00000    30.33400     0.00000  0.0
     27     28     29     38   5     0.00000    30.33400     0.00000  0.0
     37     28     29     30   5     0.00000    30.33400     0.00000  0.0
     37     28     29     38   5     0.00000    30.33400     0.00000  0.0
     28     29     30     31   5     0.00000    30.33400     0.00000  0.0
     28     29     30     39   5     0.00000    30.33400     0.00000  0.0
     38     29     30     31   5     0.00000    30.33400     0.00000  0.0
     38     29     30     39   5     0.00000    30.33400     0.00000  0.0
     29     30     31     26   5     0.00000    30.33400     0.00000  0.0
     29     30     31     40   5     0.00000    30.33400     0.00000  0.0
     39     30     31     26   5     0.00000    30.33400     0.00000  0.0
     39     30     31     40   5     0.00000    30.33400     0.00000  0.0
     26     31     40     41   5     0.00000     0.34727     0.00000  0.0
     26     31     40     42   5     5.39736     1.23846     1.72799  0.0
     26     31     40     51   5     0.00000     0.00000     0.00000  0.0
     30     31     40     41   5     0.00000     0.34727     0.00000  0.0
     30     31     40     42   5     5.39736     1.23846     1.72799  0.0
     30     31     40     51   5     0.00000     0.00000     0.00000  0.0
     31     40     41     42   5    -5.38481    -0.35146     1.65686  0.0
     31     40     41     43   5    -0.30962     3.11290    -3.95806  0.0
     31     40     41     52   5     0.00000     0.00000     3.61498  0.0
     42     40     41     43   5     0.21338    -0.21757    10.07507  0.0
     42     40     41     52   5     0.00000     0.00000     1.95811  0.0
     51     40     41     42   5     0.00000     0.00000     1.95811  0.0
     51     40     41     43   5     0.00000     0.00000     1.25520  0.0
     51     40     41     52   5     0.00000     0.00000     1.25520  0.0
     31     40     42     41   5     0.00000     0.00000     3.13800  0.0
     51     40     42     41   5     0.00000     0.00000     3.07942  0.0
     43     41     42     40   5     0.52300    -0.09205     2.34722  0.0
     52     41     42     40   5     0.00000     0.00000     3.07942  0.0
     40     41     43     44   5    -2.24262     5.78647    -4.07940  0.0
     40     41     43     53   5     0.00000     0.00000     1.25520  0.0
     40     41     43     54   5     0.00000     0.00000     1.25520  0.0
     42     41     43     44   5     9.36379    -9.73617    -2.85767  0.0
     42     41     43     53   5     0.00000     0.00000     1.95811  0.0
     42     41     43     54   5     0.00000     0.00000     1.95811  0.0
     52     41     43     44   5     0.00000     0.00000     1.95811  0.0
     52     41     43     53   5     0.00000     0.00000     1.25520  0.0
     52     41     43     54   5     0.00000     0.00000     1.25520  0.0
     41     43     44     45   5    -2.74889    -2.99574     2.84094  0.0
     53     43     44     45   5     0.00000     0.00000     0.67362  0.0
     54     43     44     45   5     0.00000     0.00000     0.67362  0.0
     43     44     45     46   5     0.00000    16.38454     0.00000  0.0
     43     44     45     50   5     0.00000    16.38454     0.00000  0.0
     44     45     46     47   5     0.00000    30.33400     0.00000  0.0
     44     45     46     55   5     0.00000    30.33400     0.00000  0.0
     50     45     46     47   5     0.00000    30.33400     0.00000  0.0
     50     45     46     55   5     0.00000    30.33400     0.00000  0.0
     44     45     50     49   5     0.00000    30.33400     0.00000  0.0
     44     45     50     59   5     0.00000    30.33400     0.00000  0.0
     46     45     50     49   5     0.00000    30.33400     0.00000  0.0
     46     45     50     59   5     0.00000    30.33400     0.00000  0.0
     45     46     47     48   5     0.00000    30.33400     0.00000  0.0
     45     46     47     56   5     0.00000    30.33400     0.00000  0.0
     55     46     47     48   5     0.00000    30.33400     0.00000  0.0
     55     46     47     56   5     0.00000    30.33400     0.00000  0.0
     46     47     48     49   5     0.00000    30.33400     0.00000  0.0
     46     47     48     57   5     0.00000    30.33400     0.00000  0.0
     56     47     48     49   5     0.00000    30.33400     0.00000  0.0
     56     47     48     57   5     0.00000    30.33400     0.00000  0.0
     47     48     49     50   5     0.00000    30.33400     0.00000  0.0
     47     48     49     58   5     0.00000    30.33400     0.00000  0.0
     57     48     49     50   5     0.00000    30.33400     0.00000  0.0
     57     48     49     58   5     0.00000    30.33400     0.00000  0.0
     48     49     50     45   5     0.00000    30.33400     0.00000  0.0
     48     49     50     59   5     0.00000    30.33400     0.00000  0.0
     58     49     50     45   5     0.00000    30.33400     0.00000  0.0
     58     49     50     59   5     0.00000    30.33400     0.00000  0.0
     45     50     59     60   5     0.00000     0.34727     0.00000  0.0
     45     50     59     61   5     5.39736     1.23846     1.72799  0.0
     45     50     59     70   5     0.00000     0.00000     0.00000  0.0
     49     50     59     60   5     0.00000     0.34727     0.00000  0.0
     49     50     59     61   5     5.39736     1.23846     1.72799  0.0
     49     50     59     70   5     0.00000     0.00000     0.00000  0.0
     50     59     60     61   5    -5.38481    -0.35146     1.65686  0.0
     50     59     60     62   5    -0.30962     3.11290    -3.95806  0.0
     50     59     60     71   5     0.00000     0.00000     3.61498  0.0
     61     59     60     62   5     0.21338    -0.21757    10.07507  0.0
     61     59     60     71   5     0.00000     0.00000     1.95811  0.0
     70     59     60     61   5     0.00000     0.00000     1.95811  0.0
     70     59     60     62   5     0.00000     0.00000     1.25520  0.0
     70     59     60     71   5     0.00000     0.00000     1.25520  0.0
     50     59     61     60   5     0.00000     0.00000     3.13800  0.0
     70     59     61     60   5     0.00000     0.00000     3.07942  0.0
     62     60     61     59   5     0.52300    -0.09205     2.34722  0.0
     71     60     61     59   5     0.00000     0.00000     3.07942  0.0
     59     60     62     63   5    -2.24262     5.78647    -4.07940  0.0
     59     60     62     72   5     0.00000     0.00000     1.25520  0.0
     59     60     62     73   5     0.00000     0.00000     1.25520  0.0
     61     60     62     63   5     9.36379    -9.73617    -2.85767  0.0
     61     60     62     72   5     0.00000     0.00000     1.95811  0.0
     61     60     62     73   5     0.00000     0.00000     1.95811  0.0
     71     60     62     63   5     0.00000     0.00000     1.95811  0.0
     71     60     62     72   5     0.00000     0.00000     1.25520  0.0
     71     60     62     73   5     0.00000     0.00000     1.25520  0.0
     60     62     63     64   5    -2.74889    -2.99574     2.84094  0.0
     72     62     63     64   5     0.00000     0.00000     0.67362  0.0
     73     62     63     64   5     0.00000     0.00000     0.67362  0.0
     62     63     64     65   5     0.00000    16.38454     0.00000  0.0
     62     63     64     69   5     0.00000    16.38454     0.00000  0.0
     63     64     65     66   5     0.00000    30.33400     0.00000  0.0
     63     64     65     74   5     0.00000    30.33400     0.00000  0.0
     69     64     65     66   5     0.00000    30.33400     0.00000  0.0
     69     64     65     74   5     0.00000    30.33400     0.00000  0.0
     63     64     69     68   5     0.00000    30.33400     0.00000  0.0
     63     64     69     78   5     0.00000    30.33400     0.00000  0.0
     65     64     69     68   5     0.00000    30.33400     0.00000  0.0
     65     64     69     78   5     0.00000    30.33400     0.00000  0.0
     64     65     66     67   5     0.00000    30.33400     0.00000  0.0
     64     65     66     75   5     0.00000    30.33400     0.00000  0.0
     74     65     66     67   5     0.00000    30.33400     0.00000  0.0
     74     65     66     75   5     0.00000    30.33400     0.00000  0.0
     65     66     67     68   5     0.00000    30.33400     0.00000  0.0
     65     66     67     76   5     0.00000    30.33400     0.00000  0.0
     75     66     67     68   5     0.00000    30.33400     0.00000  0.0
     75     66     67     76   5     0.00000    30.33400     0.00000  0.0
     66     67     68     69   5     0.00000    30.33400     0.00000  0.0
     66     67     68     77   5     0.00000    30.33400     0.00000  0.0
     76     67     68     69   5     0.00000    30.33400     0.00000  0.0
     76     67     68     77   5     0.00000    30.33400     0.00000  0.0
     67     68     69     64   5     0.00000    30.33400     0.00000  0.0
     67     68     69     78   5     0.00000    30.33400     0.00000  0.0
     77     68     69     64   5     0.00000    30.33400     0.00000  0.0
     77     68     69     78   5     0.00000    30.33400     0.00000  0.0
     64     69     78     79   5     0.00000     0.34727     0.00000  0.0
     64     69     78     80   5     5.39736     1.23846     1.72799  0.0
     64     69     78     89   5     0.00000     0.00000     0.00000  0.0
     68     69     78     79   5     0.00000     0.34727     0.00000  0.0
     68     69     78     80   5     5.39736     1.23846     1.72799  0.0
     68     69     78     89   5     0.00000     0.00000     0.00000  0.0
     69     78     79     80   5    -5.38481    -0.35146     1.65686  0.0
     69     78     79     81   5    -0.30962     3.11290    -3.95806  0.0
     69     78     79     90   5     0.00000     0.00000     3.61498  0.0
     80     78     79     81   5     0.21338    -0.21757    10.07507  0.0
     80     78     79     90   5     0.00000     0.00000     1.95811  0.0
     89     78     79     80   5     0.00000     0.00000     1.95811  0.0
     89     78     79     81   5     0.00000     0.00000     1.25520  0.0
     89     78     79     90   5     0.00000     0.00000     1.25520  0.0
     69     78     80     79   5     0.00000     0.00000     3.13800  0.0
     89     78     80     79   5     0.00000     0.00000     3.07942  0.0
     81     79     80     78   5     0.52300    -0.09205     2.34722  0.0
     90     79     80     78   5     0.00000     0.00000     3.07942  0.0
     78     79     81     82   5    -2.24262     5.78647    -4.07940  0.0
     78     79     81     91   5     0.00000     0.00000     1.25520  0.0
     78     79     81     92   5     0.00000     0.00000     1.25520  0.0
     80     79     81     82   5     9.36379    -9.73617    -2.85767  0.0
     80     79     81     91   5     0.00000     0.00000     1.95811  0.0
     80     79     81     92   5     0.00000     0.00000     1.95811  0.0
     90     79     81     82   5     0.00000     0.00000     1.95811  0.0
     90     79     81     91   5     0.00000     0.00000     1.25520  0.0
     90     79     81     92   5     0.00000     0.00000     1.25520  0.0
     79     81     82     83   5    -2.74889    -2.99574     2.84094  0.0
     91     81     82     83   5     0.00000     0.00000     0.67362  0.0
     92     81     82     83   5     0.00000     0.00000     0.67362  0.0
     81     82     83     84   5     0.00000    16.38454     0.00000  0.0
     81     82     83     88   5     0.00000    16.38454     0.00000  0.0
     82     83     84     85   5     0.00000    30.33400     0.00000  0.0
     82     83     84     93   5     0.00000    30.33400     0.00000  0.0
     88     83     84     85   5     0.00000    30.33400     0.00000  0.0
     88     83     84     93   5     0.00000    30.33400     0.00000  0.0
     82     83     88     87   5     0.00000    30.33400     0.00000  0.0
     82     83     88     97   5     0.00000    30.33400     0.00000  0.0
     84     83     88     87   5     0.00000    30.33400     0.00000  0.0
     84     83     88     97   5     0.00000    30.33400     0.00000  0.0
     83     84     85     86   5     0.00000    30.33400     0.00000  0.0
     83     84     85     94   5     0.00000    30.33400     0.00000  0.0
     93     84     85     86   5     0.00000    30.33400     0.00000  0.0
     93     84     85     94   5     0.00000    30.33400     0.00000  0.0
     84     85     86     87   5     0.00000    30.33400     0.00000  0.0
     84     85     86     95   5     0.00000    30.33400     0.00000  0.0
     94     85     86     87   5     0.00000    30.33400     0.00000  0.0
     94     85     86     95   5     0.00000    30.33400     0.00000  0.0
     85     86     87     88   5     0.00000    30.33400     0.00000  0.0
     85     86     87     96   5     0.00000    30.33400     0.00000  0.0
     95     86     87     88   5     0.00000    30.33400     0.00000  0.0
     95     86     87     96   5     0.00000    30.33400     0.00000  0.0
     86     87     88     83   5     0.00000    30.33400     0.00000  0.0
     86     87     88     97   5     0.00000    30.33400     0.00000  0.0
     96     87     88     83   5     0.00000    30.33400     0.00000  0.0
     96     87     88     97   5     0.00000    30.33400     0.00000  0.0
     83     88     97     98   5     0.00000     0.34727     0.00000  0.0
     83     88     97     99   5     5.39736     1.23846     1.72799  0.0
     83     88     97    108   5     0.00000     0.00000     0.00000  0.0
     87     88     97     98   5     0.00000     0.34727     0.00000  0.0
     87     88     97     99   5     5.39736     1.23846     1.72799  0.0
     87     88     97    108   5     0.00000     0.00000     0.00000  0.0
     88     97     98     99   5    -5.38481    -0.35146     1.65686  0.0
     88     97     98    100   5    -0.30962     3.11290    -3.95806  0.0
     88     97     98    109   5     0.00000     0.00000     3.61498  0.0
     99     97     98    100   5     0.21338    -0.21757    10.07507  0.0
     99     97     98    109   5     0.00000     0.00000     1.95811  0.0
    108     97     98     99   5     0.00000     0.00000     1.95811  0.0
    108     97     98    100   5     0.00000     0.00000     1.25520  0.0
    108     97     98    109   5     0.00000     0.00000     1.25520  0.0
     88     97     99     98   5     0.00000     0.00000     3.13800  0.0
    108     97     99     98   5     0.00000     0.00000     3.07942  0.0
    100     98     99     97   5     0.52300    -0.09205     2.34722  0.0
    109     98     99     97   5     0.00000     0.00000     3.07942  0.0
     97     98    100    101   5    -2.24262     5.78647    -4.07940  0.0
     97     98    100    110   5     0.00000     0.00000     1.25520  0.0
     97     98    100    111   5     0.00000     0.00000     1.25520  0.0
     99     98    100    101   5     9.36379    -9.73617    -2.85767  0.0
     99     98    100    110   5     0.00000     0.00000     1.95811  0.0
     99     98    100    111   5     0.00000     0.00000     1.95811  0.0
    109     98    100    101   5     0.00000     0.00000     1.95811  0.0
    109     98    100    110   5     0.00000     0.00000     1.25520  0.0
    109     98    100    111   5     0.00000     0.00000     1.25520  0.0
     98    100    101    102   5    -2.74889    -2.99574     2.84094  0.0
    110    100    101    102   5     0.00000     0.00000     0.67362  0.0
    111    100    101    102   5     0.00000     0.00000     0.67362  0.0
    100    101    102    103   5     0.00000    16.38454     0.00000  0.0
    100    101    102    107   5     0.00000    16.38454     0.00000  0.0
    101    102    103    104   5     0.00000    30.33400     0.00000  0.0
    101    102    103    112   5     0.00000    30.33400     0.00000  0.0
    107    102    103    104   5     0.00000    30.33400     0.00000  0.0
    107    102    103    112   5     0.00000    30.33400     0.00000  0.0
    101    102    107    106   5     0.00000    30.33400     0.00000  0.0
    101    102    107    116   5     0.00000    30.33400     0.00000  0.0
    103    102    107    106   5     0.00000    30.33400     0.00000  0.0
    103    102    107    116   5     0.00000    30.33400     0.00000  0.0
    102    103    104    105   5     0.00000    30.33400     0.00000  0.0
    102    103    104    113   5     0.00000    30.33400     0.00000  0.0
    112    103    104    105   5     0.00000    30.33400     0.00000  0.0
    112    103    104    113   5     0.00000    30.33400     0.00000  0.0
    103    104    105    106   5     0.00000    30.33400     0.00000  0.0
    103    104    105    114   5     0.00000    30.33400     0.00000  0.0
    113    104    105    106   5     0.00000    30.33400     0.00000  0.0
    113    104    105    114   5     0.00000    30.33400     0.00000  0.0
    104    105    106    107   5     0.00000    30.33400     0.00000  0.0
    104    105    106    115   5     0.00000    30.33400     0.00000  0.0
    114    105    106    107   5     0.00000    30.33400     0.00000  0.0
    114    105    106    115   5     0.00000    30.33400     0.00000  0.0
    105    106    107    102   5     0.00000    30.33400     0.00000  0.0
    105    106    107    116   5     0.00000    30.33400     0.00000  0.0
    115    106    107    102   5     0.00000    30.33400     0.00000  0.0
    115    106    107    116   5     0.00000    30.33400     0.00000  0.0
    102    107    116    117   5     0.00000     0.34727     0.00000  0.0
    102    107    116    118   5     5.39736     1.23846     1.72799  0.0
    102    107    116    127   5     0.00000     0.00000     0.00000  0.0
    106    107    116    117   5     0.00000     0.34727     0.00000  0.0
    106    107    116    118   5     5.39736     1.23846     1.72799  0.0
    106    107    116    127   5     0.00000     0.00000     0.00000  0.0
    107    116    117    118   5    -5.38481    -0.35146     1.65686  0.0
    107    116    117    119   5    -0.30962     3.11290    -3.95806  0.0
    107    116    117    128   5     0.00000     0.00000     3.61498  0.0
    118    116    117    119   5     0.21338    -0.21757    10.07507  0.0
    118    116    117    128   5     0.00000     0.00000     1.95811  0.0
    127    116    117    118   5     0.00000     0.00000     1.95811  0.0
    127    116    117    119   5     0.00000     0.00000     1.25520  0.0
    127    116    117    128   5     0.00000     0.00000     1.25520  0.0
    107    116    118    117   5     0.00000     0.00000     3.13800  0.0
    127    116    118    117   5     0.00000     0.00000     3.07942  0.0
    119    117    118    116   5     0.52300    -0.09205     2.34722  0.0
    128    117    118    116   5     0.00000     0.00000     3.07942  0.0
    116    117    119    120   5    -2.24262     5.78647    -4.07940  0.0
    116    117    119    129   5     0.00000     0.00000     1.25520  0.0
    116    117    119    130   5     0.00000     0.00000     1.25520  0.0
    118    117    119    120   5     9.36379    -9.73617    -2.85767  0.0
    118    117    119    129   5     0.00000     0.00000     1.95811  0.0
    118    117    119    130   5     0.00000     0.00000     1.95811  0.0
    128    117    119    120   5     0.00000     0.00000     1.95811  0.0
    128    117    119    129   5     0.00000     0.00000     1.25520  0.0
    128    117    119    130   5     0.00000     0.00000     1.25520  0.0
    117    119    120    121   5    -2.74889    -2.99574     2.84094  0.0
    129    119    120    121   5     0.00000     0.00000     0.67362  0.0
    130    119    120    121   5     0.00000     0.00000     0.67362  0.0
    119    120    121    122   5     0.00000    16.38454     0.00000  0.0
    119    120    121    126   5     0.00000    16.38454     0.00000  0.0
    120    121    122    123   5     0.00000    30.33400     0.00000  0.0
    120    121    122    131   5     0.00000    30.33400     0.00000  0.0
    126    121    122    123   5     0.00000    30.33400     0.00000  0.0
    126    121    122    131   5     0.00000    30.33400     0.00000  0.0
    120    121    126    125   5     0.00000    30.33400     0.00000  0.0
    120    121    126    135   5     0.00000    30.33400     0.00000  0.0
    122    121    126    125   5     0.00000    30.33400     0.00000  0.0
    122    121    126    135   5     0.00000    30.33400     0.00000  0.0
    121    122    123    124   5     0.00000    30.33400     0.00000  0.0
    121    122    123    132   5     0.00000    30.33400     0.00000  0.0
    131    122    123    124   5     0.00000    30.33400     0.00000  0.0
    131    122    123    132   5     0.00000    30.33400     0.00000  0.0
    122    123    124    125   5     0.00000    30.33400     0.00000  0.0
    122    123    124    133   5     0.00000    30.33400     0.00000  0.0
    132    123    124    125   5     0.00000    30.33400     0.00000  0.0
    132    123    124    133   5     0.00000    30.33400     0.00000  0.0
    123    124    125    126   5     0.00000    30.33400     0.00000  0.0
    123    124    125    134   5     0.00000    30.33400     0.00000  0.0
    133    124    125    126   5     0.00000    30.33400     0.00000  0.0
    133    124    125    134   5     0.00000    30.33400     0.00000  0.0
    124    125    126    121   5     0.00000    30.33400     0.00000  0.0
    124    125    126    135   5     0.00000    30.33400     0.00000  0.0
    134    125    126    121   5     0.00000    30.33400     0.00000  0.0
    134    125    126    135   5     0.00000    30.33400     0.00000  0.0
    121    126    135    136   5     0.00000     0.34727     0.00000  0.0
    121    126    135    137   5     5.39736     1.23846     1.72799  0.0
    121    126    135    146   5     0.00000     0.00000     0.00000  0.0
    125    126    135    136   5     0.00000     0.34727     0.00000  0.0
    125    126    135    137   5     5.39736     1.23846     1.72799  0.0
    125    126    135    146   5     0.00000     0.00000     0.00000  0.0
    126    135    136    137   5    -5.38481    -0.35146     1.65686  0.0
    126    135    136    138   5    -0.30962     3.11290    -3.95806  0.0
    126    135    136    147   5     0.00000     0.00000     3.61498  0.0
    137    135    136    138   5     0.21338    -0.21757    10.07507  0.0
    137    135    136    147   5     0.00000     0.00000     1.95811  0.0
    146    135    136    137   5     0.00000     0.00000     1.95811  0.0
    146    135    136    138   5     0.00000     0.00000     1.25520  0.0
    146    135    136    147   5     0.00000     0.00000     1.25520  0.0
    126    135    137    136   5     0.00000     0.00000     3.13800  0.0
    146    135    137    136   5     0.00000     0.00000     3.07942  0.0
    138    136    137    135   5     0.52300    -0.09205     2.34722  0.0
    147    136    137    135   5     0.00000     0.00000     3.07942  0.0
    135    136    138    139   5    -2.24262     5.78647    -4.07940  0.0
    135    136    138    148   5     0.00000     0.00000     1.25520  0.0
    135    136    138    149   5     0.00000     0.00000     1.25520  0.0
    137    136    138    139   5     9.36379    -9.73617    -2.85767  0.0
    137    136    138    148   5     0.00000     0.00000     1.95811  0.0
    137    136    138    149   5     0.00000     0.00000     1.95811  0.0
    147    136    138    139   5     0.00000     0.00000     1.95811  0.0
    147    136    138    148   5     0.00000     0.00000     1.25520  0.0
    147    136    138    149   5     0.00000     0.00000     1.25520  0.0
    136    138    139    140   5    -2.74889    -2.99574     2.84094  0.0
    148    138    139    140   5     0.00000     0.00000     0.67362  0.0
    149    138    139    140   5     0.00000     0.00000     0.67362  0.0
    138    139    140    141   5     0.00000    16.38454     0.00000  0.0
    138    139    140    145   5     0.00000    16.38454     0.00000  0.0
    139    140    141    142   5     0.00000    30.33400     0.00000  0.0
    139    140    141    150   5     0.00000    30.33400     0.00000  0.0
    145    140    141    142   5     0.00000    30.33400     0.00000  0.0
    145    140    141    150   5     0.00000    30.33400     0.00000  0.0
    139    140    145    144   5     0.00000    30.33400     0.00000  0.0
    139    140    145    154   5     0.00000    30.33400     0.00000  0.0
    141    140    145    144   5     0.00000    30.33400     0.00000  0.0
    141    140    145    154   5     0.00000    30.33400     0.00000  0.0
    140    141    142    143   5     0.00000    30.33400     0.00000  0.0
    140    141    142    151   5     0.00000    30.33400     0.00000  0.0
    150    141    142    143   5     0.00000    30.33400     0.00000  0.0
    150    141    142    151   5     0.00000    30.33400     0.00000  0.0
    141    142    143    144   5     0.00000    30.33400     0.00000  0.0
    141    142    143    152   5     0.00000    30.33400     0.00000  0.0
    151    142    143    144   5     0.00000    30.33400     0.00000  0.0
    151    142    143    152   5     0.00000    30.33400     0.00000  0.0
    142    143    144    145   5     0.00000    30.33400     0.00000  0.0
    142    143    144    153   5     0.00000    30.33400     0.00000  0.0
    152    143    144    145   5     0.00000    30.33400     0.00000  0.0
    152    143    144    153   5     0.00000    30.33400     0.00000  0.0
    143    144    145    140   5     0.00000    30.33400     0.00000  0.0
    143    144    145    154   5     0.00000    30.33400     0.00000  0.0
    153    144    145    140   5     0.00000    30.33400     0.00000  0.0
    153    144    145    154   5     0.00000    30.33400     0.00000  0.0
    140    145    154    155   5     0.00000     0.34727     0.00000  0.0
    140    145    154    156   5     5.39736     1.23846     1.72799  0.0
    140    145    154    165   5     0.00000     0.00000     0.00000  0.0
    144    145    154    155   5     0.00000     0.34727     0.00000  0.0
    144    145    154    156   5     5.39736     1.23846     1.72799  0.0
    144    145    154    165   5     0.00000     0.00000     0.00000  0.0
    145    154    155    156   5    -5.38481    -0.35146     1.65686  0.0
    145    154    155    157   5    -0.30962     3.11290    -3.95806  0.0
    145    154    155    166   5     0.00000     0.00000     3.61498  0.0
    156    154    155    157   5     0.21338    -0.21757    10.07507  0.0
    156    154    155    166   5     0.00000     0.00000     1.95811  0.0
    165    154    155    156   5     0.00000     0.00000     1.95811  0.0
    165    154    155    157   5     0.00000     0.00000     1.25520  0.0
    165    154    155    166   5     0.00000     0.00000     1.25520  0.0
    145    154    156    155   5     0.00000     0.00000     3.13800  0.0
    165    154    156    155   5     0.00000     0.00000     3.07942  0.0
    157    155    156    154   5     0.52300    -0.09205     2.34722  0.0
    166    155    156    154   5     0.00000     0.00000     3.07942  0.0
    154    155    157    158   5    -2.24262     5.78647    -4.07940  0.0
    154    155    157    167   5     0.00000     0.00000     1.25520  0.0
    154    155    157    168   5     0.00000     0.00000     1.25520  0.0
    156    155    157    158   5     9.36379    -9.73617    -2.85767  0.0
    156    155    157    167   5     0.00000     0.00000     1.95811  0.0
    156    155    157    168   5     0.00000     0.00000     1.95811  0.0
    166    155    157    158   5     0.00000     0.00000     1.95811  0.0
    166    155    157    167   5     0.00000     0.00000     1.25520  0.0
    166    155    157    168   5     0.00000     0.00000     1.25520  0.0
    155    157    158    159   5    -2.74889    -2.99574     2.84094  0.0
    167    157    158    159   5     0.00000     0.00000     0.67362  0.0
    168    157    158    159   5     0.00000     0.00000     0.67362  0.0
    157    158    159    160   5     0.00000    16.38454     0.00000  0.0
    157    158    159    164   5     0.00000    16.38454     0.00000  0.0
    158    159    160    161   5     0.00000    30.33400     0.00000  0.0
    158    159    160    169   5     0.00000    30.33400     0.00000  0.0
    164    159    160    161   5     0.00000    30.33400     0.00000  0.0
    164    159    160    169   5     0.00000    30.33400     0.00000  0.0
    158    159    164    163   5     0.00000    30.33400     0.00000  0.0
    158    159    164    173   5     0.00000    30.33400     0.00000  0.0
    160    159    164    163   5     0.00000    30.33400     0.00000  0.0
    160    159    164    173   5     0.00000    30.33400     0.00000  0.0
    159    160    161    162   5     0.00000    30.33400     0.00000  0.0
    159    160    161    170   5     0.00000    30.33400     0.00000  0.0
    169    160    161    162   5     0.00000    30.33400     0.00000  0.0
    169    160    161    170   5     0.00000    30.33400     0.00000  0.0
    160    161    162    163   5     0.00000    30.33400     0.00000  0.0
    160    161    162    171   5     0.00000    30.33400     0.00000  0.0
    170    161    162    163   5     0.00000    30.33400     0.00000  0.0
    170    161    162    171   5     0.00000    30.33400     0.00000  0.0
    161    162    163    164   5     0.00000    30.33400     0.00000  0.0
    161    162    163    172   5     0.00000    30.33400     0.00000  0.0
    171    162    163    164   5     0.00000    30.33400     0.00000  0.0
    171    162    163    172   5     0.00000    30.33400     0.00000  0.0
    162    163    164    159   5     0.00000    30.33400     0.00000  0.0
    162    163    164    173   5     0.00000    30.33400     0.00000  0.0
    172    163    164    159   5     0.00000    30.33400     0.00000  0.0
    172    163    164    173   5     0.00000    30.33400     0.00000  0.0
    159    164    173    174   5     0.00000     0.34727     0.00000  0.0
    159    164    173    175   5     5.39736     1.23846     1.72799  0.0
    159    164    173    184   5     0.00000     0.00000     0.00000  0.0
    163    164    173    174   5     0.00000     0.34727     0.00000  0.0
    163    164    173    175   5     5.39736     1.23846     1.72799  0.0
    163    164    173    184   5     0.00000     0.00000     0.00000  0.0
    164    173    174    175   5    -5.38481    -0.35146     1.65686  0.0
    164    173    174    176   5    -0.30962     3.11290    -3.95806  0.0
    164    173    174    185   5     0.00000     0.00000     3.61498  0.0
    175    173    174    176   5     0.21338    -0.21757    10.07507  0.0
    175    173    174    185   5     0.00000     0.00000     1.95811  0.0
    184    173    174    175   5     0.00000     0.00000     1.95811  0.0
    184    173    174    176   5     0.00000     0.00000     1.25520  0.0
    184    173    174    185   5     0.00000     0.00000     1.25520  0.0
    164    173    175    174   5     0.00000     0.00000     3.13800  0.0
    184    173    175    174   5     0.00000     0.00000     3.07942  0.0
    176    174    175    173   5     0.52300    -0.09205     2.34722  0.0
    185    174    175    173   5     0.00000     0.00000     3.07942  0.0
    173    174    176    177   5    -2.24262     5.78647    -4.07940  0.0
    173    174    176    186   5     0.00000     0.00000     1.25520  0.0
    173    174    176    187   5     0.00000     0.00000     1.25520  0.0
    175    174    176    177   5     9.36379    -9.73617    -2.85767  0.0
    175    174    176    186   5     0.00000     0.00000     1.95811  0.0
    175    174    176    187   5     0.00000     0.00000     1.95811  0.0
    185    174    176    177   5     0.00000     0.00000     1.95811  0.0
    185    174    176    186   5     0.00000     0.00000     1.25520  0.0
    185    174    176    187   5     0.00000     0.00000     1.25520  0.0
    174    176    177    178   5    -2.74889    -2.99574     2.84094  0.0
    186    176    177    178   5     0.00000     0.00000     0.67362  0.0
    187    176    177    178   5     0.00000     0.00000     0.67362  0.0
    176    177    178    179   5     0.00000    16.38454     0.00000  0.0
    176    177    178    183   5     0.00000    16.38454     0.00000  0.0
    177    178    179    180   5     0.00000    30.33400     0.00000  0.0
    177    178    179    188   5     0.00000    30.33400     0.00000  0.0
    183    178    179    180   5     0.00000    30.33400     0.00000  0.0
    183    178    179    188   5     0.00000    30.33400     0.00000  0.0
    177    178    183    182   5     0.00000    30.33400     0.00000  0.0
    177    178    183    192   5     0.00000    30.33400     0.00000  0.0
    179    178    183    182   5     0.00000    30.33400     0.00000  0.0
    179    178    183    192   5     0.00000    30.33400     0.00000  0.0
    178    179    180    181   5     0.00000    30.33400     0.00000  0.0
    178    179    180    189   5     0.00000    30.33400     0.00000  0.0
    188    179    180    181   5     0.00000    30.33400     0.00000  0.0
    188    179    180    189   5     0.00000    30.33400     0.00000  0.0
    179    180    181    182   5     0.00000    30.33400     0.00000  0.0
    179    180    181    190   5     0.00000    30.33400     0.00000  0.0
    189    180    181    182   5     0.00000    30.33400     0.00000  0.0
    189    180    181    190   5     0.00000    30.33400     0.00000  0.0
    180    181    182    183   5     0.00000    30.33400     0.00000  0.0
    180    181    182    191   5     0.00000    30.33400     0.00000  0.0
    190    181    182    183   5     0.00000    30.33400     0.00000  0.0
    190    181    182    191   5     0.00000    30.33400     0.00000  0.0
    181    182    183    178   5     0.00000    30.33400     0.00000  0.0
    181    182    183    192   5     0.00000    30.33400     0.00000  0.0
    191    182    183    178   5     0.00000    30.33400     0.00000  0.0
    191    182    183    192   5     0.00000    30.33400     0.00000  0.0
    178    183    192    193   5     0.00000     0.34727     0.00000  0.0
    178    183    192    194   5     5.39736     1.23846     1.72799  0.0
    178    183    192    203   5     0.00000     0.00000     0.00000  0.0
    182    183    192    193   5     0.00000     0.34727     0.00000  0.0
    182    183    192    194   5     5.39736     1.23846     1.72799  0.0
    182    183    192    203   5     0.00000     0.00000     0.00000  0.0
    183    192    193    194   5    -5.38481    -0.35146     1.65686  0.0
    183    192    193    195   5    -0.30962     3.11290    -3.95806  0.0
    183    192    193    204   5     0.00000     0.00000     3.61498  0.0
    194    192    193    195   5     0.21338    -0.21757    10.07507  0.0
    194    192    193    204   5     0.00000     0.00000     1.95811  0.0
    203    192    193    194   5     0.00000     0.00000     1.95811  0.0
    203    192    193    195   5     0.00000     0.00000     1.25520  0.0
    203    192    193    204   5     0.00000     0.00000     1.25520  0.0
    183    192    194    193   5     0.00000     0.00000     3.13800  0.0
    203    192    194    193   5     0.00000     0.00000     3.07942  0.0
    195    193    194    192   5     0.52300    -0.09205     2.34722  0.0
    204    193    194    192   5     0.00000     0.00000     3.07942  0.0
    192    193    195    196   5    -2.24262     5.78647    -4.07940  0.0
    192    193    195    205   5     0.00000     0.00000     1.25520  0.0
    192    193    195    206   5     0.00000     0.00000     1.25520  0.0
    194    193    195    196   5     9.36379    -9.73617    -2.85767  0.0
    194    193    195    205   5     0.00000     0.00000     1.95811  0.0
    194    193    195    206   5     0.00000     0.00000     1.95811  0.0
    204    193    195    196   5     0.00000     0.00000     1.95811  0.0
    204    193    195    205   5     0.00000     0.00000     1.25520  0.0
    204    193    195    206   5     0.00000     0.00000     1.25520  0.0
    193    195    196    197   5    -2.74889    -2.99574     2.84094  0.0
    205    195    196    197   5     0.00000     0.00000     0.67362  0.0
    206    195    196    197   5     0.00000     0.00000     0.67362  0.0
    195    196    197    198   5     0.00000    16.38454     0.00000  0.0
    195    196    197    202   5     0.00000    16.38454     0.00000  0.0
    196    197    198    199   5     0.00000    30.33400     0.00000  0.0
    196    197    198    207   5     0.00000    30.33400     0.00000  0.0
    202    197    198    199   5     0.00000    30.33400     0.00000  0.0
    202    197    198    207   5     0.00000    30.33400     0.00000  0.0
    196    197    202    201   5     0.00000    30.33400     0.00000  0.0
    196    197    202    211   5     0.00000    30.33400     0.00000  0.0
    198    197    202    201   5     0.00000    30.33400     0.00000  0.0
    198    197    202    211   5     0.00000    30.33400     0.00000  0.0
    197    198    199    200   5     0.00000    30.33400     0.00000  0.0
    197    198    199    208   5     0.00000    30.33400     0.00000  0.0
    207    198    199    200   5     0.00000    30.33400     0.00000  0.0
    207    198    199    208   5     0.00000    30.33400     0.00000  0.0
    198    199    200    201   5     0.00000    30.33400     0.00000  0.0
    198    199    200    209   5     0.00000    30.33400     0.00000  0.0
    208    199    200    201   5     0.00000    30.33400     0.00000  0.0
    208    199    200    209   5     0.00000    30.33400     0.00000  0.0
    199    200    201    202   5     0.00000    30.33400     0.00000  0.0
    199    200    201    210   5     0.00000    30.33400     0.00000  0.0
    209    200    201    202   5     0.00000    30.33400     0.00000  0.0
    209    200    201    210   5     0.00000    30.33400     0.00000  0.0
    200    201    202    197   5     0.00000    30.33400     0.00000  0.0
    200    201    202    211   5     0.00000    30.33400     0.00000  0.0
    210    201    202    197   5     0.00000    30.33400     0.00000  0.0
    210    201    202    211   5     0.00000    30.33400     0.00000  0.0
    197    202    211    212   5     0.00000     0.34727     0.00000  0.0
    197    202    211    213   5     5.39736     1.23846     1.72799  0.0
    197    202    211    222   5     0.00000     0.00000     0.00000  0.0
    201    202    211    212   5     0.00000     0.34727     0.00000  0.0
    201    202    211    213   5     5.39736     1.23846     1.72799  0.0
    201    202    211    222   5     0.00000     0.00000     0.00000  0.0
    202    211    212    213   5    -5.38481    -0.35146     1.65686  0.0
    202    211    212    214   5    -0.30962     3.11290    -3.95806  0.0
    202    211    212    223   5     0.00000     0.00000     3.61498  0.0
    213    211    212    214   5     0.21338    -0.21757    10.07507  0.0
    213    211    212    223   5     0.00000     0.00000     1.95811  0.0
    222    211    212    213   5     0.00000     0.00000     1.95811  0.0
    222    211    212    214   5     0.00000     0.00000     1.25520  0.0
    222    211    212    223   5     0.00000     0.00000     1.25520  0.0
    202    211    213    212   5     0.00000     0.00000     3.13800  0.0
    222    211    213    212   5     0.00000     0.00000     3.07942  0.0
    214    212    213    211   5     0.52300    -0.09205     2.34722  0.0
    223    212    213    211   5     0.00000     0.00000     3.07942  0.0
    211    212    214    215   5    -2.24262     5.78647    -4.07940  0.0
    211    212    214    224   5     0.00000     0.00000     1.25520  0.0
    211    212    214    225   5     0.00000     0.00000     1.25520  0.0
    213    212    214    215   5     9.36379    -9.73617    -2.85767  0.0
    213    212    214    224   5     0.00000     0.00000     1.95811  0.0
    213    212    214    225   5     0.00000     0.00000     1.95811  0.0
    223    212    214    215   5     0.00000     0.00000     1.95811  0.0
    223    212    214    224   5     0.00000     0.00000     1.25520  0.0
    223    212    214    225   5     0.00000     0.00000     1.25520  0.0
    212    214    215    216   5    -2.74889    -2.99574     2.84094  0.0
    224    214    215    216   5     0.00000     0.00000     0.67362  0.0
    225    214    215    216   5     0.00000     0.00000     0.67362  0.0
    214    215    216    217   5     0.00000    16.38454     0.00000  0.0
    214    215    216    221   5     0.00000    16.38454     0.00000  0.0
    215    216    217    218   5     0.00000    30.33400     0.00000  0.0
    215    216    217    226   5     0.00000    30.33400     0.00000  0.0
    221    216    217    218   5     0.00000    30.33400     0.00000  0.0
    221    216    217    226   5     0.00000    30.33400     0.00000  0.0
    215    216    221    220   5     0.00000    30.33400     0.00000  0.0
    215    216    221    230   5     0.00000    30.33400     0.00000  0.0
    217    216    221    220   5     0.00000    30.33400     0.00000  0.0
    217    216    221    230   5     0.00000    30.33400     0.00000  0.0
    216    217    218    219   5     0.00000    30.33400     0.00000  0.0
    216    217    218    227   5     0.00000    30.33400     0.00000  0.0
    226    217    218    219   5     0.00000    30.33400     0.00000  0.0
    226    217    218    227   5     0.00000    30.33400     0.00000  0.0
    217    218    219    220   5     0.00000    30.33400     0.00000  0.0
    217    218    219    228   5     0.00000    30.33400     0.00000  0.0
    227    218    219    220   5     0.00000    30.33400     0.00000  0.0
    227    218    219    228   5     0.00000    30.33400     0.00000  0.0
    218    219    220    221   5     0.00000    30.33400     0.00000  0.0
    218    219    220    229   5     0.00000    30.33400     0.00000  0.0
    228    219    220    221   5     0.00000    30.33400     0.00000  0.0
    228    219    220    229   5     0.00000    30.33400     0.00000  0.0
    219    220    221    216   5     0.00000    30.33400     0.00000  0.0
    219    220    221    230   5     0.00000    30.33400     0.00000  0.0
    229    220    221    216   5     0.00000    30.33400     0.00000  0.0
    229    220    221    230   5     0.00000    30.33400     0.00000  0.0
    216    221    230    231   5     0.00000     0.34727     0.00000  0.0
    216    221    230    232   5     5.39736     1.23846     1.72799  0.0
    216    221    230    241   5     0.00000     0.00000     0.00000  0.0
    220    221    230    231   5     0.00000     0.34727     0.00000  0.0
    220    221    230    232   5     5.39736     1.23846     1.72799  0.0
    220    221    230    241   5     0.00000     0.00000     0.00000  0.0
    221    230    231    232   5    -5.38481    -0.35146     1.65686  0.0
    221    230    231    233   5    -0.30962     3.11290    -3.95806  0.0
    221    230    231    242   5     0.00000     0.00000     3.61498  0.0
    232    230    231    233   5     0.21338    -0.21757    10.07507  0.0
    232    230    231    242   5     0.00000     0.00000     1.95811  0.0
    241    230    231    232   5     0.00000     0.00000     1.95811  0.0
    241    230    231    233   5     0.00000     0.00000     1.25520  0.0
    241    230    231    242   5     0.00000     0.00000     1.25520  0.0
    221    230    232    231   5     0.00000     0.00000     3.13800  0.0
    241    230    232    231   5     0.00000     0.00000     3.07942  0.0
    233    231    232    230   5     0.52300    -0.09205     2.34722  0.0
    242    231    232    230   5     0.00000     0.00000     3.07942  0.0
    230    231    233    234   5    -2.24262     5.78647    -4.07940  0.0
    230    231    233    243   5     0.00000     0.00000     1.25520  0.0
    230    231    233    244   5     0.00000     0.00000     1.25520  0.0
    232    231    233    234   5     9.36379    -9.73617    -2.85767  0.0
    232    231    233    243   5     0.00000     0.00000     1.95811  0.0
    232    231    233    244   5     0.00000     0.00000     1.95811  0.0
    242    231    233    234   5     0.00000     0.00000     1.95811  0.0
    242    231    233    243   5     0.00000     0.00000     1.25520  0.0
    242    231    233    244   5     0.00000     0.00000     1.25520  0.0
    231    233    234    235   5    -2.74889    -2.99574     2.84094  0.0
    243    233    234    235   5     0.00000     0.00000     0.67362  0.0
    244    233    234    235   5     0.00000     0.00000     0.67362  0.0
    233    234    235    236   5     0.00000    16.38454     0.00000  0.0
    233    234    235    240   5     0.00000    16.38454     0.00000  0.0
    234    235    236    237   5     0.00000    30.33400     0.00000  0.0
    234    235    236    245   5     0.00000    30.33400     0.00000  0.0
    240    235    236    237   5     0.00000    30.33400     0.00000  0.0
    240    235    236    245   5     0.00000    30.33400     0.00000  0.0
    234    235    240    239   5     0.00000    30.33400     0.00000  0.0
    234    235    240    249   5     0.00000    30.33400     0.00000  0.0
    236    235    240    239   5     0.00000    30.33400     0.00000  0.0
    236    235    240    249   5     0.00000    30.33400     0.00000  0.0
    235    236    237    238   5     0.00000    30.33400     0.00000  0.0
    235    236    237    246   5     0.00000    30.33400     0.00000  0.0
    245    236    237    238   5     0.00000    30.33400     0.00000  0.0
    245    236    237    246   5     0.00000    30.33400     0.00000  0.0
    236    237    238    239   5     0.00000    30.33400     0.00000  0.0
    236    237    238    247   5     0.00000    30.33400     0.00000  0.0
    246    237    238    239   5     0.00000    30.33400     0.00000  0.0
    246    237    238    247   5     0.00000    30.33400     0.00000  0.0
    237    238    239    240   5     0.00000    30.33400     0.00000  0.0
    237    238    239    248   5     0.00000    30.33400     0.00000  0.0
    247    238    239    240   5     0.00000    30.33400     0.00000  0.0
    247    238    239    248   5     0.00000    30.33400     0.00000  0.0
    238    239    240    235   5     0.00000    30.33400     0.00000  0.0
    238    239    240    249   5     0.00000    30.33400     0.00000  0.0
    248    239    240    235   5     0.00000    30.33400     0.00000  0.0
    248    239    240    249   5     0.00000    30.33400     0.00000  0.0
    235    240    249    250   5     0.00000     0.34727     0.00000  0.0
    235    240    249    251   5     5.39736     1.23846     1.72799  0.0
    235    240    249    260   5     0.00000     0.00000     0.00000  0.0
    239    240    249    250   5     0.00000     0.34727     0.00000  0.0
    239    240    249    251   5     5.39736     1.23846     1.72799  0.0
    239    240    249    260   5     0.00000     0.00000     0.00000  0.0
    240    249    250    251   5    -5.38481    -0.35146     1.65686  0.0
    240    249    250    252   5    -0.30962     3.11290    -3.95806  0.0
    240    249    250    261   5     0.00000     0.00000     3.61498  0.0
    251    249    250    252   5     0.21338    -0.21757    10.07507  0.0
    251    249    250    261   5     0.00000     0.00000     1.95811  0.0
    260    249    250    251   5     0.00000     0.00000     1.95811  0.0
    260    249    250    252   5     0.00000     0.00000     1.25520  0.0
    260    249    250    261   5     0.00000     0.00000     1.25520  0.0
    240    249    251    250   5     0.00000     0.00000     3.13800  0.0
    260    249    251    250   5     0.00000     0.00000     3.07942  0.0
    252    250    251    249   5     0.52300    -0.09205     2.34722  0.0
    261    250    251    249   5     0.00000     0.00000     3.07942  0.0
    249    250    252    253   5    -2.24262     5.78647    -4.07940  0.0
    249    250    252    262   5     0.00000     0.00000     1.25520  0.0
    249    250    252    263   5     0.00000     0.00000     1.25520  0.0
    251    250    252    253   5     9.36379    -9.73617    -2.85767  0.0
    251    250    252    262   5     0.00000     0.00000     1.95811  0.0
    251    250    252    263   5     0.00000     0.00000     1.95811  0.0
    261    250    252    253   5     0.00000     0.00000     1.95811  0.0
    261    250    252    262   5     0.00000     0.00000     1.25520  0.0
    261    250    252    263   5     0.00000     0.00000     1.25520  0.0
    250    252    253    254   5    -2.74889    -2.99574     2.84094  0.0
    262    252    253    254   5     0.00000     0.00000     0.67362  0.0
    263    252    253    254   5     0.00000     0.00000     0.67362  0.0
    252    253    254    255   5     0.00000    16.38454     0.00000  0.0
    252    253    254    259   5     0.00000    16.38454     0.00000  0.0
    253    254    255    256   5     0.00000    30.33400     0.00000  0.0
    253    254    255    264   5     0.00000    30.33400     0.00000  0.0
    259    254    255    256   5     0.00000    30.33400     0.00000  0.0
    259    254    255    264   5     0.00000    30.33400     0.00000  0.0
    253    254    259    258   5     0.00000    30.33400     0.00000  0.0
    253    254    259    268   5     0.00000    30.33400     0.00000  0.0
    255    254    259    258   5     0.00000    30.33400     0.00000  0.0
    255    254    259    268   5     0.00000    30.33400     0.00000  0.0
    254    255    256    257   5     0.00000    30.33400     0.00000  0.0
    254    255    256    265   5     0.00000    30.33400     0.00000  0.0
    264    255    256    257   5     0.00000    30.33400     0.00000  0.0
    264    255    256    265   5     0.00000    30.33400     0.00000  0.0
    255    256    257    258   5     0.00000    30.33400     0.00000  0.0
    255    256    257    266   5     0.00000    30.33400     0.00000  0.0
    265    256    257    258   5     0.00000    30.33400     0.00000  0.0
    265    256    257    266   5     0.00000    30.33400     0.00000  0.0
    256    257    258    259   5     0.00000    30.33400     0.00000  0.0
    256    257    258    267   5     0.00000    30.33400     0.00000  0.0
    266    257    258    259   5     0.00000    30.33400     0.00000  0.0
    266    257    258    267   5     0.00000    30.33400     0.00000  0.0
    257    258    259    254   5     0.00000    30.33400     0.00000  0.0
    257    258    259    268   5     0.00000    30.33400     0.00000  0.0
    267    258    259    254   5     0.00000    30.33400     0.00000  0.0
    267    258    259    268   5     0.00000    30.33400     0.00000  0.0
    254    259    268    269   5     0.00000     0.34727     0.00000  0.0
    254    259    268    270   5     5.39736     1.23846     1.72799  0.0
    254    259    268    279   5     0.00000     0.00000     0.00000  0.0
    258    259    268    269   5     0.00000     0.34727     0.00000  0.0
    258    259    268    270   5     5.39736     1.23846     1.72799  0.0
    258    259    268    279   5     0.00000     0.00000     0.00000  0.0
    259    268    269    270   5    -5.38481    -0.35146     1.65686  0.0
    259    268    269    271   5    -0.30962     3.11290    -3.95806  0.0
    259    268    269    280   5     0.00000     0.00000     3.61498  0.0
    270    268    269    271   5     0.21338    -0.21757    10.07507  0.0
    270    268    269    280   5     0.00000     0.00000     1.95811  0.0
    279    268    269    270   5     0.00000     0.00000     1.95811  0.0
    279    268    269    271   5     0.00000     0.00000     1.25520  0.0
    279    268    269    280   5     0.00000     0.00000     1.25520  0.0
    259    268    270    269   5     0.00000     0.00000     3.13800  0.0
    279    268    270    269   5     0.00000     0.00000     3.07942  0.0
    271    269    270    268   5     0.52300    -0.09205     2.34722  0.0
    280    269    270    268   5     0.00000     0.00000     3.07942  0.0
    268    269    271    272   5    -2.24262     5.78647    -4.07940  0.0
    268    269    271    281   5     0.00000     0.00000     1.25520  0.0
    268    269    271    282   5     0.00000     0.00000     1.25520  0.0
    270    269    271    272   5     9.36379    -9.73617    -2.85767  0.0
    270    269    271    281   5     0.00000     0.00000     1.95811  0.0
    270    269    271    282   5     0.00000     0.00000     1.95811  0.0
    280    269    271    272   5     0.00000     0.00000     1.95811  0.0
    280    269    271    281   5     0.00000     0.00000     1.25520  0.0
    280    269    271    282   5     0.00000     0.00000     1.25520  0.0
    269    271    272    273   5    -2.74889    -2.99574     2.84094  0.0
    281    271    272    273   5     0.00000     0.00000     0.67362  0.0
    282    271    272    273   5     0.00000     0.00000     0.67362  0.0
    271    272    273    274   5     0.00000    16.38454     0.00000  0.0
    271    272    273    278   5     0.00000    16.38454     0.00000  0.0
    272    273    274    275   5     0.00000    30.33400     0.00000  0.0
    272    273    274    283   5     0.00000    30.33400     0.00000  0.0
    278    273    274    275   5     0.00000    30.33400     0.00000  0.0
    278    273    274    283   5     0.00000    30.33400     0.00000  0.0
    272    273    278    277   5     0.00000    30.33400     0.00000  0.0
    272    273    278    287   5     0.00000    30.33400     0.00000  0.0
    274    273    278    277   5     0.00000    30.33400     0.00000  0.0
    274    273    278    287   5     0.00000    30.33400     0.00000  0.0
    273    274    275    276   5     0.00000    30.33400     0.00000  0.0
    273    274    275    284   5     0.00000    30.33400     0.00000  0.0
    283    274    275    276   5     0.00000    30.33400     0.00000  0.0
    283    274    275    284   5     0.00000    30.33400     0.00000  0.0
    274    275    276    277   5     0.00000    30.33400     0.00000  0.0
    274    275    276    285   5     0.00000    30.33400     0.00000  0.0
    284    275    276    277   5     0.00000    30.33400     0.00000  0.0
    284    275    276    285   5     0.00000    30.33400     0.00000  0.0
    275    276    277    278   5     0.00000    30.33400     0.00000  0.0
    275    276    277    286   5     0.00000    30.33400     0.00000  0.0
    285    276    277    278   5     0.00000    30.33400     0.00000  0.0
    285    276    277    286   5     0.00000    30.33400     0.00000  0.0
    276    277    278    273   5     0.00000    30.33400     0.00000  0.0
    276    277    278    287   5     0.00000    30.33400     0.00000  0.0
    286    277    278    273   5     0.00000    30.33400     0.00000  0.0
    286    277    278    287   5     0.00000    30.33400     0.00000  0.0
    273    278    287    288   5     0.00000     0.34727     0.00000  0.0
    273    278    287    289   5     5.39736     1.23846     1.72799  0.0
    273    278    287    298   5     0.00000     0.00000     0.00000  0.0
    277    278    287    288   5     0.00000     0.34727     0.00000  0.0
    277    278    287    289   5     5.39736     1.23846     1.72799  0.0
    277    278    287    298   5     0.00000     0.00000     0.00000  0.0
    278    287    288    289   5    -5.38481    -0.35146     1.65686  0.0
    278    287    288    290   5    -0.30962     3.11290    -3.95806  0.0
    278    287    288    299   5     0.00000     0.00000     3.61498  0.0
    289    287    288    290   5     0.21338    -0.21757    10.07507  0.0
    289    287    288    299   5     0.00000     0.00000     1.95811  0.0
    298    287    288    289   5     0.00000     0.00000     1.95811  0.0
    298    287    288    290   5     0.00000     0.00000     1.25520  0.0
    298    287    288    299   5     0.00000     0.00000     1.25520  0.0
    278    287    289    288   5     0.00000     0.00000     3.13800  0.0
    298    287    289    288   5     0.00000     0.00000     3.07942  0.0
    290    288    289    287   5     0.52300    -0.09205     2.34722  0.0
    299    288    289    287   5     0.00000     0.00000     3.07942  0.0
    287    288    290    291   5    -2.24262     5.78647    -4.07940  0.0
    287    288    290    300   5     0.00000     0.00000     1.25520  0.0
    287    288    290    301   5     0.00000     0.00000     1.25520  0.0
    289    288    290    291   5     9.36379    -9.73617    -2.85767  0.0
    289    288    290    300   5     0.00000     0.00000     1.95811  0.0
    289    288    290    301   5     0.00000     0.00000     1.95811  0.0
    299    288    290    291   5     0.00000     0.00000     1.95811  0.0
    299    288    290    300   5     0.00000     0.00000     1.25520  0.0
    299    288    290    301   5     0.00000     0.00000     1.25520  0.0
    288    290    291    292   5    -2.74889    -2.99574     2.84094  0.0
    300    290    291    292   5     0.00000     0.00000     0.67362  0.0
    301    290    291    292   5     0.00000     0.00000     0.67362  0.0
    290    291    292    293   5     0.00000    16.38454     0.00000  0.0
    290    291    292    297   5     0.00000    16.38454     0.00000  0.0
    291    292    293    294   5     0.00000    30.33400     0.00000  0.0
    291    292    293    302   5     0.00000    30.33400     0.00000  0.0
    297    292    293    294   5     0.00000    30.33400     0.00000  0.0
    297    292    293    302   5     0.00000    30.33400     0.00000  0.0
    291    292    297    296   5     0.00000    30.33400     0.00000  0.0
    291    292    297    306   5     0.00000    30.33400     0.00000  0.0
    293    292    297    296   5     0.00000    30.33400     0.00000  0.0
    293    292    297    306   5     0.00000    30.33400     0.00000  0.0
    292    293    294    295   5     0.00000    30.33400     0.00000  0.0
    292    293    294    303   5     0.00000    30.33400     0.00000  0.0
    302    293    294    295   5     0.00000    30.33400     0.00000  0.0
    302    293    294    303   5     0.00000    30.33400     0.00000  0.0
    293    294    295    296   5     0.00000    30.33400     0.00000  0.0
    293    294    295    304   5     0.00000    30.33400     0.00000  0.0
    303    294    295    296   5     0.00000    30.33400     0.00000  0.0
    303    294    295    304   5     0.00000    30.33400     0.00000  0.0
    294    295    296    297   5     0.00000    30.33400     0.00000  0.0
    294    295    296    305   5     0.00000    30.33400     0.00000  0.0
    304    295    296    297   5     0.00000    30.33400     0.00000  0.0
    304    295    296    305   5     0.00000    30.33400     0.00000  0.0
    295    296    297    292   5     0.00000    30.33400     0.00000  0.0
    295    296    297    306   5     0.00000    30.33400     0.00000  0.0
    305    296    297    292   5     0.00000    30.33400     0.00000  0.0
    305    296    297    306   5     0.00000    30.33400     0.00000  0.0
    292    297    306    307   5     0.00000     0.34727     0.00000  0.0
    292    297    306    308   5     5.39736     1.23846     1.72799  0.0
    292    297    306    317   5     0.00000     0.00000     0.00000  0.0
    296    297    306    307   5     0.00000     0.34727     0.00000  0.0
    296    297    306    308   5     5.39736     1.23846     1.72799  0.0
    296    297    306    317   5     0.00000     0.00000     0.00000  0.0
    297    306    307    308   5    -5.38481    -0.35146     1.65686  0.0
    297    306    307    309   5    -0.30962     3.11290    -3.95806  0.0
    297    306    307    318   5     0.00000     0.00000     3.61498  0.0
    308    306    307    309   5     0.21338    -0.21757    10.07507  0.0
    308    306    307    318   5     0.00000     0.00000     1.95811  0.0
    317    306    307    308   5     0.00000     0.00000     1.95811  0.0
    317    306    307    309   5     0.00000     0.00000     1.25520  0.0
    317    306    307    318   5     0.00000     0.00000     1.25520  0.0
    297    306    308    307   5     0.00000     0.00000     3.13800  0.0
    317    306    308    307   5     0.00000     0.00000     3.07942  0.0
    309    307    308    306   5     0.52300    -0.09205     2.34722  0.0
    318    307    308    306   5     0.00000     0.00000     3.07942  0.0
    306    307    309    310   5    -2.24262     5.78647    -4.07940  0.0
    306    307    309    319   5     0.00000     0.00000     1.25520  0.0
    306    307    309    320   5     0.00000     0.00000     1.25520  0.0
    308    307    309    310   5     9.36379    -9.73617    -2.85767  0.0
    308    307    309    319   5     0.00000     0.00000     1.95811  0.0
    308    307    309    320   5     0.00000     0.00000     1.95811  0.0
    318    307    309    310   5     0.00000     0.00000     1.95811  0.0
    318    307    309    319   5     0.00000     0.00000     1.25520  0.0
    318    307    309    320   5     0.00000     0.00000     1.25520  0.0
    307    309    310    311   5    -2.74889    -2.99574     2.84094  0.0
    319    309    310    311   5     0.00000     0.00000     0.67362  0.0
    320    309    310    311   5     0.00000     0.00000     0.67362  0.0
    309    310    311    312   5     0.00000    16.38454     0.00000  0.0
    309    310    311    316   5     0.00000    16.38454     0.00000  0.0
    310    311    312    313   5     0.00000    30.33400     0.00000  0.0
    310    311    312    321   5     0.00000    30.33400     0.00000  0.0
    316    311    312    313   5     0.00000    30.33400     0.00000  0.0
    316    311    312    321   5     0.00000    30.33400     0.00000  0.0
    310    311    316    315   5     0.00000    30.33400     0.00000  0.0
    310    311    316    325   5     0.00000    30.33400     0.00000  0.0
    312    311    316    315   5     0.00000    30.33400     0.00000  0.0
    312    311    316    325   5     0.00000    30.33400     0.00000  0.0
    311    312    313    314   5     0.00000    30.33400     0.00000  0.0
    311    312    313    322   5     0.00000    30.33400     0.00000  0.0
    321    312    313    314   5     0.00000    30.33400     0.00000  0.0
    321    312    313    322   5     0.00000    30.33400     0.00000  0.0
    312    313    314    315   5     0.00000    30.33400     0.00000  0.0
    312    313    314    323   5     0.00000    30.33400     0.00000  0.0
    322    313    314    315   5     0.00000    30.33400     0.00000  0.0
    322    313    314    323   5     0.00000    30.33400     0.00000  0.0
    313    314    315    316   5     0.00000    30.33400     0.00000  0.0
    313    314    315    324   5     0.00000    30.33400     0.00000  0.0
    323    314    315    316   5     0.00000    30.33400     0.00000  0.0
    323    314    315    324   5     0.00000    30.33400     0.00000  0.0
    314    315    316    311   5     0.00000    30.33400     0.00000  0.0
    314    315    316    325   5     0.00000    30.33400     0.00000  0.0
    324    315    316    311   5     0.00000    30.33400     0.00000  0.0
    324    315    316    325   5     0.00000    30.33400     0.00000  0.0
    311    316    325    326   5     0.00000     0.34727     0.00000  0.0
    311    316    325    327   5     5.39736     1.23846     1.72799  0.0
    311    316    325    336   5     0.00000     0.00000     0.00000  0.0
    315    316    325    326   5     0.00000     0.34727     0.00000  0.0
    315    316    325    327   5     5.39736     1.23846     1.72799  0.0
    315    316    325    336   5     0.00000     0.00000     0.00000  0.0
    316    325    326    327   5    -5.38481    -0.35146     1.65686  0.0
    316    325    326    328   5    -0.30962     3.11290    -3.95806  0.0
    316    325    326    337   5     0.00000     0.00000     3.61498  0.0
    327    325    326    328   5     0.21338    -0.21757    10.07507  0.0
    327    325    326    337   5     0.00000     0.00000     1.95811  0.0
    336    325    326    327   5     0.00000     0.00000     1.95811  0.0
    336    325    326    328   5     0.00000     0.00000     1.25520  0.0
    336    325    326    337   5     0.00000     0.00000     1.25520  0.0
    316    325    327    326   5     0.00000     0.00000     3.13800  0.0
    336    325    327    326   5     0.00000     0.00000     3.07942  0.0
    328    326    327    325   5     0.52300    -0.09205     2.34722  0.0
    337    326    327    325   5     0.00000     0.00000     3.07942  0.0
    325    326    328    329   5    -2.24262     5.78647    -4.07940  0.0
    325    326    328    338   5     0.00000     0.00000     1.25520  0.0
    325    326    328    339   5     0.00000     0.00000     1.25520  0.0
    327    326    328    329   5     9.36379    -9.73617    -2.85767  0.0
    327    326    328    338   5     0.00000     0.00000     1.95811  0.0
    327    326    328    339   5     0.00000     0.00000     1.95811  0.0
    337    326    328    329   5     0.00000     0.00000     1.95811  0.0
    337    326    328    338   5     0.00000     0.00000     1.25520  0.0
    337    326    328    339   5     0.00000     0.00000     1.25520  0.0
    326    328    329    330   5    -2.74889    -2.99574     2.84094  0.0
    338    328    329    330   5     0.00000     0.00000     0.67362  0.0
    339    328    329    330   5     0.00000     0.00000     0.67362  0.0
    328    329    330    331   5     0.00000    16.38454     0.00000  0.0
    328    329    330    335   5     0.00000    16.38454     0.00000  0.0
    329    330    331    332   5     0.00000    30.33400     0.00000  0.0
    329    330    331    340   5     0.00000    30.33400     0.00000  0.0
    335    330    331    332   5     0.00000    30.33400     0.00000  0.0
    335    330    331    340   5     0.00000    30.33400     0.00000  0.0
    329    330    335    334   5     0.00000    30.33400     0.00000  0.0
    329    330    335    344   5     0.00000    30.33400     0.00000  0.0
    331    330    335    334   5     0.00000    30.33400     0.00000  0.0
    331    330    335    344   5     0.00000    30.33400     0.00000  0.0
    330    331    332    333   5     0.00000    30.33400     0.00000  0.0
    330    331    332    341   5     0.00000    30.33400     0.00000  0.0
    340    331    332    333   5     0.00000    30.33400     0.00000  0.0
    340    331    332    341   5     0.00000    30.33400     0.00000  0.0
    331    332    333    334   5     0.00000    30.33400     0.00000  0.0
    331    332    333    342   5     0.00000    30.33400     0.00000  0.0
    341    332    333    334   5     0.00000    30.33400     0.00000  0.0
    341    332    333    342   5     0.00000    30.33400     0.00000  0.0
    332    333    334    335   5     0.00000    30.33400     0.00000  0.0
    332    333    334    343   5     0.00000    30.33400     0.00000  0.0
    342    333    334    335   5     0.00000    30.33400     0.00000  0.0
    342    333    334    343   5     0.00000    30.33400     0.00000  0.0
    333    334    335    330   5     0.00000    30.33400     0.00000  0.0
    333    334    335    344   5     0.00000    30.33400     0.00000  0.0
    343    334    335    330   5     0.00000    30.33400     0.00000  0.0
    343    334    335    344   5     0.00000    30.33400     0.00000  0.0
    330    335    344    345   5     0.00000     0.34727     0.00000  0.0
    330    335    344    346   5     5.39736     1.23846     1.72799  0.0
    330    335    344    355   5     0.00000     0.00000     0.00000  0.0
    334    335    344    345   5     0.00000     0.34727     0.00000  0.0
    334    335    344    346   5     5.39736     1.23846     1.72799  0.0
    334    335    344    355   5     0.00000     0.00000     0.00000  0.0
    335    344    345    346   5    -5.38481    -0.35146     1.65686  0.0
    335    344    345    347   5    -0.30962     3.11290    -3.95806  0.0
    335    344    345    356   5     0.00000     0.00000     3.61498  0.0
    346    344    345    347   5     0.21338    -0.21757    10.07507  0.0
    346    344    345    356   5     0.00000     0.00000     1.95811  0.0
    355    344    345    346   5     0.00000     0.00000     1.95811  0.0
    355    344    345    347   5     0.00000     0.00000     1.25520  0.0
    355    344    345    356   5     0.00000     0.00000     1.25520  0.0
    335    344    346    345   5     0.00000     0.00000     3.13800  0.0
    355    344    346    345   5     0.00000     0.00000     3.07942  0.0
    347    345    346    344   5     0.52300    -0.09205     2.34722  0.0
    356    345    346    344   5     0.00000     0.00000     3.07942  0.0
    344    345    347    348   5    -2.24262     5.78647    -4.07940  0.0
    344    345    347    357   5     0.00000     0.00000     1.25520  0.0
    344    345    347    358   5     0.00000     0.00000     1.25520  0.0
    346    345    347    348   5     9.36379    -9.73617    -2.85767  0.0
    346    345    347    357   5     0.00000     0.00000     1.95811  0.0
    346    345    347    358   5     0.00000     0.00000     1.95811  0.0
    356    345    347    348   5     0.00000     0.00000     1.95811  0.0
    356    345    347    357   5     0.00000     0.00000     1.25520  0.0
    356    345    347    358   5     0.00000     0.00000     1.25520  0.0
    345    347    348    349   5    -2.74889    -2.99574     2.84094  0.0
    357    347    348    349   5     0.00000     0.00000     0.67362  0.0
    358    347    348    349   5     0.00000     0.00000     0.67362  0.0
    347    348    349    350   5     0.00000    16.38454     0.00000  0.0
    347    348    349    354   5     0.00000    16.38454     0.00000  0.0
    348    349    350    351   5     0.00000    30.33400     0.00000  0.0
    348    349    350    359   5     0.00000    30.33400     0.00000  0.0
    354    349    350    351   5     0.00000    30.33400     0.00000  0.0
    354    349    350    359   5     0.00000    30.33400     0.00000  0.0
    348    349    354    353   5     0.00000    30.33400     0.00000  0.0
    348    349    354    363   5     0.00000    30.33400     0.00000  0.0
    350    349    354    353   5     0.00000    30.33400     0.00000  0.0
    350    349    354    363   5     0.00000    30.33400     0.00000  0.0
    349    350    351    352   5     0.00000    30.33400     0.00000  0.0
    349    350    351    360   5     0.00000    30.33400     0.00000  0.0
    359    350    351    352   5     0.00000    30.33400     0.00000  0.0
    359    350    351    360   5     0.00000    30.33400     0.00000  0.0
    350    351    352    353   5     0.00000    30.33400     0.00000  0.0
    350    351    352    361   5     0.00000    30.33400     0.00000  0.0
    360    351    352    353   5     0.00000    30.33400     0.00000  0.0
    360    351    352    361   5     0.00000    30.33400     0.00000  0.0
    351    352    353    354   5     0.00000    30.33400     0.00000  0.0
    351    352    353    362   5     0.00000    30.33400     0.00000  0.0
    361    352    353    354   5     0.00000    30.33400     0.00000  0.0
    361    352    353    362   5     0.00000    30.33400     0.00000  0.0
    352    353    354    349   5     0.00000    30.33400     0.00000  0.0
    352    353    354    363   5     0.00000    30.33400     0.00000  0.0
    362    353    354    349   5     0.00000    30.33400     0.00000  0.0
    362    353    354    363   5     0.00000    30.33400     0.00000  0.0
    349    354    363    364   5     0.00000     0.34727     0.00000  0.0
    349    354    363    365   5     5.39736     1.23846     1.72799  0.0
    349    354    363    374   5     0.00000     0.00000     0.00000  0.0
    353    354    363    364   5     0.00000     0.34727     0.00000  0.0
    353    354    363    365   5     5.39736     1.23846     1.72799  0.0
    353    354    363    374   5     0.00000     0.00000     0.00000  0.0
    354    363    364    365   5    -5.38481    -0.35146     1.65686  0.0
    354    363    364    366   5    -0.30962     3.11290    -3.95806  0.0
    354    363    364    375   5     0.00000     0.00000     3.61498  0.0
    365    363    364    366   5     0.21338    -0.21757    10.07507  0.0
    365    363    364    375   5     0.00000     0.00000     1.95811  0.0
    374    363    364    365   5     0.00000     0.00000     1.95811  0.0
    374    363    364    366   5     0.00000     0.00000     1.25520  0.0
    374    363    364    375   5     0.00000     0.00000     1.25520  0.0
    354    363    365    364   5     0.00000     0.00000     3.13800  0.0
    374    363    365    364   5     0.00000     0.00000     3.07942  0.0
    366    364    365    363   5     0.52300    -0.09205     2.34722  0.0
    375    364    365    363   5     0.00000     0.00000     3.07942  0.0
    363    364    366    367   5    -2.24262     5.78647    -4.07940  0.0
    363    364    366    376   5     0.00000     0.00000     1.25520  0.0
    363    364    366    377   5     0.00000     0.00000     1.25520  0.0
    365    364    366    367   5     9.36379    -9.73617    -2.85767  0.0
    365    364    366    376   5     0.00000     0.00000     1.95811  0.0
    365    364    366    377   5     0.00000     0.00000     1.95811  0.0
    375    364    366    367   5     0.00000     0.00000     1.95811  0.0
    375    364    366    376   5     0.00000     0.00000     1.25520  0.0
    375    364    366    377   5     0.00000     0.00000     1.25520  0.0
    364    366    367    368   5    -2.74889    -2.99574     2.84094  0.0
    376    366    367    368   5     0.00000     0.00000     0.67362  0.0
    377    366    367    368   5     0.00000     0.00000     0.67362  0.0
    366    367    368    369   5     0.00000    16.38454     0.00000  0.0
    366    367    368    373   5     0.00000    16.38454     0.00000  0.0
    367    368    369    370   5     0.00000    30.33400     0.00000  0.0
    367    368    369    378   5     0.00000    30.33400     0.00000  0.0
    373    368    369    370   5     0.00000    30.33400     0.00000  0.0
    373    368    369    378   5     0.00000    30.33400     0.00000  0.0
    367    368    373    372   5     0.00000    30.33400     0.00000  0.0
    367    368    373    382   5     0.00000    30.33400     0.00000  0.0
    369    368    373    372   5     0.00000    30.33400     0.00000  0.0
    369    368    373    382   5     0.00000    30.33400     0.00000  0.0
    368    369    370    371   5     0.00000    30.33400     0.00000  0.0
    368    369    370    379   5     0.00000    30.33400     0.00000  0.0
    378    369    370    371   5     0.00000    30.33400     0.00000  0.0
    378    369    370    379   5     0.00000    30.33400     0.00000  0.0
    369    370    371    372   5     0.00000    30.33400     0.00000  0.0
    369    370    371    380   5     0.00000    30.33400     0.00000  0.0
    379    370    371    372   5     0.00000    30.33400     0.00000  0.0
    379    370    371    380   5     0.00000    30.33400     0.00000  0.0
    370    371    372    373   5     0.00000    30.33400     0.00000  0.0
    370    371    372    381   5     0.00000    30.33400     0.00000  0.0
    380    371    372    373   5     0.00000    30.33400     0.00000  0.0
    380    371    372    381   5     0.00000    30.33400     0.00000  0.0
    371    372    373    368   5     0.00000    30.33400     0.00000  0.0
    371    372    373    382   5     0.00000    30.33400     0.00000  0.0
    381    372    373    368   5     0.00000    30.33400     0.00000  0.0
    381    372    373    382   5     0.00000    30.33400     0.00000  0.0

[ dihedrals ]
; Improper dihedrals
; h   i   j   k   funct
      5      7      6     11   5     0.00000    33.47200     0.00000  0.0
      6      8      7     16   5     0.00000     9.20480     0.00000  0.0
      7      9      8     17   5     0.00000     9.20480     0.00000  0.0
      8     10      9     18   5     0.00000     9.20480     0.00000  0.0
      9     11     10     19   5     0.00000     9.20480     0.00000  0.0
      6     10     11     21   5     0.00000    33.47200     0.00000  0.0
     25     27     26     31   5     0.00000    33.47200     0.00000  0.0
     26     28     27     36   5     0.00000     9.20480     0.00000  0.0
     27     29     28     37   5     0.00000     9.20480     0.00000  0.0
     28     30     29     38   5     0.00000     9.20480     0.00000  0.0
     29     31     30     39   5     0.00000     9.20480     0.00000  0.0
     26     30     31     40   5     0.00000    33.47200     0.00000  0.0
     44     46     45     50   5     0.00000    33.47200     0.00000  0.0
     45     47     46     55   5     0.00000     9.20480     0.00000  0.0
     46     48     47     56   5     0.00000     9.20480     0.00000  0.0
     47     49     48     57   5     0.00000     9.20480     0.00000  0.0
     48     50     49     58   5     0.00000     9.20480     0.00000  0.0
     45     49     50     59   5     0.00000    33.47200     0.00000  0.0
     63     65     64     69   5     0.00000    33.47200     0.00000  0.0
     64     66     65     74   5     0.00000     9.20480     0.00000  0.0
     65     67     66     75   5     0.00000     9.20480     0.00000  0.0
     66     68     67     76   5     0.00000     9.20480     0.00000  0.0
     67     69     68     77   5     0.00000     9.20480     0.00000  0.0
     64     68     69     78   5     0.00000    33.47200     0.00000  0.0
     82     84     83     88   5     0.00000    33.47200     0.00000  0.0
     83     85     84     93   5     0.00000     9.20480     0.00000  0.0
     84     86     85     94   5     0.00000     9.20480     0.00000  0.0
     85     87     86     95   5     0.00000     9.20480     0.00000  0.0
     86     88     87     96   5     0.00000     9.20480     0.00000  0.0
     83     87     88     97   5     0.00000    33.47200     0.00000  0.0
    101    103    102    107   5     0.00000    33.47200     0.00000  0.0
    102    104    103    112   5     0.00000     9.20480     0.00000  0.0
    103    105    104    113   5     0.00000     9.20480     0.00000  0.0
    104    106    105    114   5     0.00000     9.20480     0.00000  0.0
    105    107    106    115   5     0.00000     9.20480     0.00000  0.0
    102    106    107    116   5     0.00000    33.47200     0.00000  0.0
    120    122    121    126   5     0.00000    33.47200     0.00000  0.0
    121    123    122    131   5     0.00000     9.20480     0.00000  0.0
    122    124    123    132   5     0.00000     9.20480     0.00000  0.0
    123    125    124    133   5     0.00000     9.20480     0.00000  0.0
    124    126    125    134   5     0.00000     9.20480     0.00000  0.0
    121    125    126    135   5     0.00000    33.47200     0.00000  0.0
    139    141    140    145   5     0.00000    33.47200     0.00000  0.0
    140    142    141    150   5     0.00000     9.20480     0.00000  0.0
    141    143    142    151   5     0.00000     9.20480     0.00000  0.0
    142    144    143    152   5     0.00000     9.20480     0.00000  0.0
    143    145    144    153   5     0.00000     9.20480     0.00000  0.0
    140    144    145    154   5     0.00000    33.47200     0.00000  0.0
    158    160    159    164   5     0.00000    33.47200     0.00000  0.0
    159    161    160    169   5     0.00000     9.20480     0.00000  0.0
    160    162    161    170   5     0.00000     9.20480     0.00000  0.0
    161    163    162    171   5     0.00000     9.20480     0.00000  0.0
    162    164    163    172   5     0.00000     9.20480     0.00000  0.0
    159    163    164    173   5     0.00000    33.47200     0.00000  0.0
    177    179    178    183   5     0.00000    33.47200     0.00000  0.0
    178    180    179    188   5     0.00000     9.20480     0.00000  0.0
    179    181    180    189   5     0.00000     9.20480     0.00000  0.0
    180    182    181    190   5     0.00000     9.20480     0.00000  0.0
    181    183    182    191   5     0.00000     9.20480     0.00000  0.0
    178    182    183    192   5     0.00000    33.47200     0.00000  0.0
    196    198    197    202   5     0.00000    33.47200     0.00000  0.0
    197    199    198    207   5     0.00000     9.20480     0.00000  0.0
    198    200    199    208   5     0.00000     9.20480     0.00000  0.0
    199    201    200    209   5     0.00000     9.20480     0.00000  0.0
    200    202    201    210   5     0.00000     9.20480     0.00000  0.0
    197    201    202    211   5     0.00000    33.47200     0.00000  0.0
    215    217    216    221   5     0.00000    33.47200     0.00000  0.0
    216    218    217    226   5     0.00000     9.20480     0.00000  0.0
    217    219    218    227   5     0.00000     9.20480     0.00000  0.0
    218    220    219    228   5     0.00000     9.20480     0.00000  0.0
    219    221    220    229   5     0.00000     9.20480     0.00000  0.0
    216    220    221    230   5     0.00000    33.47200     0.00000  0.0
    234    236    235    240   5     0.00000    33.47200     0.00000  0.0
    235    237    236    245   5     0.00000     9.20480     0.00000  0.0
    236    238    237    246   5     0.00000     9.20480     0.00000  0.0
    237    239    238    247   5     0.00000     9.20480     0.00000  0.0
    238    240    239    248   5     0.00000     9.20480     0.00000  0.0
    235    239    240    249   5     0.00000    33.47200     0.00000  0.0
    253    255    254    259   5     0.00000    33.47200     0.00000  0.0
    254    256    255    264   5     0.00000     9.20480     0.00000  0.0
    255    257    256    265   5     0.00000     9.20480     0.00000  0.0
    256    258    257    266   5     0.00000     9.20480     0.00000  0.0
    257    259    258    267   5     0.00000     9.20480     0.00000  0.0
    254    258    259    268   5     0.00000    33.47200     0.00000  0.0
    272    274    273    278   5     0.00000    33.47200     0.00000  0.0
    273    275    274    283   5     0.00000     9.20480     0.00000  0.0
    274    276    275    284   5     0.00000     9.20480     0.00000  0.0
    275    277    276    285   5     0.00000     9.20480     0.00000  0.0
    276    278    277    286   5     0.00000     9.20480     0.00000  0.0
    273    277    278    287   5     0.00000    33.47200     0.00000  0.0
    291    293    292    297   5     0.00000    33.47200     0.00000  0.0
    292    294    293    302   5     0.00000     9.20480     0.00000  0.0
    293    295    294    303   5     0.00000     9.20480     0.00000  0.0
    294    296    295    304   5     0.00000     9.20480     0.00000  0.0
    295    297    296    305   5     0.00000     9.20480     0.00000  0.0
    292    296    297    306   5     0.00000    33.47200     0.00000  0.0
    310    312    311    316   5     0.00000    33.47200     0.00000  0.0
    311    313    312    321   5     0.00000     9.20480     0.00000  0.0
    312    314    313    322   5     0.00000     9.20480     0.00000  0.0
    313    315    314    323   5     0.00000     9.20480     0.00000  0.0
    314    316    315    324   5     0.00000     9.20480     0.00000  0.0
    311    315    316    325   5     0.00000    33.47200     0.00000  0.0
    329    331    330    335   5     0.00000    33.47200     0.00000  0.0
    330    332    331    340   5     0.00000     9.20480     0.00000  0.0
    331    333    332    341   5     0.00000     9.20480     0.00000  0.0
    332    334    333    342   5     0.00000     9.20480     0.00000  0.0
    333    335    334    343   5     0.00000     9.20480     0.00000  0.0
    330    334    335    344   5     0.00000    33.47200     0.00000  0.0
    348    350    349    354   5     0.00000    33.47200     0.00000  0.0
    349    351    350    359   5     0.00000     9.20480     0.00000  0.0
    350    352    351    360   5     0.00000     9.20480     0.00000  0.0
    351    353    352    361   5     0.00000     9.20480     0.00000  0.0
    352    354    353    362   5     0.00000     9.20480     0.00000  0.0
    349    353    354    363   5     0.00000    33.47200     0.00000  0.0
    367    369    368    373   5     0.00000    33.47200     0.00000  0.0
    368    370    369    378   5     0.00000     9.20480     0.00000  0.0
    369    371    370    379   5     0.00000     9.20480     0.00000  0.0
    370    372    371    380   5     0.00000     9.20480     0.00000  0.0
    371    373    372    381   5     0.00000     9.20480     0.00000  0.0
    368    372    373    382   5     0.00000     9.20480     0.00000  0.0
